/*--------------------------------*- C++ -*----------------------------------*\
| =========                 |                                                 |
| \\      /  F ield         | OpenFOAM: The Open Source CFD Toolbox           |
|  \\    /   O peration     | Version:  v2006                                 |
|   \\  /    A nd           | Website:  www.openfoam.com                      |
|    \\/     M anipulation  |                                                 |
\*---------------------------------------------------------------------------*/
FoamFile
{
    version     2.0;
    format      ascii;
    class       volScalarField;
    location    "0.075";
    object      p;
}
// * * * * * * * * * * * * * * * * * * * * * * * * * * * * * * * * * * * * * //

dimensions      [1 -1 -2 0 0 0 0];


internalField   nonuniform List<scalar> 
168000
(
101332.7055
101332.7055
101332.7055
101332.7055
101332.7054
101332.7054
101332.7053
101332.7053
101332.7052
101332.7052
101332.7051
101332.705
101332.705
101332.7049
101332.7048
101332.7047
101332.7047
101332.7046
101332.7045
101332.7043
101332.7042
101332.7041
101332.7039
101332.7038
101332.7036
101332.7035
101332.7033
101332.7031
101332.7029
101332.7027
101332.7025
101332.7022
101332.702
101332.7017
101332.7014
101332.7011
101332.7008
101332.7004
101332.7001
101332.6996
101332.7039
101332.7039
101332.7039
101332.7039
101332.7038
101332.7038
101332.7037
101332.7037
101332.7036
101332.7035
101332.7035
101332.7034
101332.7033
101332.7033
101332.7032
101332.7031
101332.703
101332.7029
101332.7028
101332.7027
101332.7026
101332.7024
101332.7023
101332.7021
101332.702
101332.7018
101332.7016
101332.7014
101332.7012
101332.701
101332.7007
101332.7005
101332.7002
101332.6999
101332.6996
101332.6993
101332.699
101332.6986
101332.6983
101332.6978
101332.7023
101332.7023
101332.7023
101332.7023
101332.7022
101332.7021
101332.7021
101332.7021
101332.702
101332.7019
101332.7019
101332.7018
101332.7017
101332.7016
101332.7016
101332.7015
101332.7014
101332.7013
101332.7012
101332.701
101332.7009
101332.7008
101332.7006
101332.7005
101332.7003
101332.7001
101332.6999
101332.6997
101332.6995
101332.6993
101332.699
101332.6988
101332.6985
101332.6982
101332.6979
101332.6976
101332.6972
101332.6968
101332.6965
101332.696
101332.7007
101332.7007
101332.7007
101332.7006
101332.7006
101332.7005
101332.7005
101332.7004
101332.7004
101332.7003
101332.7002
101332.7002
101332.7001
101332.7
101332.6999
101332.6998
101332.6998
101332.6997
101332.6995
101332.6994
101332.6993
101332.6991
101332.699
101332.6988
101332.6986
101332.6985
101332.6982
101332.698
101332.6978
101332.6976
101332.6973
101332.697
101332.6967
101332.6964
101332.6961
101332.6958
101332.6954
101332.695
101332.6947
101332.6942
101332.6991
101332.6991
101332.6991
101332.699
101332.699
101332.6989
101332.6989
101332.6988
101332.6988
101332.6987
101332.6986
101332.6986
101332.6985
101332.6984
101332.6983
101332.6982
101332.6981
101332.698
101332.6979
101332.6978
101332.6976
101332.6975
101332.6973
101332.6971
101332.697
101332.6968
101332.6966
101332.6963
101332.6961
101332.6959
101332.6956
101332.6953
101332.695
101332.6947
101332.6944
101332.694
101332.6936
101332.6932
101332.6929
101332.6924
101332.6975
101332.6975
101332.6975
101332.6974
101332.6974
101332.6973
101332.6973
101332.6972
101332.6972
101332.6971
101332.697
101332.697
101332.6969
101332.6968
101332.6967
101332.6966
101332.6965
101332.6964
101332.6963
101332.6961
101332.696
101332.6958
101332.6957
101332.6955
101332.6953
101332.6951
101332.6949
101332.6947
101332.6944
101332.6942
101332.6939
101332.6936
101332.6933
101332.693
101332.6926
101332.6922
101332.6918
101332.6914
101332.691
101332.6906
101332.6959
101332.6959
101332.6959
101332.6958
101332.6958
101332.6957
101332.6957
101332.6956
101332.6956
101332.6955
101332.6954
101332.6954
101332.6953
101332.6952
101332.6951
101332.695
101332.6949
101332.6947
101332.6946
101332.6945
101332.6943
101332.6942
101332.694
101332.6938
101332.6936
101332.6934
101332.6932
101332.693
101332.6927
101332.6925
101332.6921
101332.6919
101332.6916
101332.6912
101332.6908
101332.6905
101332.69
101332.6896
101332.6892
101332.6888
101332.6943
101332.6943
101332.6943
101332.6942
101332.6942
101332.6941
101332.6941
101332.694
101332.694
101332.6939
101332.6938
101332.6938
101332.6937
101332.6936
101332.6935
101332.6934
101332.6933
101332.6931
101332.693
101332.6929
101332.6927
101332.6926
101332.6924
101332.6922
101332.692
101332.6918
101332.6915
101332.6913
101332.691
101332.6908
101332.6904
101332.6901
101332.6898
101332.6895
101332.6891
101332.6887
101332.6883
101332.6878
101332.6874
101332.687
101332.6927
101332.6927
101332.6927
101332.6926
101332.6926
101332.6925
101332.6925
101332.6924
101332.6924
101332.6923
101332.6922
101332.6922
101332.6921
101332.692
101332.6919
101332.6917
101332.6916
101332.6915
101332.6914
101332.6912
101332.6911
101332.6909
101332.6907
101332.6905
101332.6903
101332.6901
101332.6899
101332.6896
101332.6893
101332.6891
101332.6887
101332.6884
101332.6881
101332.6877
101332.6873
101332.6869
101332.6865
101332.686
101332.6856
101332.6851
101332.6911
101332.6911
101332.6911
101332.691
101332.691
101332.6909
101332.6909
101332.6908
101332.6908
101332.6907
101332.6906
101332.6906
101332.6905
101332.6904
101332.6903
101332.6901
101332.69
101332.6899
101332.6898
101332.6896
101332.6894
101332.6893
101332.6891
101332.6889
101332.6887
101332.6884
101332.6882
101332.6879
101332.6877
101332.6874
101332.687
101332.6867
101332.6863
101332.686
101332.6856
101332.6852
101332.6847
101332.6842
101332.6838
101332.6833
101332.6895
101332.6895
101332.6895
101332.6894
101332.6894
101332.6894
101332.6893
101332.6892
101332.6892
101332.6891
101332.689
101332.689
101332.6889
101332.6888
101332.6887
101332.6885
101332.6884
101332.6883
101332.6882
101332.688
101332.6878
101332.6876
101332.6875
101332.6873
101332.687
101332.6868
101332.6865
101332.6862
101332.686
101332.6857
101332.6853
101332.685
101332.6846
101332.6842
101332.6838
101332.6834
101332.6829
101332.6825
101332.682
101332.6815
101332.6879
101332.6879
101332.6879
101332.6879
101332.6878
101332.6878
101332.6877
101332.6877
101332.6876
101332.6875
101332.6874
101332.6874
101332.6873
101332.6872
101332.6871
101332.6869
101332.6868
101332.6867
101332.6865
101332.6864
101332.6862
101332.686
101332.6858
101332.6856
101332.6854
101332.6851
101332.6848
101332.6846
101332.6843
101332.684
101332.6836
101332.6832
101332.6829
101332.6824
101332.682
101332.6816
101332.6811
101332.6807
101332.6802
101332.6797
101332.6863
101332.6863
101332.6863
101332.6863
101332.6862
101332.6862
101332.6862
101332.6861
101332.686
101332.6859
101332.6858
101332.6858
101332.6857
101332.6856
101332.6855
101332.6853
101332.6852
101332.6851
101332.6849
101332.6848
101332.6846
101332.6844
101332.6842
101332.684
101332.6837
101332.6835
101332.6832
101332.6829
101332.6826
101332.6822
101332.6819
101332.6815
101332.6811
101332.6807
101332.6803
101332.6798
101332.6793
101332.6789
101332.6784
101332.6779
101332.6847
101332.6847
101332.6847
101332.6847
101332.6847
101332.6846
101332.6846
101332.6845
101332.6844
101332.6843
101332.6843
101332.6842
101332.6841
101332.684
101332.6839
101332.6837
101332.6836
101332.6835
101332.6833
101332.6832
101332.683
101332.6828
101332.6826
101332.6823
101332.6821
101332.6818
101332.6815
101332.6812
101332.6809
101332.6805
101332.6802
101332.6798
101332.6794
101332.6789
101332.6785
101332.6781
101332.6776
101332.6771
101332.6766
101332.6761
101332.6831
101332.6831
101332.6831
101332.6831
101332.6831
101332.683
101332.683
101332.6829
101332.6828
101332.6827
101332.6827
101332.6826
101332.6825
101332.6824
101332.6823
101332.6822
101332.682
101332.6819
101332.6817
101332.6815
101332.6814
101332.6812
101332.6809
101332.6807
101332.6804
101332.6801
101332.6799
101332.6795
101332.6792
101332.6788
101332.6785
101332.6781
101332.6776
101332.6772
101332.6767
101332.6763
101332.6758
101332.6753
101332.6748
101332.6743
101332.6816
101332.6815
101332.6815
101332.6815
101332.6815
101332.6814
101332.6814
101332.6813
101332.6812
101332.6812
101332.6811
101332.681
101332.6809
101332.6808
101332.6807
101332.6806
101332.6804
101332.6803
101332.6801
101332.6799
101332.6798
101332.6795
101332.6793
101332.6791
101332.6788
101332.6785
101332.6782
101332.6779
101332.6775
101332.6771
101332.6768
101332.6764
101332.6759
101332.6754
101332.675
101332.6745
101332.674
101332.6735
101332.673
101332.6725
101332.68
101332.68
101332.68
101332.6799
101332.6799
101332.6799
101332.6798
101332.6797
101332.6797
101332.6796
101332.6795
101332.6794
101332.6793
101332.6792
101332.6791
101332.6789
101332.6788
101332.6787
101332.6785
101332.6784
101332.6781
101332.6779
101332.6777
101332.6774
101332.6771
101332.6768
101332.6765
101332.6762
101332.6758
101332.6754
101332.675
101332.6746
101332.6742
101332.6737
101332.6732
101332.6727
101332.6722
101332.6717
101332.6712
101332.6707
101332.6784
101332.6784
101332.6784
101332.6784
101332.6783
101332.6783
101332.6783
101332.6782
101332.6781
101332.678
101332.6779
101332.6779
101332.6778
101332.6776
101332.6775
101332.6773
101332.6772
101332.6771
101332.6769
101332.6767
101332.6765
101332.6763
101332.676
101332.6758
101332.6755
101332.6752
101332.6749
101332.6746
101332.6741
101332.6737
101332.6733
101332.6729
101332.6725
101332.672
101332.6714
101332.6709
101332.6704
101332.6699
101332.6694
101332.6689
101332.6768
101332.6768
101332.6768
101332.6768
101332.6768
101332.6767
101332.6767
101332.6766
101332.6765
101332.6764
101332.6763
101332.6763
101332.6762
101332.676
101332.6759
101332.6757
101332.6756
101332.6755
101332.6753
101332.6751
101332.6749
101332.6747
101332.6744
101332.6742
101332.6738
101332.6735
101332.6732
101332.6729
101332.6725
101332.672
101332.6716
101332.6712
101332.6707
101332.6702
101332.6697
101332.6692
101332.6686
101332.6681
101332.6676
101332.667
101332.6752
101332.6752
101332.6752
101332.6752
101332.6752
101332.6751
101332.6751
101332.675
101332.6749
101332.6748
101332.6747
101332.6747
101332.6746
101332.6744
101332.6743
101332.6741
101332.674
101332.6739
101332.6737
101332.6735
101332.6733
101332.673
101332.6728
101332.6725
101332.6722
101332.6719
101332.6715
101332.6712
101332.6708
101332.6704
101332.6699
101332.6695
101332.669
101332.6685
101332.6679
101332.6674
101332.6668
101332.6663
101332.6658
101332.6652
101332.6737
101332.6736
101332.6736
101332.6736
101332.6736
101332.6735
101332.6735
101332.6734
101332.6733
101332.6733
101332.6732
101332.6731
101332.673
101332.6728
101332.6727
101332.6725
101332.6724
101332.6722
101332.6721
101332.6719
101332.6717
101332.6714
101332.6711
101332.6709
101332.6706
101332.6702
101332.6699
101332.6695
101332.6691
101332.6687
101332.6682
101332.6677
101332.6672
101332.6667
101332.6662
101332.6656
101332.6651
101332.6645
101332.664
101332.6634
101332.6721
101332.6721
101332.6721
101332.672
101332.672
101332.672
101332.6719
101332.6718
101332.6718
101332.6717
101332.6716
101332.6715
101332.6714
101332.6712
101332.6711
101332.6709
101332.6708
101332.6706
101332.6704
101332.6703
101332.67
101332.6698
101332.6695
101332.6692
101332.6689
101332.6685
101332.6682
101332.6678
101332.6674
101332.667
101332.6665
101332.666
101332.6655
101332.665
101332.6644
101332.6638
101332.6633
101332.6627
101332.6622
101332.6616
101332.6705
101332.6705
101332.6705
101332.6704
101332.6704
101332.6704
101332.6703
101332.6702
101332.6702
101332.6701
101332.67
101332.6699
101332.6698
101332.6696
101332.6695
101332.6693
101332.6692
101332.669
101332.6688
101332.6687
101332.6684
101332.6681
101332.6678
101332.6676
101332.6673
101332.6669
101332.6665
101332.6662
101332.6657
101332.6653
101332.6648
101332.6643
101332.6638
101332.6632
101332.6626
101332.6621
101332.6615
101332.661
101332.6604
101332.6598
101332.6689
101332.6689
101332.6689
101332.6689
101332.6688
101332.6688
101332.6687
101332.6687
101332.6686
101332.6685
101332.6684
101332.6683
101332.6682
101332.668
101332.6679
101332.6677
101332.6676
101332.6674
101332.6672
101332.667
101332.6668
101332.6665
101332.6662
101332.6659
101332.6656
101332.6652
101332.6648
101332.6645
101332.664
101332.6636
101332.6631
101332.6626
101332.662
101332.6615
101332.6609
101332.6603
101332.6598
101332.6592
101332.6586
101332.658
101332.6673
101332.6673
101332.6673
101332.6673
101332.6672
101332.6672
101332.6671
101332.6671
101332.667
101332.6669
101332.6668
101332.6667
101332.6666
101332.6664
101332.6663
101332.6661
101332.6659
101332.6658
101332.6656
101332.6654
101332.6651
101332.6648
101332.6646
101332.6643
101332.6639
101332.6636
101332.6632
101332.6628
101332.6623
101332.6619
101332.6614
101332.6608
101332.6603
101332.6597
101332.6591
101332.6586
101332.658
101332.6574
101332.6568
101332.6562
101332.6657
101332.6657
101332.6657
101332.6657
101332.6656
101332.6656
101332.6655
101332.6655
101332.6654
101332.6653
101332.6652
101332.6651
101332.665
101332.6648
101332.6647
101332.6645
101332.6643
101332.6641
101332.6639
101332.6637
101332.6635
101332.6632
101332.6629
101332.6626
101332.6623
101332.6619
101332.6615
101332.6611
101332.6606
101332.6602
101332.6597
101332.6591
101332.6585
101332.658
101332.6574
101332.6568
101332.6562
101332.6557
101332.655
101332.6544
101332.6641
101332.6641
101332.6641
101332.6641
101332.664
101332.664
101332.6639
101332.6638
101332.6638
101332.6637
101332.6636
101332.6635
101332.6634
101332.6632
101332.6631
101332.6629
101332.6627
101332.6625
101332.6623
101332.6621
101332.6618
101332.6616
101332.6613
101332.661
101332.6606
101332.6602
101332.6598
101332.6594
101332.6589
101332.6585
101332.658
101332.6574
101332.6568
101332.6562
101332.6556
101332.655
101332.6544
101332.6539
101332.6533
101332.6526
101332.6625
101332.6625
101332.6625
101332.6624
101332.6624
101332.6624
101332.6623
101332.6622
101332.6622
101332.6621
101332.6619
101332.6619
101332.6618
101332.6616
101332.6615
101332.6613
101332.6611
101332.6609
101332.6607
101332.6605
101332.6602
101332.6599
101332.6596
101332.6593
101332.6589
101332.6586
101332.6581
101332.6577
101332.6572
101332.6568
101332.6562
101332.6556
101332.655
101332.6544
101332.6538
101332.6532
101332.6527
101332.6521
101332.6515
101332.6508
101332.6609
101332.6609
101332.6609
101332.6608
101332.6608
101332.6608
101332.6607
101332.6606
101332.6605
101332.6604
101332.6603
101332.6602
101332.6601
101332.6599
101332.6598
101332.6597
101332.6594
101332.6592
101332.659
101332.6588
101332.6585
101332.6583
101332.6579
101332.6576
101332.6573
101332.6569
101332.6564
101332.656
101332.6555
101332.655
101332.6545
101332.6539
101332.6533
101332.6527
101332.6521
101332.6515
101332.6509
101332.6503
101332.6497
101332.649
101332.6593
101332.6592
101332.6592
101332.6592
101332.6592
101332.6591
101332.6591
101332.659
101332.6589
101332.6588
101332.6587
101332.6586
101332.6584
101332.6583
101332.6582
101332.658
101332.6578
101332.6576
101332.6574
101332.6571
101332.6569
101332.6566
101332.6563
101332.6559
101332.6556
101332.6552
101332.6547
101332.6543
101332.6538
101332.6533
101332.6528
101332.6522
101332.6515
101332.6509
101332.6503
101332.6497
101332.6491
101332.6485
101332.6479
101332.6472
101332.6576
101332.6576
101332.6576
101332.6576
101332.6575
101332.6575
101332.6574
101332.6573
101332.6573
101332.6572
101332.657
101332.6569
101332.6568
101332.6567
101332.6565
101332.6563
101332.6561
101332.6559
101332.6557
101332.6555
101332.6552
101332.6549
101332.6546
101332.6543
101332.6539
101332.6535
101332.653
101332.6526
101332.6521
101332.6516
101332.651
101332.6504
101332.6498
101332.6492
101332.6485
101332.6479
101332.6473
101332.6468
101332.6461
101332.6454
101332.656
101332.656
101332.656
101332.6559
101332.6559
101332.6559
101332.6558
101332.6557
101332.6556
101332.6555
101332.6554
101332.6553
101332.6551
101332.655
101332.6548
101332.6547
101332.6544
101332.6543
101332.654
101332.6538
101332.6535
101332.6532
101332.6529
101332.6526
101332.6522
101332.6518
101332.6513
101332.6509
101332.6504
101332.6499
101332.6493
101332.6487
101332.648
101332.6474
101332.6467
101332.6461
101332.6455
101332.645
101332.6443
101332.6436
101332.6543
101332.6544
101332.6544
101332.6543
101332.6542
101332.6542
101332.6541
101332.654
101332.6539
101332.6539
101332.6537
101332.6536
101332.6535
101332.6533
101332.6532
101332.653
101332.6528
101332.6526
101332.6523
101332.6522
101332.6518
101332.6515
101332.6512
101332.6509
101332.6505
101332.6501
101332.6496
101332.6492
101332.6486
101332.6481
101332.6475
101332.6469
101332.6463
101332.6456
101332.645
101332.6443
101332.6437
101332.6432
101332.6425
101332.6418
101332.6527
101332.6527
101332.6527
101332.6526
101332.6525
101332.6525
101332.6525
101332.6523
101332.6523
101332.6522
101332.652
101332.6519
101332.6518
101332.6516
101332.6515
101332.6513
101332.6511
101332.6509
101332.6507
101332.6505
101332.6502
101332.6498
101332.6495
101332.6492
101332.6488
101332.6484
101332.6479
101332.6474
101332.6469
101332.6464
101332.6458
101332.6452
101332.6445
101332.6439
101332.6432
101332.6426
101332.642
101332.6414
101332.6407
101332.64
101332.651
101332.651
101332.651
101332.6509
101332.6509
101332.6508
101332.6507
101332.6507
101332.6506
101332.6505
101332.6504
101332.6502
101332.6501
101332.65
101332.6498
101332.6496
101332.6494
101332.6492
101332.649
101332.6487
101332.6484
101332.6481
101332.6478
101332.6475
101332.6471
101332.6466
101332.6462
101332.6457
101332.6452
101332.6446
101332.644
101332.6434
101332.6428
101332.6421
101332.6414
101332.6408
101332.6402
101332.6396
101332.6389
101332.6382
101332.6493
101332.6493
101332.6493
101332.6492
101332.6492
101332.6491
101332.649
101332.649
101332.6489
101332.6488
101332.6487
101332.6486
101332.6484
101332.6483
101332.6481
101332.6479
101332.6477
101332.6475
101332.6473
101332.647
101332.6467
101332.6464
101332.6461
101332.6458
101332.6454
101332.6449
101332.6444
101332.6439
101332.6434
101332.6429
101332.6423
101332.6417
101332.641
101332.6404
101332.6397
101332.639
101332.6384
101332.6378
101332.6371
101332.6364
101332.6476
101332.6476
101332.6476
101332.6475
101332.6475
101332.6474
101332.6474
101332.6472
101332.6472
101332.6471
101332.6469
101332.6469
101332.6467
101332.6465
101332.6464
101332.6462
101332.646
101332.6458
101332.6455
101332.6453
101332.645
101332.6447
101332.6444
101332.644
101332.6436
101332.6432
101332.6427
101332.6422
101332.6417
101332.6411
101332.6405
101332.6399
101332.6393
101332.6386
101332.6379
101332.6372
101332.6366
101332.636
101332.6353
101332.6347
101332.6459
101332.6459
101332.6459
101332.6458
101332.6457
101332.6457
101332.6456
101332.6455
101332.6455
101332.6454
101332.6452
101332.6451
101332.6451
101332.6448
101332.6447
101332.6445
101332.6442
101332.6441
101332.6438
101332.6436
101332.6433
101332.643
101332.6427
101332.6423
101332.6419
101332.6415
101332.6409
101332.6405
101332.6399
101332.6393
101332.6387
101332.6381
101332.6375
101332.6368
101332.6361
101332.6354
101332.6348
101332.6342
101332.6335
101332.6329
101332.6441
101332.6442
101332.6441
101332.6441
101332.644
101332.644
101332.6439
101332.6438
101332.6437
101332.6436
101332.6435
101332.6434
101332.6433
101332.6431
101332.6429
101332.6428
101332.6425
101332.6423
101332.6421
101332.6418
101332.6415
101332.6413
101332.6409
101332.6406
101332.6401
101332.6397
101332.6392
101332.6387
101332.6381
101332.6376
101332.637
101332.6363
101332.6357
101332.6351
101332.6344
101332.6336
101332.633
101332.6324
101332.6317
101332.6311
101332.6424
101332.6424
101332.6424
101332.6423
101332.6423
101332.6422
101332.6422
101332.6421
101332.642
101332.6419
101332.6418
101332.6417
101332.6415
101332.6414
101332.6412
101332.641
101332.6408
101332.6406
101332.6403
101332.6401
101332.6398
101332.6395
101332.6392
101332.6388
101332.6384
101332.6379
101332.6374
101332.6369
101332.6364
101332.6358
101332.6352
101332.6346
101332.6339
101332.6333
101332.6326
101332.6319
101332.6312
101332.6306
101332.6299
101332.6293
101332.6407
101332.6407
101332.6406
101332.6406
101332.6406
101332.6405
101332.6404
101332.6403
101332.6403
101332.6402
101332.64
101332.6399
101332.6398
101332.6396
101332.6394
101332.6392
101332.639
101332.6388
101332.6386
101332.6383
101332.638
101332.6377
101332.6374
101332.637
101332.6366
101332.6361
101332.6357
101332.6352
101332.6346
101332.634
101332.6334
101332.6328
101332.6322
101332.6315
101332.6308
101332.6301
101332.6294
101332.6288
101332.6282
101332.6275
101332.6389
101332.6389
101332.6389
101332.6388
101332.6388
101332.6388
101332.6387
101332.6385
101332.6385
101332.6384
101332.6383
101332.6381
101332.638
101332.6378
101332.6377
101332.6375
101332.6372
101332.6371
101332.6368
101332.6365
101332.6362
101332.636
101332.6356
101332.6352
101332.6348
101332.6344
101332.6339
101332.6334
101332.6328
101332.6323
101332.6316
101332.631
101332.6304
101332.6297
101332.629
101332.6283
101332.6276
101332.6271
101332.6264
101332.6257
101332.6371
101332.6372
101332.6372
101332.637
101332.637
101332.637
101332.6369
101332.6368
101332.6367
101332.6367
101332.6365
101332.6364
101332.6363
101332.636
101332.6359
101332.6357
101332.6354
101332.6353
101332.635
101332.6348
101332.6345
101332.6342
101332.6338
101332.6334
101332.633
101332.6326
101332.6321
101332.6317
101332.6311
101332.6305
101332.6298
101332.6292
101332.6286
101332.6279
101332.6272
101332.6265
101332.6259
101332.6253
101332.6246
101332.6239
101332.6353
101332.6354
101332.6353
101332.6353
101332.6352
101332.6352
101332.6351
101332.635
101332.6349
101332.6348
101332.6347
101332.6346
101332.6344
101332.6342
101332.6341
101332.6339
101332.6337
101332.6335
101332.6332
101332.633
101332.6327
101332.6324
101332.632
101332.6316
101332.6312
101332.6308
101332.6303
101332.6298
101332.6293
101332.6287
101332.6281
101332.6274
101332.6268
101332.6261
101332.6254
101332.6247
101332.6241
101332.6235
101332.6228
101332.6221
101332.6335
101332.6335
101332.6335
101332.6334
101332.6334
101332.6333
101332.6333
101332.6332
101332.6331
101332.633
101332.6329
101332.6327
101332.6326
101332.6324
101332.6322
101332.6321
101332.6319
101332.6316
101332.6314
101332.6311
101332.6308
101332.6305
101332.6302
101332.6298
101332.6294
101332.629
101332.6285
101332.628
101332.6275
101332.6269
101332.6263
101332.6256
101332.625
101332.6243
101332.6236
101332.6229
101332.6223
101332.6217
101332.621
101332.6204
101332.6317
101332.6317
101332.6316
101332.6316
101332.6316
101332.6315
101332.6314
101332.6313
101332.6312
101332.6311
101332.631
101332.6309
101332.6307
101332.6306
101332.6304
101332.6302
101332.63
101332.6298
101332.6296
101332.6293
101332.629
101332.6287
101332.6284
101332.628
101332.6276
101332.6271
101332.6267
101332.6262
101332.6256
101332.6251
101332.6245
101332.6238
101332.6232
101332.6225
101332.6218
101332.6211
101332.6205
101332.6199
101332.6193
101332.6186
101332.6298
101332.6298
101332.6298
101332.6297
101332.6297
101332.6297
101332.6296
101332.6295
101332.6294
101332.6293
101332.6292
101332.629
101332.6289
101332.6287
101332.6286
101332.6284
101332.6282
101332.628
101332.6277
101332.6275
101332.6272
101332.6269
101332.6265
101332.6262
101332.6257
101332.6253
101332.6248
101332.6244
101332.6238
101332.6232
101332.6227
101332.622
101332.6214
101332.6207
101332.62
101332.6193
101332.6187
101332.6182
101332.6175
101332.6168
101332.6279
101332.628
101332.628
101332.6279
101332.6278
101332.6278
101332.6277
101332.6276
101332.6275
101332.6275
101332.6273
101332.6272
101332.6271
101332.6268
101332.6267
101332.6266
101332.6263
101332.6262
101332.6259
101332.6257
101332.6253
101332.625
101332.6247
101332.6243
101332.6239
101332.6235
101332.623
101332.6226
101332.622
101332.6214
101332.6208
101332.6202
101332.6196
101332.6189
101332.6183
101332.6176
101332.617
101332.6164
101332.6157
101332.6151
101332.626
101332.6261
101332.6261
101332.626
101332.6259
101332.6259
101332.6258
101332.6257
101332.6256
101332.6256
101332.6254
101332.6253
101332.6252
101332.625
101332.6249
101332.6247
101332.6244
101332.6243
101332.624
101332.6238
101332.6235
101332.6232
101332.6228
101332.6225
101332.622
101332.6216
101332.6211
101332.6207
101332.6201
101332.6196
101332.619
101332.6184
101332.6178
101332.6171
101332.6165
101332.6158
101332.6152
101332.6146
101332.6139
101332.6133
101332.6242
101332.6241
101332.6241
101332.6241
101332.624
101332.624
101332.6239
101332.6238
101332.6237
101332.6236
101332.6235
101332.6234
101332.6233
101332.6231
101332.6229
101332.6228
101332.6226
101332.6224
101332.6221
101332.6219
101332.6216
101332.6213
101332.6209
101332.6206
101332.6202
101332.6197
101332.6193
101332.6188
101332.6183
101332.6177
101332.6172
101332.6166
101332.6159
101332.6153
101332.6147
101332.614
101332.6134
101332.6128
101332.6122
101332.6115
101332.6222
101332.6222
101332.6222
101332.6222
101332.6221
101332.6221
101332.622
101332.6219
101332.6218
101332.6217
101332.6216
101332.6215
101332.6214
101332.6212
101332.621
101332.6208
101332.6206
101332.6204
101332.6202
101332.62
101332.6197
101332.6194
101332.6191
101332.6187
101332.6183
101332.6179
101332.6174
101332.6169
101332.6164
101332.6159
101332.6153
101332.6147
101332.6141
101332.6135
101332.6129
101332.6122
101332.6116
101332.611
101332.6104
101332.6097
101332.6203
101332.6203
101332.6203
101332.6202
101332.6202
101332.6201
101332.6201
101332.6199
101332.6199
101332.6198
101332.6197
101332.6196
101332.6195
101332.6193
101332.6191
101332.6189
101332.6187
101332.6185
101332.6183
101332.6181
101332.6178
101332.6175
101332.6172
101332.6168
101332.6164
101332.616
101332.6155
101332.615
101332.6145
101332.614
101332.6135
101332.6129
101332.6123
101332.6117
101332.6111
101332.6104
101332.6099
101332.6093
101332.6086
101332.608
101332.6183
101332.6184
101332.6184
101332.6183
101332.6182
101332.6182
101332.6181
101332.618
101332.6179
101332.6179
101332.6177
101332.6176
101332.6176
101332.6173
101332.6172
101332.617
101332.6167
101332.6166
101332.6163
101332.6161
101332.6158
101332.6156
101332.6152
101332.6149
101332.6145
101332.6141
101332.6136
101332.6132
101332.6126
101332.6121
101332.6116
101332.611
101332.6104
101332.6098
101332.6092
101332.6086
101332.6081
101332.6075
101332.6068
101332.6062
101332.6164
101332.6164
101332.6164
101332.6163
101332.6162
101332.6162
101332.6162
101332.616
101332.616
101332.6159
101332.6157
101332.6157
101332.6156
101332.6154
101332.6152
101332.615
101332.6148
101332.6146
101332.6144
101332.6142
101332.6139
101332.6137
101332.6133
101332.613
101332.6126
101332.6122
101332.6117
101332.6113
101332.6108
101332.6103
101332.6098
101332.6092
101332.6086
101332.608
101332.6074
101332.6069
101332.6063
101332.6057
101332.6051
101332.6044
101332.6144
101332.6144
101332.6144
101332.6143
101332.6143
101332.6142
101332.6141
101332.6141
101332.614
101332.6139
101332.6138
101332.6137
101332.6135
101332.6134
101332.6132
101332.613
101332.6128
101332.6126
101332.6124
101332.6122
101332.612
101332.6117
101332.6114
101332.611
101332.6106
101332.6102
101332.6098
101332.6094
101332.6089
101332.6084
101332.6079
101332.6073
101332.6067
101332.6062
101332.6056
101332.6051
101332.6045
101332.6039
101332.6033
101332.6027
101332.6124
101332.6124
101332.6124
101332.6123
101332.6123
101332.6122
101332.6121
101332.6121
101332.612
101332.6119
101332.6118
101332.6117
101332.6115
101332.6114
101332.6112
101332.6111
101332.6109
101332.6107
101332.6104
101332.6102
101332.61
101332.6097
101332.6094
101332.6091
101332.6087
101332.6083
101332.6079
101332.6075
101332.607
101332.6065
101332.606
101332.6054
101332.6049
101332.6043
101332.6038
101332.6033
101332.6027
101332.6022
101332.6015
101332.601
101332.6104
101332.6104
101332.6104
101332.6103
101332.6102
101332.6102
101332.6102
101332.61
101332.61
101332.6099
101332.6098
101332.6097
101332.6096
101332.6094
101332.6093
101332.6091
101332.6089
101332.6087
101332.6084
101332.6082
101332.608
101332.6078
101332.6074
101332.6071
101332.6067
101332.6064
101332.606
101332.6056
101332.6051
101332.6046
101332.6041
101332.6036
101332.603
101332.6025
101332.602
101332.6014
101332.6009
101332.6004
101332.5998
101332.5992
101332.6083
101332.6084
101332.6084
101332.6083
101332.6082
101332.6082
101332.6081
101332.608
101332.6079
101332.6079
101332.6077
101332.6076
101332.6076
101332.6073
101332.6072
101332.6071
101332.6068
101332.6067
101332.6064
101332.6062
101332.606
101332.6058
101332.6055
101332.6051
101332.6048
101332.6045
101332.604
101332.6037
101332.6031
101332.6027
101332.6022
101332.6017
101332.6011
101332.6007
101332.6001
101332.5996
101332.5991
101332.5986
101332.598
101332.5975
101332.6063
101332.6063
101332.6063
101332.6062
101332.6061
101332.6061
101332.6061
101332.6059
101332.6059
101332.6058
101332.6057
101332.6056
101332.6055
101332.6053
101332.6052
101332.6051
101332.6048
101332.6047
101332.6044
101332.6042
101332.604
101332.6038
101332.6035
101332.6031
101332.6028
101332.6025
101332.6021
101332.6017
101332.6012
101332.6008
101332.6003
101332.5998
101332.5993
101332.5988
101332.5983
101332.5978
101332.5973
101332.5968
101332.5963
101332.5957
101332.6042
101332.6042
101332.6042
101332.6041
101332.6041
101332.604
101332.604
101332.6039
101332.6038
101332.6037
101332.6036
101332.6035
101332.6034
101332.6033
101332.6031
101332.603
101332.6028
101332.6026
101332.6024
101332.6022
101332.602
101332.6017
101332.6014
101332.6011
101332.6008
101332.6005
101332.6001
101332.5997
101332.5993
101332.5989
101332.5984
101332.5979
101332.5974
101332.5969
101332.5965
101332.596
101332.5955
101332.595
101332.5945
101332.5939
101332.6021
101332.6021
101332.6021
101332.602
101332.602
101332.602
101332.6019
101332.6018
101332.6017
101332.6016
101332.6015
101332.6014
101332.6013
101332.6012
101332.6011
101332.6009
101332.6008
101332.6006
101332.6004
101332.6001
101332.5999
101332.5997
101332.5994
101332.5991
101332.5988
101332.5985
101332.5982
101332.5978
101332.5974
101332.597
101332.5965
101332.596
101332.5955
101332.5951
101332.5946
101332.5942
101332.5937
101332.5932
101332.5927
101332.5922
101332.6
101332.6
101332.6
101332.5999
101332.5999
101332.5999
101332.5998
101332.5997
101332.5996
101332.5996