/*--------------------------------*- C++ -*----------------------------------*\
| =========                 |                                                 |
| \\      /  F ield         | OpenFOAM: The Open Source CFD Toolbox           |
|  \\    /   O peration     | Version:  v2006                                 |
|   \\  /    A nd           | Website:  www.openfoam.com                      |
|    \\/     M anipulation  |                                                 |
\*---------------------------------------------------------------------------*/
FoamFile
{
    version     2.0;
    format      ascii;
    class       volScalarField;
    location    "0.075";
    object      theta1;
}
// * * * * * * * * * * * * * * * * * * * * * * * * * * * * * * * * * * * * * //

dimensions      [0 0 0 0 0 0 0];


internalField   nonuniform List<scalar> 
168000
(
60.00001328
60.00004407
60.00007597
60.00010903
60.0001471
60.00019327
60.00024111
60.00029162
60.00035265
60.00041963
60.00048904
60.00057072
60.0006612
60.00075536
60.00086493
60.00098238
60.00110762
60.00124796
60.00139403
60.00155316
60.0017192
60.00189234
60.00207057
60.00224892
60.00242712
60.00259341
60.00275404
60.00288435
60.00299867
60.00307145
60.00309711
60.00308316
60.00299651
60.00282428
60.002563
60.00218555
60.00161785
60.00075485
59.99944
59.9973708
60.000013
60.00004038
60.00007228
60.00010796
60.00014696
60.00018896
60.0002368
60.0002915
60.00034918
60.00041489
60.00048837
60.0005679
60.00065635
60.00075507
60.00086069
60.00097794
60.00110722
60.00124455
60.00139351
60.00155142
60.00171812
60.00189279
60.00207045
60.00225185
60.00242741
60.00259874
60.00275287
60.00289171
60.00300017
60.00307527
60.00310658
60.00308187
60.00299623
60.00283396
60.00257281
60.00217138
60.00159157
60.00075021
59.99946135
59.9974048
60.000013
60.00003946
60.00007027
60.00010791
60.00014691
60.00018732
60.00023573
60.00029139
60.00034907
60.00041142
60.00048817
60.00056771
60.00065286
60.00075479
60.0008604
60.00097705
60.00110682
60.0012413
60.00139298
60.00155051
60.00171747
60.00189213
60.00206965
60.00225116
60.00242645
60.00260049
60.0027517
60.00289702
60.00299866
60.00307317
60.00311309
60.00307869
60.00299106
60.00283763
60.00256615
60.0021563
60.00156529
60.00070419
59.99941371
59.99740403
60.000013
60.00004036
60.00007221
60.00010786
60.00014686
60.00018884
60.00023659
60.00029128
60.00034896
60.00041456
60.00048798
60.00056752
60.00065584
60.0007545
60.00086011
60.00097715
60.00110642
60.00124363
60.00139246
60.00155032
60.00171681
60.00189147
60.00206885
60.00225025
60.00242549
60.00259673
60.00275053
60.00288895
60.00299716
60.00307108
60.00310158
60.00307551
60.00298589
60.00281889
60.00255461
60.00214122
60.00153901
60.00065817
59.99931128
59.99717119
60.00001327
60.000044
60.00007585
60.00010885
60.0001469
60.00019299
60.00024074
60.00029117
60.00035214
60.000419
60.00048828
60.0005699
60.00066021
60.00075421
60.00086367
60.00098091
60.00110602
60.00124612
60.00139193
60.00155088
60.00171662
60.00188956
60.00206746
60.00224556
60.00242334
60.00258927
60.00274936
60.00287892
60.00299247
60.00306338
60.00308683
60.00307014
60.00297649
60.0027953
60.00252098
60.00212482
60.00151274
60.00058434
59.99916328
59.99691558
60.00001325
60.00004398
60.00007583
60.00010882
60.00014682
60.00019291
60.00024066
60.00029107
60.00035199
60.00041885
60.00048813
60.00056966
60.00065997
60.00075396
60.00086333
60.00098056
60.00110557
60.00124566
60.00139145
60.00155029
60.00171602
60.00188883
60.00206672
60.00224467
60.00242246
60.0025882
60.00274821
60.00287757
60.00299067
60.00306158
60.00308422
60.00306603
60.00297237
60.00278846
60.0025093
60.00210456
60.00149093
60.00054895
59.9991012
59.99680694
60.00001297
60.0000403
60.00007214
60.00010775
60.00014668
60.0001886
60.00023636
60.00029096
60.00034853
60.00041411
60.00048745
60.00056684
60.00065513
60.00075367
60.00085909
60.00097612
60.00110516
60.00124224
60.00139092
60.00154853
60.00171493
60.00188927
60.00206657
60.00224759
60.0024227
60.00259352
60.00274696
60.00288492
60.00299208
60.0030653
60.00309376
60.00306444
60.00297169
60.00279838
60.00251956
60.00208859
60.00146136
60.00054356
59.99912504
59.99684527
60.00001297
60.00003939
60.00007013
60.0001077
60.00014663
60.00018697
60.00023528
60.00029084
60.00034841
60.00041065
60.00048726
60.00056665
60.00065164
60.00075338
60.0008588
60.00097523
60.00110476
60.00123898
60.00139038
60.00154762
60.00171425
60.00188859
60.00206574
60.00224686
60.00242169
60.00259523
60.00274571
60.00289019
60.00299043
60.00306298
60.00310025
60.00306087
60.00296588
60.00280185
60.00251197
60.0020716
60.00143178
60.00049178
59.99907143
59.99684452
60.00001297
60.00004028
60.00007207
60.00010765
60.00014658
60.00018848
60.00023614
60.00029073
60.0003483
60.00041378
60.00048706
60.00056645
60.00065461
60.00075308
60.00085851
60.00097532
60.00110435
60.0012413
60.00138985
60.00154742
60.00171358
60.00188791
60.00206491
60.00224593
60.00242069
60.0025914
60.00274446
60.00288194
60.00298879
60.00306065
60.00308819
60.00305731
60.00296006
60.00278141
60.00249907
60.00205462
60.0014022
60.00043999
59.9989563
59.99658276
60.00001325
60.00004392
60.0000757
60.00010864
60.00014662
60.00019262
60.00024028
60.00029061
60.00035148
60.00041821
60.00048736
60.00056883
60.00065896
60.00075279
60.00086205
60.00097906
60.00110394
60.00124378
60.00138931
60.00154796
60.00171337
60.00188597
60.00206349
60.00224118
60.00241849
60.00258382
60.00274321
60.00287169
60.0029839
60.00305265
60.00307277
60.00305145
60.00294985
60.00275583
60.00246199
60.00203619
60.00137263
60.00035709
59.99879001
59.99629537
60.00001322
60.0000439
60.00007568
60.00010861
60.00014654
60.00019254
60.0002402
60.00029052
60.00035132
60.00041806
60.00048721
60.00056858
60.00065872
60.00075254
60.0008617
60.00097871
60.00110349
60.00124331
60.00138883
60.00154735
60.00171276
60.00188521
60.00206273
60.00224025
60.00241756
60.00258268
60.00274198
60.00287024
60.00298192
60.00305067
60.00306986
60.00304683
60.00294523
60.00274814
60.00244883
60.00201338
60.00134809
60.00031726
59.99872018
59.99617328
60.00001295
60.00004022
60.000072
60.00010754
60.0001464
60.00018824
60.0002359
60.0002904
60.00034786
60.00041332
60.00048653
60.00056576
60.00065389
60.00075224
60.00085746
60.00097427
60.00110307
60.00123988
60.00138828
60.00154559
60.00171165
60.00188563
60.00206255
60.00224314
60.00241776
60.00258798
60.00274064
60.00287758
60.00298322
60.00305429
60.00307946
60.00304489
60.00294411
60.00275833
60.0024596
60.00199539
60.00131482
60.00031102
59.9987468
59.99621651
60.00001295
60.00003931
60.00006999
60.00010749
60.00014634
60.00018661
60.00023483
60.00029028
60.00034775
60.00040986
60.00048633
60.00056556
60.0006504
60.00075194
60.00085716
60.00097337
60.00110265
60.00123663
60.00138773
60.00154466
60.00171096
60.00188494
60.00206169
60.00224238
60.00241669
60.00258965
60.00273929
60.00288281
60.00298143
60.00305171
60.00308595
60.0030409
60.00293757
60.00276158
60.00245097
60.00197628
60.00128156
60.00025279
59.9986865
59.99621579
60.00001295
60.00004021
60.00007193
60.00010744
60.00014629
60.00018811
60.00023568
60.00029017
60.00034763
60.00041298
60.00048613
60.00056537
60.00065336
60.00075164
60.00085687
60.00097346
60.00110224
60.00123893
60.00138718
60.00154444
60.00171026
60.00188424
60.00206083
60.00224141
60.00241563
60.00258573
60.00273795
60.00287434
60.00297963
60.00304913
60.00307326
60.00303692
60.00293103
60.00273923
60.00243654
60.00195717
60.00124829
60.00019455
59.99855715
59.99592158
60.00001322
60.00004383
60.00007555
60.00010842
60.00014633
60.00019224
60.00023981
60.00029005
60.0003508
60.0004174
60.00048642
60.00056773
60.0006577
60.00075134
60.0008604
60.00097718
60.00110182
60.00124138
60.00138663
60.00154496
60.00171004
60.00188226
60.00205937
60.0022366
60.00241337
60.00257803
60.0027366
60.00286386
60.00297451
60.00304079
60.00305709
60.0030305
60.00291991
60.00271143
60.00239558
60.00193644
60.00121502
60.0001015
59.99837041
59.99559853
60.0000132
60.00004381
60.00007553
60.0001084
60.00014625
60.00019216
60.00023973
60.00028995
60.00035064
60.00041725
60.00048627
60.00056749
60.00065745
60.00075109
60.00086004
60.00097683
60.00110136
60.0012409
60.00138614
60.00154433
60.00170941
60.00188147
60.00205858
60.00223562
60.0024124
60.00257682
60.00273529
60.00286228
60.00297233
60.00303861
60.00305385
60.00302532
60.00291473
60.00270277
60.00238078
60.00191079
60.00118743
60.00005673
59.99829191
59.99546138
60.00001292
60.00004014
60.00007186
60.00010733
60.00014611
60.00018787
60.00023544
60.00028983
60.00034719
60.00041252
60.00048558
60.00056467
60.00065262
60.00075078
60.0008558
60.00097239
60.00110093
60.00123748
60.00138557
60.00154256
60.00170828
60.00188188
60.00205838
60.0022385
60.00241255
60.0025821
60.00273385
60.00286962
60.00297352
60.0030421
60.00306354
60.003023
60.00291312
60.00271328
60.00239212
60.00189054
60.00115002
60.00004959
59.99832167
59.99551013
60.00001292
60.00003923
60.00006986
60.00010728
60.00014605
60.00018623
60.00023436
60.00028971
60.00034707
60.00040906
60.00048538
60.00056447
60.00064914
60.00075048
60.0008555
60.00097148
60.00110051
60.00123422
60.00138501
60.00154162
60.00170756
60.00188116
60.00205748
60.0022377
60.00241143
60.00258374
60.0027324
60.00287481
60.00297155
60.00303924
60.00307
60.00301854
60.00290577
60.00271628
60.00238234
60.00186905
60.00111261
59.99998413
59.99825387
59.99550948
60.00001292
60.00004013
60.00007178
60.00010722
60.000146
60.00018773
60.00023521
60.00028959
60.00034695
60.00041218
60.00048518
60.00056426
60.00065208
60.00075018
60.00085519
60.00097155
60.00110008
60.0012365
60.00138444
60.00154138
60.00170684
60.00188044
60.00205658
60.00223669
60.0024103
60.00257972
60.00273095
60.00286609
60.00296959
60.00303638
60.00305662
60.00301407
60.00289843
60.0026918
60.00236619
60.00184756
60.0010752
59.99991868
59.99810858
59.99517885
60.00001319
60.00004375
60.0000754
60.0001082
60.00014604
60.00019186
60.00023934
60.00028947
60.0003501
60.00041658
60.00048547
60.00056662
60.00065641
60.00074987
60.00085871
60.00097526
60.00109966
60.00123893
60.00138388
60.00154187
60.00170659
60.00187841
60.00205508
60.0022318
60.00240798
60.00257187
60.00272951
60.00285534
60.00296421
60.00302766
60.00303962
60.00300704
60.00288629
60.0026615
60.0023209
60.00182427
60.00103779
59.9998142
59.99789889
59.99481578
60.00001317
60.00004372
60.00007538
60.00010818
60.00014595
60.00019177
60.00023925
60.00028937
60.00034994
60.00041642
60.00048531
60.00056637
60.00065616
60.00074961
60.00085835
60.0009749
60.00109918
60.00123844
60.00138337
60.00154123
60.00170594
60.00187759
60.00205426
60.00223078
60.00240696
60.00257057
60.0027281
60.00285364
60.00296181
60.00302526
60.003036
60.00300123
60.00288048
60.00265177
60.00230425
60.00179542
60.00100677
59.99976385
59.99781069
59.99466172
60.00001289
60.00004005
60.00007171
60.00010711
60.00014581
60.00018748
60.00023496
60.00028925
60.00034649
60.0004117
60.00048462
60.00056355
60.00065133
60.0007493
60.00085411
60.00097046
60.00109874
60.00123501
60.00138279
60.00153945
60.00170479
60.00187798
60.00205403
60.00223363
60.00240705
60.00257584
60.00272654
60.00286097
60.00296287
60.00302861
60.00304578
60.00299848
60.00287832
60.00266262
60.00231624
60.00177263
60.00096472
59.99975566
59.99784397
59.99471667
60.00001289
60.00003915
60.00006971
60.00010705
60.00014575
60.00018585
60.00023389
60.00028912
60.00034637
60.00040824
60.00048441
60.00056334
60.00064785
60.00074899
60.0008538
60.00096954
60.0010983
60.00123175
60.00138221
60.00153849
60.00170405
60.00187724
60.00205309
60.0022328
60.00240586
60.00257743
60.00272498
60.0028661
60.00296072
60.00302544
60.00305224
60.00299349
60.00287007
60.00266536
60.00230516
60.00174847
60.00092267
59.99968211
59.99776777
59.99471612
60.00001289
60.00004004
60.00007163
60.000107
60.0001457
60.00018735
60.00023473
60.000289
60.00034624
60.00041134
60.0004842
60.00056314
60.00065078
60.00074868
60.00085349
60.00096961
60.00109787
60.001234
60.00138163
60.00153823
60.0017033
60.00187649
60.00205215
60.00223174
60.00240467
60.0025733
60.00272342
60.00285712
60.00295856
60.00302227
60.00303808
60.00298849
60.00286182
60.00263849
60.00228709
60.00172431
60.00088062
59.99960856
59.99760461
59.99434466
60.00001317
60.00004365
60.00007524
60.00010798
60.00014573
60.00019146
60.00023884
60.00028888
60.00034939
60.00041574
60.00048448
60.00056548
60.00065509
60.00074837
60.00085698
60.0009733
60.00109743
60.00123641
60.00138105
60.00153869
60.00170303
60.00187442
60.0020506
60.00222675
60.00240227
60.00256528
60.00272186
60.00284607
60.0029529
60.00301311
60.00302013
60.00298077
60.00284855
60.00260539
60.00223693
60.00169814
60.00083857
59.99949132
59.9973692
59.99393673
60.00001314
60.00004363
60.00007522
60.00010795
60.00014565
60.00019137
60.00023876
60.00028878
60.00034923
60.00041558
60.00048432
60.00056522
60.00065483
60.0007481
60.00085661
60.00097292
60.00109694
60.0012359
60.00138053
60.00153802
60.00170236
60.00187357
60.00204975
60.00222568
60.00240119
60.00256389
60.00272034
60.00284421
60.00295025
60.00301046
60.00301611
60.00297425
60.00284203
60.00259446
60.00221822
60.00166571
60.00080369
59.99943475
59.99727012
59.99376374
60.00001286
60.00003996
60.00007155
60.00010688
60.0001455
60.00018709
60.00023447
60.00028865
60.00034578
60.00041086
60.00048363
60.0005624
60.00065001
60.00074778
60.00085238
60.00096849
60.00109649
60.00123247
60.00137993
60.00153623
60.00170119
60.00187394
60.00204949
60.00222851
60.00240123
60.00256915
60.00271865
60.00285155
60.00295116
60.00301367
60.003026
60.00297103
60.00283926
60.0026057
60.00223094
60.00164009
60.00075642
59.99942543
59.99730737
59.9938257
60.00001286
60.00003906
60.00006955
60.00010682
60.00014544
60.00018546
60.0002334
60.00028852
60.00034565
60.0004074
60.00048342
60.00056219
60.00064653
60.00074746
60.00085206
60.00096756
60.00109605
60.0012292
60.00137933
60.00153526
60.00170041
60.00187317
60.0020485
60.00222763
60.00239996
60.00257068
60.00271697
60.00285664
60.0029488
60.00301014
60.00303245
60.00296545
60.00283
60.00260813
60.00221841
60.00161294
60.00070915
59.99934279
59.99722177
59.9938253
60.00001286
60.00003995
60.00007147
60.00010676
60.00014538
60.00018695
60.00023423
60.0002884
60.00034552
60.00041049
60.00048321
60.00056198
60.00064945
60.00074714
60.00085174
60.00096761
60.0010956
60.00123143
60.00137873
60.00153498
60.00169964
60.0018724
60.00204752
60.00222653
60.00239869
60.00256643
60.00271528
60.00284734
60.00294643
60.00300662
60.00301741
60.00295986
60.00282074
60.00257859
60.00219819
60.00158578
60.00066188
59.99926015
59.99703859
59.99340806
60.00001314
60.00004356
60.00007508
60.00010774
60.00014542
60.00019105
60.00023834
60.00028827
60.00034866
60.00041487
60.00048348
60.00056431
60.00065374
60.00074682
60.00085521
60.00097128
60.00109515
60.00123382
60.00137814
60.0015354
60.00169933
60.00187026
60.00204591
60.00222144
60.0023962
60.00255822
60.00271359
60.00283595
60.00294045
60.00299698
60.00299841
60.00295137
60.0028062
60.00254235
60.00214257
60.00155639
60.00061461
59.99912853
59.99677431
59.99294982
60.00001311
60.00004353
60.00007505
60.00010771
60.00014533
60.00019096
60.00023825
60.00028816
60.00034849
60.0004147
60.00048331
60.00056405
60.00065347
60.00074655
60.00085483
60.0009709
60.00109465
60.0012333
60.0013776
60.00153471
60.00169864
60.00186937
60.00204503
60.0022203
60.00239506
60.00255674
60.00271196
60.00283392
60.00293752
60.00299405
60.00299391
60.00294406
60.0027989
60.00253008
60.00212154
60.00151995
60.00057541
59.99906488
59.99666304
59.99275562
60.00001283
60.00003987
60.00007139
60.00010664
60.00014518
60.00018668
60.00023396
60.00028803
60.00034504
60.00040999
60.00048262
60.00056123
60.00064866
60.00074622
60.0008506
60.00096647
60.00109419
60.00122986
60.00137698
60.00153291
60.00169745
60.00186973
60.00204474
60.00222312
60.00239504
60.00256198
60.00271013
60.00284126
60.00293827
60.00299709
60.00300393
60.00294031
60.00279544
60.00254177
60.00213511
60.00149114
60.00052225
59.99905417
59.99670478
59.99282546
60.00001283
60.00003897
60.00006939
60.00010658
60.00014512
60.00018505
60.00023289
60.0002879
60.00034491
60.00040654
60.0004824
60.00056101
60.00064517
60.00074589
60.00085027
60.00096552
60.00109373
60.00122659
60.00137636
60.00153193
60.00169664
60.00186893
60.0020437
60.00222219
60.00239369
60.00256347
60.00270831
60.00284629
60.00293567
60.00299317
60.00301037
60.00293406
60.00278506
60.00254387
60.00212094
60.00146062
60.0004691
59.99896131
59.99660864
59.99282525
60.00001283
60.00003986
60.00007131
60.00010652
60.00014506
60.00018654
60.00023372
60.00028777
60.00034478
60.00040961
60.00048218
60.00056079
60.00064808
60.00074556
60.00084994
60.00096556
60.00109327
60.00122879
60.00137574
60.00153162
60.00169583
60.00186812
60.00204266
60.00222103
60.00239233
60.00255907
60.00270648
60.00283665
60.00293306
60.00298925
60.00299435
60.00292781
60.00277467
60.00251133
60.00209832
60.0014301
60.00041594
59.99886846
59.99640299
59.99235668
60.00001311
60.00004346
60.00007491
60.0001075
60.00014509
60.00019063
60.00023781
60.00028764
60.00034791
60.00041398
60.00048244
60.00056311
60.00065235
60.00074524
60.00085339
60.00096921
60.00109281
60.00123115
60.00137513
60.001532
60.00169549
60.00186591
60.00204099
60.00221582
60.00238975
60.00255064
60.00270466
60.00282489
60.00292672
60.00297907
60.00297417
60.00291846
60.00275871
60.00247158
60.00203656
60.00139709
60.00036279
59.99872077
59.99610629
59.99184203
60.00001308
60.00004343
60.00007488
60.00010747
60.000145
60.00019054
60.00023772
60.00028753
60.00034774
60.00041381
60.00048227
60.00056284
60.00065207
60.00074495
60.000853
60.00096881
60.00109228
60.00123061
60.00137457
60.00153128
60.00169477
60.00186498
60.00204006
60.00221461
60.00238854
60.00254905
60.00270289
60.00282269
60.00292347
60.00297582
60.00296915
60.00291027
60.00275052
60.0024578
60.00201294
60.00135612
60.00031872
59.99864921
59.99598134
59.99162404
60.0000128
60.00003978
60.00007123
60.0001064
60.00014485
60.00018627
60.00023345
60.0002874
60.00034429
60.0004091
60.00048157
60.00056002
60.00064726
60.00074461
60.00084877
60.00096438
60.00109181
60.00122717
60.00137393
60.00152947
60.00169355
60.00186533
60.00203974
60.00221742
60.00238845
60.00255429
60.00270092
60.00283005
60.00292404
60.00297867
60.00297932
60.00290593
60.0027463
60.00246999
60.00202745
60.00132373
60.00025899
59.99863692
59.99602815
59.99170273
60.0000128
60.00003888
60.00006923
60.00010634
60.00014479
60.00018464
60.00023237
60.00028727
60.00034415
60.00040565
60.00048135
60.00055979
60.00064378
60.00074428
60.00084843
60.00096342
60.00109133
60.0012239
60.00137329
60.00152847
60.00169271
60.00186449
60.00203864
60.00221643
60.002387
60.00255572
60.00269894
60.00283505
60.00292118
60.0029743
60.00298576
60.00289893
60.00273465
60.00247173
60.00201146
60.00128945
60.00019926
59.99853263
59.99592021
59.99170275
60.0000128
60.00003976
60.00007114
60.00010628
60.00014473
60.00018612
60.0002332
60.00028713
60.00034402
60.00040871
60.00048112
60.00055957
60.00064666
60.00074394
60.00084809
60.00096345
60.00109086
60.00122607
60.00137265
60.00152813
60.00169187
60.00186365
60.00203754
60.00221521
60.00238555
60.00255116
60.00269696
60.002825
60.00291831
60.00296994
60.00296863
60.00289194
60.002723
60.00243582
60.00198613
60.00125517
60.00013953
59.99842834
59.99568935
59.99117664
60.00001308
60.00004336
60.00007473
60.00010725
60.00014476
60.0001902
60.00023728
60.000287
60.00034713
60.00041306
60.00048138
60.00056187
60.00065091
60.0007436
60.00085152
60.00096707
60.00109038
60.00122839
60.00137201
60.00152845
60.00169148
60.00186136
60.0020358
60.00220986
60.00238286
60.0025425
60.00269499
60.0028128
60.00291158
60.00295917
60.00294711
60.00288163
60.00270545
60.00239213
60.00191749
60.0012181
60.0000798
59.9982627
59.9953563
59.99059875
60.00001305
60.00004333
60.00007471
60.00010722
60.00014466
60.0001901
60.00023718
60.00028688
60.00034696
60.00041289
60.0004812
60.00056159
60.00065063
60.00074331
60.00085111
60.00096666
60.00108984
60.00122783
60.00137143
60.00152771
60.00169074
60.00186038
60.00203483
60.00220858
60.00238158
60.00254078
60.00269308
60.00281041
60.00290797
60.00295555
60.00294152
60.00287245
60.00269628
60.00237667
60.00189097
60.00117209
60.00003031
59.99818231
59.99521602
59.9903541
60.00001277
60.00003968
60.00007106
60.00010615
60.00014451
60.00018583
60.00023291
60.00028675
60.00034351
60.00040818
60.00048049
60.00055877
60.00064582
60.00074296
60.00084688
60.00096223
60.00108935
60.00122439
60.00137077
60.00152589
60.00168949
60.00186071
60.00203446
60.00221137
60.00238141
60.00254601
60.00269094
60.00281782
60.00290833
60.00295818
60.00295186
60.00286744
60.0026912
60.00238943
60.00190656
60.00113571
59.99996322
59.99816825
59.99526852
59.99044271
60.00001277
60.00003878
60.00006906
60.00010608
60.00014445
60.0001842
60.00023183
60.00028661
60.00034337
60.00040473
60.00048026
60.00055854
60.00064234
60.00074261
60.00084653
60.00096126
60.00108886
60.00122111
60.0013701
60.00152486
60.00168861
60.00185983
60.0020333
60.00221032
60.00237986
60.00254738
60.00268879
60.00282279
60.00290518
60.00295331
60.0029583
60.00285962
60.00267814
60.00239076
60.00188853
60.00109721
59.99989612
59.99805115
59.99514737
59.990443
60.00001277
60.00003966
60.00007097
60.00010602
60.00014439
60.00018568
60.00023265
60.00028647
60.00034323
60.00040778
60.00048003
60.0005583
60.00064521
60.00074226
60.00084618
60.00096126
60.00108837
60.00122324
60.00136943
60.00152449
60.00168772
60.00185895
60.00203214
60.00220903
60.00237831
60.00254266
60.00268665
60.00281229
60.00290202
60.00294845
60.00293993
60.0028518
60.00266508
60.00235108
60.00186018
60.0010587
59.99982903
59.99793404
59.99488825
59.9898524
60.00001304
60.00004325
60.00007455
60.00010699
60.00014441
60.00018975
60.00023672
60.00028633
60.00034633
60.00041212
60.00048028
60.00056059
60.00064944
60.00074191
60.00084958
60.00096485
60.00108788
60.00122552
60.00136877
60.00152476
60.00168729
60.00185657
60.00203033
60.00220353
60.00237549
60.00253373
60.00268451
60.00279957
60.00289484
60.00293702
60.00291691
60.0028404
60.00264574
60.00230298
60.00178381
60.00101708
59.99976194
59.99774829
59.99451442
59.98920362
60.00001301
60.00004322
60.00007452
60.00010696
60.00014432
60.00018965
60.00023662
60.00028621
60.00034615
60.00041193
60.0004801
60.0005603
60.00064915
60.00074161
60.00084916
60.00096443
60.00108731
60.00122494
60.00136817
60.00152398
60.00168651
60.00185554
60.0020293
60.00220217
60.00237413
60.00253188
60.00268244
60.00279696
60.00289084
60.00293301
60.00291066
60.00283013
60.00263547
60.00228563
60.00175402
60.00096538
59.99970633
59.99765801
59.99435696
59.98892909
60.00001274
60.00003958
60.00007088
60.00010589
60.00014416
60.00018538
60.00023236
60.00028607
60.0003427
60.00040723
60.00047938
60.00055748
60.00064434
60.00074125
60.00084493
60.00096
60.0010868
60.00122149
60.00136747
60.00152215
60.00168523
60.00185587
60.0020289
60.00220495
60.00237388
60.00253711
60.0026801
60.00280445
60.00289098
60.00293538
60.00292119
60.00282438
60.00262945
60.00229904
60.00177083
60.00092452
59.999631
59.99764197
59.99441586
59.9890288
60.00001274
60.00003868
60.00006889
60.00010582
60.00014409
60.00018375
60.00023127
60.00028592
60.00034256
60.00040378
60.00047914
60.00055724
60.00064085
60.00074089
60.00084456
60.00095902
60.00108629
60.00121821
60.00136677
60.0015211
60.0016843
60.00185494
60.00202766
60.00220383
60.00237222
60.00253841
60.00267777
60.00280941
60.0028875
60.00292997
60.00292763
60.00281563
60.0026148
60.00229992
60.00175052
60.0008813
59.99955567
59.99751052
59.99427991
59.98902938
60.00001274
60.00003956
60.00007079
60.00010575
60.00014403
60.00018522
60.00023209
60.00028578
60.00034241
60.00040682
60.0004789
60.000557
60.0006437
60.00074052
60.0008442
60.000959
60.00108578
60.00122029
60.00136608
60.00152068
60.00168337
60.00185401
60.00202643
60.00220247
60.00237055
60.00253348
60.00267543
60.00279837
60.00288402
60.00292455
60.00290787
60.00280687
60.00260016
60.00225602
60.00171877
60.00083807
59.99948034
59.99737906
59.99398912
59.98836656
60.00001301
60.00004314
60.00007436
60.00010671
60.00014405
60.00018928
60.00023614
60.00028563
60.0003455
60.00041113
60.00047914
60.00055927
60.0006479
60.00074016
60.00084757
60.00096255
60.00108527
60.00122254
60.00136538
60.00152089
60.00168289
60.00185153
60.00202453
60.00219679
60.0023676
60.00252426
60.0026731
60.00278507
60.00287636
60.0029124
60.00288318
60.00279426
60.00257882
60.00220296
60.00163375
60.00079136
59.99940501
59.9971708
59.99356958
59.9876384
60.00001298
60.00004311
60.00007433
60.00010668
60.00014395
60.00018918
60.00023604
60.00028551
60.00034531
60.00041094
60.00047895
60.00055897
60.0006476
60.00073985
60.00084713
60.00096212
60.00108469
60.00122193
60.00136476
60.00152007
60.00168207
60.00185044
60.00202344
60.00219533
60.00236614
60.00252225
60.00267085
60.00278219
60.00287194
60.00290798
60.00287619
60.00278275
60.00256732
60.0021835
60.00160032
60.00073337
59.99934263
59.99706946
59.99339286
59.98733039
60.0000127
60.00003947
60.00007069
60.00010561
60.00014379
60.00018491
60.00023178
60.00028536
60.00034187
60.00040625
60.00047823
60.00055615
60.0006428
60.00073947
60.00084289
60.00095768
60.00108415
60.00121848
60.00136403
60.00151824
60.00168076
60.00185075
60.002023
60.0021981
60.0023658
60.00252748
60.00266829
60.00278975
60.00287185
60.0029101
60.00288692
60.00277616
60.00256023
60.00219766
60.0016185
60.00068748
59.99925806
59.99705122
59.99345896
59.98744253
60.0000127
60.00003857
60.00006869
60.00010554
60.00014372
60.00018328
60.00023069
60.00028521
60.00034172
60.0004028
60.00047798
60.00055589
60.00063931
60.0007391
60.00084252
60.00095668
60.00108362
60.0012152
60.00136331
60.00151717
60.00167978
60.00184978
60.00202168
60.0021969
60.002364
60.0025287
60.00266574
60.00279466
60.00286801
60.00290408
60.00289335
60.00276637
60.00254381
60.00219803
60.00159564
60.00063895
59.99917349
59.99690369
59.99330642
59.98744342
60.0000127
60.00003945
60.00007059
60.00010547
60.00014365
60.00018474
60.00023149
60.00028506
60.00034157
60.00040582
60.00047773
60.00055564
60.00064213
60.00073872
60.00084214
60.00095664
60.00108309
60.00121723
60.00136258
60.0015167
60.00167881
60.0018488
60.00202037
60.00219546
60.0023622
60.00252355
60.00266318
60.00278306
60.00286418
60.00289806
60.00287207
60.00275657
60.0025274
60.00214939
60.0015601
60.00059042
59.99908892
59.99675616
59.99298015
59.98669975
60.00001297
60.00004302
60.00007416
60.00010643
60.00014367
60.00018879
60.00023554
60.00028491
60.00034464
60.00041011
60.00047796
60.0005579
60.00064631
60.00073834
60.00084548
60.00096016
60.00108256
60.00121943
60.00136185
60.00151684
60.00167826
60.0018462
60.00201837
60.00218958
60.0023591
60.00251397
60.00266062
60.00276911
60.00285597
60.00288508
60.00284553
60.0027426
60.00250383
60.00209077
60.00146534
60.00053798
59.99900436
59.99652266
59.99250938
59.98588271
60.00001294
60.00004299
60.00007413
60.00010639
60.00014356
60.00018868
60.00023543
60.00028478
60.00034444
60.00040991
60.00047776
60.00055758
60.000646
60.00073802
60.00084502
60.00095971
60.00108195
60.00121879
60.0013612
60.00151598
60.0016774
60.00184505
60.00201721
60.00218801
60.00235754
60.0025118
60.00265816
60.00276594
60.0028511
60.00288021
60.00283773
60.00272972
60.00249094
60.00206895
60.00142782
60.00047278
59.99893425
59.99640892
59.99231108
59.98553718
60.00001267
60.00003936
60.00007049
60.00010532
60.0001434
60.00018442
60.00023117
60.00028462
60.00034099
60.00040522
60.00047703
60.00055475
60.00064119
60.00073762
60.00084079
60.00095528
60.00108139
60.00121534
60.00136044
60.00151414
60.00167605
60.00184534
60.00201672
60.00219077
60.00235709
60.00251703
60.00265536
60.00277354
60.00285075
60.00288208
60.00284866
60.0027222
60.00248266
60.00208394
60.00144756
60.00042122
59.99883929
59.99638823
59.99238525
59.98566316
60.00001267
60.00003846
60.0000685
60.00010525
60.00014333
60.00018279
60.00023007
60.00028447
60.00034084
60.00040177
60.00047677
60.00055449
60.0006377
60.00073723
60.00084039
60.00095425
60.00108084
60.00121205
60.00135968
60.00151304
60.00167502
60.00184431
60.00201531
60.00218949
60.00235515
60.00251817
60.00265255
60.0027784
60.00284651
60.00287539
60.00285507
60.00271125
60.00246426
60.00208376
60.00142183
60.00036671
59.99874434
59.99622268
59.99221415
59.98566437
60.00001267
60.00003934
60.00007039
60.00010518
60.00014326
60.00018424
60.00023087
60.00028431
60.00034068
60.00040477
60.0004765
60.00055423
60.0006405
60.00073684
60.00084
60.00095419
60.00108028
60.00121403
60.00135891
60.00151253
60.00167399
60.00184328
60.00201391
60.00218795
60.0023532
60.00251276
60.00264974
60.00276616
60.00284228
60.00286869
60.0028321
60.00270029
60.00244586
60.0020298
60.00138201
60.0003122
59.99864939
59.99605714
59.99184812
59.98483026
60.00001294
60.0000429
60.00007395
60.00010613
60.00014328
60.00018828
60.00023491
60.00028415
60.00034373
60.00040905
60.00047672
60.00055646
60.00064465
60.00073645
60.0008433
60.00095767
60.00107973
60.00121617
60.00135815
60.00151258
60.00167338
60.00184054
60.00201179
60.00218184
60.00234992
60.00250278
60.00264694
60.00275153
60.00283344
60.00285476
60.00280352
60.0026848
60.00241978
60.00196493
60.00127629
60.00025332
59.99855444
59.99579531
59.99131995
59.9839138
60.0000129
60.00004287
60.00007392
60.0001061
60.00014316
60.00018817
60.0002348
60.00028402
60.00034352
60.00040884
60.00047651
60.00055614
60.00064432
60.00073611
60.00084283
60.0009572
60.00107909
60.00121551
60.00135747
60.00151168
60.00167247
60.00183932
60.00201057
60.00218016
60.00234824
60.00250041
60.00264425
60.00274802
60.00282805
60.00284936
60.00279481
60.00267038
60.00240536
60.00194047
60.00123418
60.0001801
59.99847571
59.99566766
59.99109748
59.9835263
60.00001263
60.00003924
60.00007029
60.00010502
60.000143
60.00018391
60.00023054
60.00028385
60.00034008
60.00040414
60.00047577
60.0005533
60.00063952