/*--------------------------------*- C++ -*----------------------------------*\
| =========                 |                                                 |
| \\      /  F ield         | OpenFOAM: The Open Source CFD Toolbox           |
|  \\    /   O peration     | Version:  v2006                                 |
|   \\  /    A nd           | Website:  www.openfoam.com                      |
|    \\/     M anipulation  |                                                 |
\*---------------------------------------------------------------------------*/
FoamFile
{
    version     2.0;
    format      ascii;
    class       volScalarField;
    location    "0.075";
    object      theta3;
}
// * * * * * * * * * * * * * * * * * * * * * * * * * * * * * * * * * * * * * //

dimensions      [0 0 0 0 0 0 0];


internalField   nonuniform List<scalar> 
168000
(
3.605850477
3.612815692
3.620032946
3.627511358
3.635363092
3.643638637
3.652213635
3.661116628
3.670482093
3.680229552
3.690329727
3.700880226
3.711832224
3.723181341
3.734920913
3.747049957
3.759582122
3.772339315
3.7855377
3.798814509
3.812430916
3.826039915
3.839792865
3.853389418
3.866985103
3.880105899
3.893181665
3.905394944
3.917400355
3.9285266
3.938829389
3.948583897
3.95724211
3.96489769
3.971783785
3.977830436
3.982908362
3.987160703
3.990825738
3.994131486
3.605818677
3.612689343
3.619906597
3.627455983
3.635333707
3.643527522
3.652102521
3.661085427
3.670412179
3.68014488
3.690289538
3.700838247
3.711784812
3.723142804
3.734918063
3.747048917
3.759540274
3.772390462
3.785493127
3.798918868
3.812443162
3.826192413
3.839852523
3.853582682
3.867014852
3.88032694
3.893136489
3.905630573
3.917439148
3.928637191
3.939058415
3.948585479
3.957291503
3.965087416
3.971947721
3.977817328
3.982897071
3.987235253
3.99090595
3.994170552
3.605794579
3.612640009
3.619825755
3.627428418
3.635306142
3.643468856
3.652053066
3.661054226
3.670380978
3.680074181
3.690254626
3.700803335
3.711740041
3.723104267
3.734879526
3.747012022
3.759498425
3.772436412
3.785448553
3.798920339
3.812396727
3.826145978
3.839805309
3.853542152
3.866968059
3.880395457
3.893091313
3.905801869
3.917396671
3.928598305
3.939218765
3.948550871
3.957261694
3.965207199
3.971944361
3.977798748
3.98288578
3.987234014
3.99094252
3.994211917
3.605770482
3.612640292
3.619853337
3.627400853
3.635278577
3.643471039
3.652040949
3.661023024
3.670349776
3.680077726
3.690219715
3.700768424
3.711710286
3.723065731
3.73484099
3.746965622
3.759456576
3.772304192
3.78540398
3.798829145
3.812350292
3.826099543
3.839758095
3.853488266
3.866921267
3.880234051
3.893046137
3.905543544
3.917354194
3.92855942
3.938983825
3.948516263
3.957231885
3.965034795
3.971899322
3.977780168
3.982874489
3.987232776
3.990931854
3.994243822
3.605753825
3.612714979
3.619928023
3.627402074
3.635252752
3.643523387
3.652093297
3.660991823
3.670354602
3.680096285
3.690190474
3.70073853
3.711684249
3.723027194
3.734763614
3.746886276
3.759414727
3.772166623
3.785359406
3.798633779
3.8122459
3.8258534
3.839604425
3.853200996
3.866797799
3.879921041
3.893000961
3.905220262
3.917231489
3.928369117
3.938681305
3.948446169
3.957121304
3.964790727
3.971692272
3.977756374
3.982863198
3.987148832
3.990866095
3.994271084
3.605728084
3.612689237
3.619902282
3.627376332
3.635223447
3.643494082
3.652063992
3.660961699
3.6703216
3.680063283
3.690157472
3.70070182
3.711647539
3.722990159
3.734723379
3.746846041
3.759371794
3.772123304
3.785315881
3.798588104
3.812200226
3.825806359
3.839557384
3.853153756
3.866750558
3.879874825
3.892955355
3.905176229
3.917190643
3.928328271
3.93864443
3.948413866
3.957089002
3.964763471
3.971670605
3.977741257
3.98284893
3.987142265
3.990871979
3.994300635
3.605696368
3.612563067
3.619776112
3.627321069
3.635194149
3.643383123
3.651953033
3.660930596
3.670251792
3.679978721
3.690117397
3.700659906
3.711600155
3.722951753
3.734720454
3.746844916
3.759330091
3.772174235
3.785271464
3.798692122
3.812212436
3.825958426
3.839616881
3.853346545
3.866780245
3.880095401
3.892910283
3.905411444
3.917229394
3.928438707
3.938873202
3.948415456
3.957138378
3.964953027
3.971834319
3.977728498
3.982838465
3.987216966
3.990949506
3.994332475
3.605672347
3.612513835
3.619695407
3.62729359
3.63516667
3.643324568
3.65190369
3.660899493
3.670220689
3.679908133
3.690082599
3.700625108
3.711555442
3.722913348
3.734682048
3.746808139
3.759288389
3.77221999
3.785227047
3.798693595
3.812166159
3.825912149
3.839569817
3.853306148
3.866733583
3.880163792
3.892865211
3.90558244
3.917186994
3.928399875
3.939033376
3.948380891
3.957108636
3.965072749
3.971831073
3.977710293
3.982828
3.987217546
3.990988189
3.994370184
3.605648325
3.612514171
3.619723018
3.62726611
3.63513919
3.643326815
3.651891654
3.66086839
3.670189586
3.679911783
3.690047801
3.70059031
3.711525879
3.722874942
3.734643643
3.746761911
3.759246687
3.772088267
3.78518263
3.798602712
3.812119881
3.825865872
3.839522752
3.853252427
3.866686922
3.880002763
3.892820139
3.90532459
3.917144594
3.928361043
3.93879871
3.948346325
3.957078894
3.964900661
3.97178626
3.977692088
3.982817534
3.987218125
3.990983388
3.994422158
3.605631739
3.61258884
3.619797687
3.627267388
3.63511345
3.643379191
3.65194403
3.660837287
3.670194512
3.679930444
3.690018673
3.700560589
3.711500059
3.722836536
3.734566618
3.746682928
3.759204984
3.771951217
3.785138213
3.798408001
3.812015841
3.825620466
3.839369546
3.852965912
3.866563784
3.879690452
3.892775067
3.905001902
3.917022076
3.928171013
3.938496541
3.948276311
3.956968455
3.964656986
3.971579964
3.977668711
3.982807069
3.987136984
3.990926539
3.994471799
3.60560608
3.612563181
3.619772028
3.627241729
3.635084238
3.643349979
3.651914818
3.660807259
3.670161618
3.67989755
3.689985779
3.700524004
3.711463474
3.722799628
3.734526526
3.746642836
3.759162205
3.771908055
3.785094844
3.798362489
3.811970329
3.825573585
3.839322665
3.852918817
3.866516689
3.879644358
3.892729575
3.904957959
3.916981298
3.928130235
3.938459711
3.948244057
3.9569362
3.964629831
3.971558538
3.977654103
3.982793393
3.987131415
3.990935108
3.99450819
3.605574452
3.612437194
3.619646041
3.627186582
3.635055032
3.643239179
3.651804018
3.660776259
3.670091921
3.679813101
3.689945822
3.70048216
3.711416124
3.722761359
3.734523534
3.746641634
3.759120656
3.77195878
3.78505059
3.798466176
3.811982511
3.825725234
3.83938201
3.853111142
3.86654632
3.87986448
3.892684611
3.905192759
3.917020013
3.928240523
3.93868822
3.948245659
3.956985563
3.964819196
3.971721981
3.977641744
3.982783949
3.987205953
3.991009095
3.994531332
3.605550511
3.612388067
3.619565476
3.627159193
3.635027643
3.64318074
3.651754791
3.660745259
3.670060921
3.679742627
3.689911144
3.700447482
3.711371474
3.722723091
3.734485266
3.746604981
3.759079106
3.772004349
3.785006336
3.798467661
3.811936398
3.825679121
3.839335101
3.853070883
3.866499795
3.879932753
3.892639648
3.905363455
3.916977694
3.928201749
3.938848213
3.948211143
3.9569559
3.964938847
3.971718865
3.977623975
3.982774504
3.987208767
3.991050208
3.994564621
3.60552657
3.612388462
3.619593123
3.627131804
3.635000254
3.643183057
3.651742843
3.660714259
3.67002992
3.679746389
3.689876465
3.700412803
3.711342108
3.722684822
3.734446997
3.746558933
3.759037556
3.771873127
3.784962082
3.798377094
3.811890285
3.825633008
3.839288192
3.853017335
3.866453271
3.879772103
3.892594685
3.905106088
3.916935374
3.928162975
3.938613838
3.948176627
3.956926236
3.964767122
3.971674313
3.977606206
3.98276506
3.987211581
3.991052561
3.994640631
3.605510057
3.612463119
3.61966778
3.627133143
3.634974603
3.643235467
3.651795253
3.660683258
3.670034954
3.679765159
3.689847455
3.70038326
3.711316511
3.722646553
3.734370328
3.746480316
3.758996007
3.771736598
3.784917827
3.798183039
3.8117866
3.825388341
3.839135454
3.852731576
3.866330467
3.879460493
3.892549722
3.904784005
3.916813049
3.927973223
3.938312039
3.948106703
3.956815957
3.964523899
3.971468906
3.977583319
3.982755615
3.987134237
3.991006773
3.994717087
3.605484485
3.612437547
3.619642208
3.627107572
3.634945489
3.643206353
3.651766139
3.660653333
3.670002173
3.679732378
3.689814674
3.700346805
3.711280057
3.722609777
3.734330384
3.746440372
3.758953389
3.771693599
3.784874622
3.798137696
3.811741258
3.825341625
3.839088738
3.852684633
3.866283523
3.879414526
3.892504347
3.904740157
3.916772342
3.927932515
3.938275258
3.948074503
3.956783757
3.964496854
3.971447752
3.977569429
3.982742725
3.987130526
3.991018739
3.994761701
3.60545295
3.612311746
3.619516407
3.627052545
3.634916379
3.643095715
3.651655501
3.66062244
3.66993259
3.679648045
3.68977484
3.700305038
3.711232745
3.722571651
3.734327334
3.746439101
3.758911998
3.771744129
3.784830537
3.798241066
3.81175342
3.825492867
3.83914794
3.852876505
3.866313107
3.879634202
3.892459497
3.904974544
3.916811025
3.928042659
3.938503496
3.948076121
3.956833112
3.964685987
3.971610853
3.977557548
3.982734385
3.987205321
3.991088459
3.994774473
3.605429093
3.612262729
3.619435986
3.627025251
3.634889085
3.643037396
3.651606394
3.660591548
3.669901697
3.67957769
3.689740286
3.700270483
3.711188166
3.722533525
3.734289207
3.74640258
3.758870607
3.771789522
3.784786452
3.798242568
3.811707478
3.825446925
3.839101193
3.852836391
3.866266724
3.879702364
3.892414648
3.905144941
3.916768791
3.928003948
3.938663304
3.948041661
3.956803542
3.964805554
3.971607895
3.977540295
3.982726045
3.987210707
3.991132468
3.994802493
3.605405237
3.612263186
3.619463673
3.626997956
3.63486179
3.643039787
3.651594538
3.660560655
3.669870805
3.67958157
3.689705732
3.700235929
3.711159002
3.722495398
3.734251081
3.746356716
3.758829216
3.771658803
3.784742367
3.798152322
3.811661536
3.825400982
3.839054446
3.852783021
3.866220342
3.879542096
3.892369798
3.904888065
3.916726557
3.927965237
3.938429235
3.948007201
3.956773972
3.964634268
3.971563658
3.977523042
3.982717704
3.987216092
3.991143357
3.994907181
3.605388802
3.612337836
3.619538323
3.626999362
3.634836233
3.643092238
3.651646989
3.660529763
3.669875952
3.679600457
3.689676845
3.700206569
3.711133633
3.722457272
3.734174772
3.74627847
3.758787826
3.771522798
3.784698283
3.797958925
3.811558212
3.825157054
3.838902178
3.852498018
3.866097876
3.879231187
3.892324948
3.904566595
3.916604428
3.927775767
3.938127826
3.94793738
3.956663878
3.964391591
3.97135933
3.977500731
3.982709364
3.987142625
3.991110731
3.995015631
3.605363321
3.612312355
3.619512842
3.626973881
3.634807222
3.643063227
3.651617978
3.660499943
3.669843289
3.679567793
3.689644182
3.70017025
3.711097315
3.722420634
3.734134983
3.746238681
3.758745375
3.771479967
3.784655247
3.797913758
3.811513045
3.825110511
3.838855634
3.852451232
3.866051089
3.879185352
3.892279696
3.904522845
3.916563798
3.927735137
3.9380911
3.947905247
3.956631744
3.964364691
3.97133853
3.977487562
3.982697302
3.987140034
3.99112661
3.995070006
3.605331882
3.612186744
3.619387231
3.62691898
3.634778212
3.642952753
3.651507504
3.660469163
3.669773823
3.67948358
3.689604477
3.700128564
3.711050048
3.722382656
3.734131881
3.746237348
3.758704149
3.771530312
3.784611337
3.798016821
3.811525196
3.825261357
3.838914703
3.852642662
3.866080632
3.879404592
3.892234964
3.904756816
3.916602453
3.927845141
3.938319057
3.947906886
3.956681096
3.964553567
3.971501258
3.977476223
3.982690363
3.987214289
3.991190994
3.995070305
3.605308114
3.61213784
3.619306958
3.626891784
3.634751017
3.642894557
3.651458521
3.660438383
3.669743043
3.679413348
3.689570052
3.700094139
3.711005544
3.722344678
3.734093903
3.746200964
3.758662923
3.771575539
3.784567428
3.79801835
3.811479431
3.825215591
3.838868123
3.852602698
3.866034396
3.879472649
3.892190231
3.904926915
3.916560309
3.927806498
3.938478674
3.94787249
3.956651637
3.964673044
3.971498482
3.977459558
3.982683425
3.987222855
3.991238391
3.995091956
3.605284347
3.612138363
3.619334689
3.626864589
3.634723822
3.642897028
3.651446763
3.660407603
3.669712264
3.679417352
3.689535628
3.700059715
3.710976588
3.722306699
3.734055925
3.74615529
3.758621697
3.771445326
3.784523518
3.797928428
3.811433665
3.825169826
3.838821543
3.852549512
3.86598816
3.879312767
3.892145499
3.904670539
3.916518165
3.927767855
3.93824493
3.947838095
3.956622178
3.964502259
3.971454607
3.977442893
3.982676486
3.98723142
3.991259598
3.995230952
3.605267993
3.612213012
3.619409338
3.626866065
3.634698363
3.642949527
3.651499262
3.660376823
3.66971753
3.679436361
3.68950687
3.700030542
3.710951452
3.722268721
3.733979979
3.746077418
3.75858047
3.771309846
3.784479609
3.79773569
3.811330705
3.824926638
3.838669749
3.852265266
3.865866036
3.879002559
3.892100767
3.904349691
3.916396238
3.927578673
3.937943935
3.947768389
3.956512293
3.964260202
3.971251492
3.977421246
3.982669547
3.98716363
3.991243049
3.995377691
3.605242608
3.612187627
3.619383953
3.62684068
3.634669458
3.642920623
3.651470358
3.660347114
3.66968499
3.67940382
3.689474329
3.699994366
3.710915275
3.722232227
3.73394035
3.746037789
3.758538193
3.77126719
3.784436749
3.797690705
3.81128572
3.824880273
3.838623383
3.852218642
3.865819412
3.87895686
3.892055642
3.904306046
3.916355688
3.927538123
3.937907271
3.947736332
3.956480236
3.964233457
3.971231051
3.977408996
3.982658525
3.987163885
3.99126377
3.995443794
3.605211269
3.612062208
3.619258534
3.626785907
3.634640554
3.642810315
3.65136005
3.660316452
3.669615647
3.679319731
3.689434758
3.699952766
3.710868058
3.722194402
3.733937205
3.746036403
3.758497137
3.771317359
3.784393021
3.797793473
3.811297869
3.825030735
3.838682327
3.85240964
3.86584892
3.879175669
3.892011033
3.904539602
3.916394318
3.927647991
3.938134936
3.947737997
3.95652959
3.964422023
3.971393283
3.977398338
3.982653233
3.987238544
3.991321762
3.99542926
3.605187595
3.612013422
3.619178413
3.626758815
3.634613462
3.642752246
3.651311196
3.660285789
3.669584984
3.679249625
3.689400468
3.699918476
3.710823635
3.722156578
3.73389938
3.746000163
3.758456082
3.771362431
3.784349293
3.797795036
3.811252286
3.824985152
3.838635919
3.852369832
3.865802835
3.879243628
3.891966424
3.904709404
3.916352267
3.92760942
3.938294355
3.947703675
3.956500262
3.964541392
3.971390726
3.977382412
3.98264794
3.987250871
3.991373219
3.995443344
3.605163921
3.612014016
3.619206194
3.626731724
3.634586371
3.642754803
3.651299541
3.660255127
3.669554322
3.67925376
3.689366178
3.699884186
3.710794892
3.722118753
3.733861556
3.745954685
3.758415026
3.771232725
3.784305564
3.797705443
3.811206703
3.82493957
3.838589512
3.852316835
3.865756751
3.879084135
3.891921815
3.904453534
3.916310217
3.927570849
3.938060955
3.947669354
3.956470935
3.964371212
3.971347298
3.977366487
3.982642648
3.987263197
3.991406773
3.995623225
3.605147653
3.612088668
3.619280846
3.626733276
3.634561014
3.642807356
3.651352095
3.660224465
3.669559714
3.679272897
3.689337555
3.699855208
3.710769995
3.722080929
3.733785977
3.745877191
3.758373971
3.771097772
3.784261836
3.797513365
3.811104112
3.824697121
3.838438194
3.852033345
3.86563497
3.878774632
3.891877206
3.904133318
3.916188495
3.927381959
3.937760397
3.94759978
3.95636129
3.964129904
3.971145726
3.977345668
3.982637355
3.98720107
3.991409439
3.995815595
3.605122368
3.612063383
3.619255561
3.626707991
3.634532222
3.642778564
3.651323302
3.660194871
3.669527302
3.679240485
3.689305142
3.699819178
3.710733966
3.722044583
3.733746514
3.745837728
3.758331873
3.771055298
3.784219158
3.797468567
3.811059314
3.824650939
3.838392012
3.851986888
3.865588513
3.878729073
3.891832213
3.904089785
3.916148021
3.927341485
3.937723802
3.947567813
3.956329323
3.964103363
3.9711258
3.977334583
3.982627593
3.98720298
3.991435859
3.995895675
3.605091134
3.61193816
3.619130338
3.62665335
3.634503427
3.642668426
3.651213165
3.660164331
3.669458084
3.679156522
3.68926571
3.699777671
3.710686804
3.722006918
3.733743333
3.745836296
3.758290994
3.771105302
3.784175617
3.797571051
3.811071467
3.824801029
3.838450839
3.852177465
3.865617994
3.878947458
3.891787733
3.904322935
3.916186625
3.927451211
3.937951169
3.947569506
3.956378686
3.964291587
3.971287518
3.977324657
3.982623937
3.987276744
3.991486033
3.995863465
3.605067557
3.611889496
3.619050372
3.626626367
3.634476443
3.642610488
3.651164444
3.660133791
3.669427544
3.679086547
3.68923156
3.699743521
3.710642466
3.721969253
3.733705668
3.745800205
3.758250115
3.771150227
3.784132076
3.797572656
3.811026073
3.824755635
3.838404609
3.852137818
3.865572065
3.879015323
3.891743252
3.904492447
3.91614467
3.927412714
3.938110385
3.947535269
3.95634951
3.96441084
3.971285213
3.977309525
3.982620281
3.987293285
3.991542266
3.995868525
3.60504398
3.611890165
3.619078208
3.626599383
3.63444946
3.642613135
3.651152897
3.660103251
3.669397004
3.679090819
3.68919741
3.699709371
3.710613943
3.721931588
3.733668003
3.745754928
3.758209235
3.771021031
3.784088536
3.797483396
3.810980679
3.824710241
3.83835838
3.852085015
3.865526136
3.878856224
3.891698771
3.904237084
3.916102715
3.927374218
3.937877343
3.947501032
3.956320334
3.964241342
3.971242281
3.977294393
3.982616624
3.987309827
3.991590513
3.996097101
3.605027803
3.611964828
3.619152871
3.626601015
3.63442421
3.642665749
3.651205511
3.660072711
3.669402528
3.679110092
3.689168926
3.699680591
3.71058929
3.721893922
3.733592794
3.745677815
3.758168356
3.770886607
3.784044995
3.797291978
3.810878459
3.824468531
3.83820754
3.85180228
3.865404703
3.87854743
3.891654291
3.903917499
3.915981205
3.92718563
3.937577242
3.947431605
3.956210962
3.964000878
3.971042367
3.97727446
3.982612968
3.98725525
3.991616011
3.996343825
3.605002622
3.611939647
3.61912769
3.626575835
3.634395534
3.642637074
3.651176835
3.660043237
3.669370249
3.679077812
3.689136647
3.699644714
3.710553413
3.721857731
3.733553503
3.745638524
3.758126443
3.770844319
3.784002504
3.797247374
3.810833855
3.824422537
3.838161546
3.851755995
3.865358418
3.878502015
3.891609435
3.903874082
3.915940809
3.927145234
3.937540721
3.947399739
3.956179096
3.963974548
3.971022908
3.977264402
3.982604409
3.987259857
3.991649239
3.996440621
3.604971497
3.611814623
3.619002666
3.626521331
3.634366854
3.642527108
3.65106687
3.660012824
3.66930116
3.67899398
3.689097357
3.699603304
3.710506311
3.72182023
3.733550294
3.745637055
3.758085746
3.770894167
3.783959156
3.797349585
3.81084602
3.824572266
3.838220265
3.85194616
3.865387876
3.878719981
3.891565086
3.904106836
3.915979384
3.927254811
3.937767781
3.947401464
3.95622847
3.964162355
3.971183904
3.977255355
3.982602922
3.987332732
3.991690197
3.99638749
3.604948021
3.611766084
3.618922859
3.62649446
3.634339983
3.642469305
3.651018286
3.659982411
3.669270747
3.67892414
3.689063353
3.699569299
3.710462065
3.72178273
3.733512793
3.745601119
3.758045049
3.770938956
3.783915808
3.797351239
3.81080082
3.824527066
3.838174218
3.851906679
3.865342107
3.878787756
3.891520738
3.904276065
3.915937527
3.927216392
3.937926787
3.947367318
3.956199466
3.964281459
3.971181879
3.977241183
3.982601435
3.987354516
3.991752174
3.996381893
3.604924546
3.611766833
3.618950755
3.62646759
3.634313112
3.642472047
3.651006853
3.659951998
3.669240334
3.678928554
3.689029348
3.699535294
3.710433766
3.721745229
3.733475293
3.745556048
3.758004352
3.77081027
3.78387246
3.797262316
3.810755619
3.824481866
3.838128172
3.851854074
3.865296339
3.878629055
3.891476389
3.904021207
3.91589567
3.927177973
3.93769412
3.947333171
3.956170461
3.964112765
3.971139543
3.97722701
3.982599948
3.987376299
3.991818
3.996668312
3.604908464
3.611841511
3.619025433
3.626469307
3.634287974
3.642524729
3.651059535
3.659921585
3.669245996
3.678947968
3.689001009
3.699506719
3.710409363
3.721707729
3.733400459
3.74547932
3.757963655
3.770676377
3.783829112
3.797071557
3.810653775
3.824240893
3.837977811
3.851572095
3.865175255
3.878320973
3.89143204
3.903702248
3.915774379
3.9269897
3.937394496
3.947263908
3.956061396
3.963873297
3.970941716
3.977208159
3.98259846
3.987330984
3.991870858
3.996979599
3.604883392
3.611816439
3.619000361
3.626444235
3.634259419
3.642496175
3.65103098
3.659892236
3.669213854
3.678915826
3.688968867
3.699470999
3.710373643
3.721671696
3.733361345
3.745440206
3.757921932
3.770634282
3.783786814
3.797027152
3.81060937
3.824195094
3.837932012
3.851525986
3.865129147
3.878275707
3.891387325
3.90365895
3.915734062
3.926949383
3.937358053
3.947232154
3.956029641
3.963847229
3.970922942
3.977199759
3.982591695
3.987338885
3.991912257
3.997096302
3.604852379
3.611691617
3.618875539
3.626389872
3.634230857
3.642386384
3.650921189
3.659861955
3.669144899
3.678832128
3.688929726
3.69942969
3.710326606
3.721634365
3.733358115
3.745438706
3.757881422
3.770683985
3.783743665
3.797129102
3.810621554
3.824344473
3.83799063
3.851715749
3.865158589
3.878493259
3.891343111
3.903891312
3.915772604
3.927058803
3.937584792
3.947233912
3.956079032
3.964034563
3.971083221
3.977191691
3.982592706
3.987410617
3.991942198
3.997018422
3.604829009
3.611643207
3.618795895
3.626363119
3.634204103
3.642328719
3.650872747
3.659831673
3.669114618
3.678762426
3.688895871
3.699395836
3.710282457
3.721597035
3.733320784
3.745402932
3.757840912
3.770728646
3.783700515
3.797130812
3.810576553
3.824299472
3.83794477
3.851676439
3.865112984
3.878560949
3.891298897
3.904060263
3.915730847
3.927020465
3.937743581
3.947199868
3.956050228
3.9641535
3.971081528
3.977178574
3.982593717
3.987438646
3.992011021
3.997000243
3.604805639
3.611644041
3.618823856
3.626336365
3.634177349
3.642331563
3.650861432
3.659801392
3.669084336
3.678766988
3.688862016
3.699361981
3.710254387
3.721559704
3.733283453
3.745358073
3.757800403
3.770600473
3.783657366
3.79704223
3.810531551
3.82425447
3.837898911
3.851624037
3.86506738
3.878402648
3.891254683
3.903805909
3.91568909
3.926982127
3.937511308
3.947165823
3.956021423
3.963985724
3.971039855
3.977165458
3.982594728
3.987466674
3.992097826
3.99735532
3.604789656
3.61171874
3.618898554
3.626338172
3.634152327
3.642384319
3.650914188
3.659771111
3.669090142
3.67878655
3.688833827
3.699333614
3.710230238
3.721522373
3.733208996
3.745281733
3.757759893
3.770467111
3.783614216
3.79685213
3.810430084
3.824014233
3.837749031
3.85134281
3.864946648
3.878095278
3.891210469
3.903487576
3.915568026
3.926794182
3.937212187
3.947096744
3.955912709
3.963747393
3.970844267
3.977147791
3.98259574
3.987432414
3.992183338
3.997743239
3.604764697
3.61169378
3.618873595
3.626313213
3.634123898
3.64235589
3.650885759
3.659741891
3.669058142
3.678754551
3.688801827
3.699298057
3.71019468
3.721486505
3.733170064
3.745242801
3.757718366
3.770425214
3.783572116
3.796807929
3.810385884
3.823968632
3.83770343
3.851296881
3.864900719
3.878050164
3.891165895
3.903444398
3.915527791
3.926753947
3.937175828
3.947065122
3.955881087
3.96372162
3.97082611
3.977140656
3.982590544
3.987444092
3.992234474
3.997883697
3.604733802
3.611569164
3.618748978
3.626258996
3.634095458
3.642246275
3.650776144
3.659711746
3.668989324
3.67867099
3.688762839
3.699256856
3.710147715
3.721449349
3.733166821
3.745241278
3.757678049
3.77047478
3.78352917
3.796909629
3.810398096
3.824117672
3.837761955
3.85148625
3.864930148
3.878267304
3.891121818
3.903676376
3.915566297
3.926863204
3.937402233
3.947066919
3.955930503
3.963908404
3.970985384
3.977133801
3.982594637
3.987514249
3.992251234
3.997776696
3.604710541
3.611520888
3.618669501
3.626232363
3.634068826
3.642188753
3.650727848
3.659681601
3.668959179
3.67860143
3.688729139
3.699223156
3.710103667
3.721412193
3.733129665
3.745205669
3.757637731
3.770519324
3.783486224
3.796911402
3.810353298
3.824072874
3.837716286
3.851447114
3.864884711
3.878334913
3.891077741
3.903845056
3.915524642
3.92682495
3.937560796
3.947032986
3.955901928
3.964027149
3.970984064
3.97712202
3.982598731
3.987549763
3.99232821
3.997743767
3.604687281
3.611521811
3.618697532
3.626205731
3.634042193
3.642191703
3.650716657
3.659651456
3.668929034
3.678606146
3.688695439
3.699189456
3.710075831
3.721375037
3.733092509
3.745161027
3.757597414
3.770391664
3.783443278
3.796823164
3.8103085
3.824028076
3.837670617
3.851394918
3.864839273
3.878177015
3.891033664
3.903591205
3.915482988
3.926786696
3.937328939
3.946999053
3.955873353
3.963860446
3.970943203
3.97711024
3.982602824
3.987585277
3.992440064
3.998180109
3.604671402
3.611596535
3.618772256
3.626207633
3.634017292
3.64224454
3.650769494
3.659621311
3.668934988
3.678625863
3.688667405
3.699161303
3.710051941
3.721337881
3.733018432
3.745085077
3.757557097
3.770258834
3.783400332
3.79663372
3.810207413
3.823788573
3.837521218
3.851114444
3.864718895
3.87787036
3.890989587
3.903273496
3.91536216
3.926599093
3.937030348
3.946930177
3.955765033
3.963623442
3.970750503
3.977094094
3.982606917
3.987564531
3.992564602
3.998658727
3.60464656
3.611571693
3.618747414
3.626182791
3.633988993
3.642216241
3.650741195
3.659592225
3.668903136
3.67859401
3.688635552
3.699125913
3.710016551
3.721302183
3.732979687
3.745046333
3.75751577
3.770217139
3.783358435
3.796589729
3.810163421
3.823743174
3.83747582
3.851068698
3.864673149
3.8778254
3.890945159
3.90323044
3.915322011
3.926558945
3.936994074
3.9468987
3.955733556
3.963598014
3.970733281
3.977089486
3.982604404
3.987580969
3.992627405
3.998827468
3.604615786
3.611447285
3.618623006
3.626128723
3.63396068
3.642106806
3.65063176
3.659562221
3.668834458
3.678510589
3.688596722
3.699084824
3.709969661
3.721265206
3.732976438
3.745044794
3.75747565
3.770266579
3.783315697
3.79669119
3.810175667
3.823891886
3.83753426
3.85125768
3.864702571
3.878042135
3.89090122
3.903462037
3.915360478
3.926668032
3.937220119
3.946900539
3.955783011
3.963784161
3.970891538
3.977083954
3.98261202
3.987649289
3.992628473
3.998686333
3.60459264
3.611399147
3.6185437
3.626102216
3.633934173
3.642049429
3.650583612
3.659532216
3.668804453
3.678441175
3.688563181
3.699051284
3.70992572
3.72122823
3.732939461
3.745009356
3.75743553
3.770311014
3.783272959
3.796693032
3.810131076
3.823847296
3.837488785
3.851218723
3.864657303
3.878109665
3.890857281
3.903630448
3.915318929
3.926629868
3.937378437
3.946866733
3.955754711
3.963902692
3.970890685
3.977073602
3.982619636
3.987693752
3.992715165
3.998636194
3.604569494
3.611400164
3.618571806
3.62607571
3.633907667
3.642052491
3.65057255
3.659502212
3.668774449
3.678446052
3.688529641
3.699017743
3.709898122
3.721191254
3.732902485
3.744964935
3.75739541
3.770183867
3.783230221
3.796605141
3.810086486
3.823802705
3.83744331
3.851166737
3.864612035
3.877952171
3.890813342
3.903377102
3.91527738
3.926591703
3.937147031
3.946832927
3.955726411
3.963737256
3.970850751
3.97706325
3.982627251
3.987738216
3.992856864
3.999168457
3.604553723
3.611474919
3.618646561
3.626077711
3.633882891
3.642105415
3.650625474
3.659472208
3.668780558
3.678465928
3.688501766
3.698989808
3.709874495
3.721154277
3.73282879
3.744889378
3.75735529
3.770051569
3.783187483
3.796416351
3.809985781
3.823563932
3.837294392
3.850887012
3.864492011
3.877646229
3.890769403
3.903060017
3.915156797
3.926404457
3.936849016
3.946764283
3.955618554
3.963501818
3.970661151
3.97704871
3.982634867
3.987733474
3.993027917
3.999754124
3.604529002
3.611450199
3.61862184
3.62605299
3.633854726
3.64207725
3.650597309
3.65944326
3.668748857
3.678434227
3.688470065
3.69895459
3.709839277
3.721118752
3.732790238
3.744850825
3.757314169
3.770010081
3.783145793
3.796372573
3.809942003
3.82351874
3.8372492
3.850841451
3.86444645
3.877601424
3.890725121
3.903017083
3.91511674
3.9263644
3.936812837
3.946732988
3.955587259
3.963476818
3.970644836
3.977045446
3.982634211
3.987755372
3.993104631
3.999956492
3.604498354
3.611326002
3.618497644
3.625999075
3.633826544
3.641967996
3.650488055
3.659413401
3.668680323
3.678350949
3.688431395
3.698913617
3.709792467
3.721081959
3.732786988
3.744849277
3.75727425
3.770059403
3.783103267
3.796473806
3.809954288
3.823667133
3.837307561
3.851030055
3.864475868
3.877817756
3.890681321
3.9032483
3.915155166
3.926473314
3.937038494
3.946734875
3.955636765
3.963662257
3.970801807
3.977041477
3.982646116
3.98782133
3.993087006
3.999775561
3.604475326
3.611278005
3.618418511
3.625972698
3.633800167
3.641910769
3.650440061
3.659383541
3.668650463
3.678281683
3.688398019
3.698880241
3.709748637
3.721045167
3.732750196
3.744814016
3.757234332
3.770103738
3.783060741
3.796475725
3.809909909
3.823622753
3.837262283
3.850991278
3.864430772
3.87788521
3.890637521
3.903416444
3.915113724
3.926435243
3.937196547
3.946701209
3.955608775
3.963780552
3.970801466
3.977032883
3.982658021
3.987876484
3.993185264
3.999705482
3.604452298
3.61127912
3.618446697
3.625946322
3.633773791
3.641913947
3.650429132
3.659353682
3.668620604
3.678286725
3.688364642
3.698846864
3.709721282
3.721008375
3.732713403
3.74476982
3.757194414
3.769977104
3.783018215
3.796388181
3.80986553
3.823578374
3.837217005
3.850939504
3.864385675
3.877728121
3.890593721
3.903163602
3.915072281
3.926397172
3.936965627
3.946667542
3.955580785
3.963616543
3.970762615
3.977024289
3.982669926
3.987931638
3.993362515
4.000350644
3.604436639
3.611353912
3.618521489
3.625948427
3.633749143
3.641966964
3.65048215
3.659323822
3.668626873
3.678306767
3.68833693
3.698819151
3.709697922
3.720971582
3.732640093
3.744694657
3.757154495
3.769845338
3.782975689
3.796200042
3.809765206
3.823340327
3.837068567
3.850660526
3.864266006
3.877422892
3.89054992
3.902847143
3.914951948
3.926210294
3.936668232
3.946599154
3.955473442
3.963382863
3.970576799
3.977011792
3.982681831
3.987946236
3.993588992
4.001062289
3.604412045
3.611329317
3.618496894
3.625923832
3.633721117
3.641938938
3.650454124
3.659295017
3.668595328
3.678275222
3.688305385
3.698784109
3.70966288
3.720936235
3.732601736
3.744656301
3.757113583
3.769804061
3.782934212
3.796156481
3.809721644
3.823295343
3.837023582
3.850615153
3.864220633
3.877378245
3.890505785
3.902804328
3.914911983
3.926170329
3.936632148
3.946568045
3.955442333
3.963358307
3.970561666
3.977012129
3.982684995
3.987974885
3.993682347
4.001304647
3.604381525
3.611205336
3.618372912
3.625870073
3.633693071
3.641829868
3.650345054
3.659265307
3.66852694
3.678192088