/*--------------------------------*- C++ -*----------------------------------*\
| =========                 |                                                 |
| \\      /  F ield         | OpenFOAM: The Open Source CFD Toolbox           |
|  \\    /   O peration     | Version:  v2006                                 |
|   \\  /    A nd           | Website:  www.openfoam.com                      |
|    \\/     M anipulation  |                                                 |
\*---------------------------------------------------------------------------*/
FoamFile
{
    version     2.0;
    format      ascii;
    class       volScalarField;
    location    "0.075";
    object      theta2;
}
// * * * * * * * * * * * * * * * * * * * * * * * * * * * * * * * * * * * * * //

dimensions      [0 0 0 0 0 0 0];


internalField   nonuniform List<scalar> 
168000
(
59.99992826
59.99980479
59.99967685
59.99954429
59.99943004
59.99934626
59.99925944
59.99917415
59.99912628
59.99909188
59.99905623
59.9990573
59.99907804
59.99910094
59.99916182
59.99923512
59.99932046
59.99943283
59.99955053
59.99968634
59.99982815
59.99997443
60.00012243
60.00026438
60.00040121
60.00051971
60.00062936
60.00070852
60.00077374
60.00080849
60.00081388
60.0007965
60.00074154
60.00064398
60.00050189
60.00030059
59.99999939
59.99954115
59.9988517
59.99780414
59.99992658
59.99978258
59.99965464
59.999538
59.99942954
59.99932503
59.99923821
59.99917402
59.9991125
59.9990729
59.999054
59.99904838
59.99906246
59.99910056
59.99915111
59.99922388
59.99931993
59.99942639
59.99954988
59.99968453
59.99982698
59.99997643
60.00012311
60.000269
60.00040203
60.00052562
60.00062825
60.00071457
60.00077433
60.00081055
60.00081833
60.00079464
60.00073978
60.00064667
60.00050425
60.00029004
59.99998158
59.99953441
59.99885583
59.99780814
59.99992658
59.99977709
59.99964264
59.99953796
59.99942949
59.9993171
59.99923326
59.99917389
59.99911237
59.99905918
59.99905375
59.99904813
59.99905139
59.99910017
59.99915072
59.99922206
59.9993194
59.99942029
59.99954922
59.99968352
59.99982621
59.99997566
60.00012224
60.00026829
60.00040107
60.00052761
60.00062713
60.0007189
60.00077294
60.00080867
60.00082115
60.00079187
60.00073549
60.00064624
60.00049845
60.00027902
59.99996377
59.99950572
59.99882625
59.99779712
59.99992658
59.99978256
59.99965458
59.99953791
59.99942945
59.99932491
59.99923797
59.99917376
59.99911224
59.99907249
59.99905351
59.99904789
59.99906179
59.99909979
59.99915034
59.99922285
59.99931887
59.99942521
59.99954856
59.99968318
59.99982544
59.99997489
60.00012138
60.00026727
60.0004001
60.00052363
60.00062602
60.00071201
60.00077156
60.00080678
60.0008139
60.0007891
60.0007312
60.0006347
60.00049011
60.000268
59.99994595
59.99947703
59.99876991
59.9976857
59.99992825
59.99980473
59.99967674
59.99954412
59.99942986
59.99934596
59.99925902
59.99917363
59.99912568
59.99909109
59.99905526
59.99905623
59.99907674
59.9990994
59.99916015
59.99923317
59.99931834
59.99943046
59.9995479
59.99968356
59.99982512
59.99997126
60.00011903
60.00026083
60.0003974
60.00051565
60.00062491
60.00070346
60.00076806
60.00080123
60.0008048
60.0007852
60.00072488
60.00062089
60.00046988
60.00025626
59.99992814
59.99943388
59.99869138
59.9975644
59.99992824
59.99980472
59.99967673
59.99954411
59.99942978
59.99934588
59.99925894
59.99917353
59.99912549
59.99909091
59.99905508
59.99905592
59.99907643
59.99909907
59.99915969
59.99923271
59.99931776
59.99942986
59.99954728
59.99968283
59.99982439
59.99997042
60.0001182
60.0002599
60.00039647
60.0005146
60.00062381
60.00070221
60.00076642
60.00079958
60.00080249
60.00078169
60.00072136
60.00061535
60.000461
60.00024192
59.99991291
59.99941074
59.99865423
59.99750565
59.99992657
59.99978253
59.99965454
59.99953783
59.99942927
59.99932467
59.99923773
59.9991734
59.99911172
59.99907194
59.99905284
59.999047
59.99906084
59.99909868
59.99914896
59.99922146
59.99931722
59.9994234
59.99954661
59.99968099
59.99982319
59.99997239
60.00011883
60.00026449
60.00039724
60.00052048
60.00062262
60.00070826
60.00076691
60.00080154
60.00080695
60.00077957
60.00071928
60.0006181
60.00046347
60.00023019
59.99989315
59.99940318
59.99865845
59.99750944
59.99992657
59.99977705
59.99964255
59.99953778
59.99942923
59.99931675
59.99923279
59.99917326
59.99911159
59.99905823
59.99905258
59.99904675
59.99904978
59.99909829
59.99914857
59.99921962
59.99931668
59.99941727
59.99954593
59.99967996
59.99982239
59.9999716
60.00011793
60.00026374
60.00039622
60.00052244
60.00062142
60.00071256
60.00076539
60.00079946
60.00080973
60.00077649
60.0007145
60.00061747
60.00045699
60.00021794
59.99987338
59.99937143
59.99862572
59.99749688
59.99992657
59.99978252
59.99965447
59.99953774
59.99942918
59.99932454
59.99923749
59.99917313
59.99911145
59.99907152
59.99905233
59.99904649
59.99906016
59.99909789
59.99914817
59.9992204
59.99931614
59.99942219
59.99954525
59.9996796
59.9998216
59.9999708
60.00011703
60.00026268
60.0003952
60.00051838
60.00062023
60.00070548
60.00076388
60.00079737
60.00080204
60.00077341
60.00070971
60.00060478
60.00044772
60.00020568
59.99985362
59.99933968
59.99856369
59.99737491
59.99992824
59.99980466
59.99967662
59.99954394
59.99942959
59.99934557
59.99925852
59.99917299
59.99912487
59.9990901
59.99905408
59.99905483
59.99907509
59.9990975
59.99915797
59.99923072
59.9993156
59.99942743
59.99954458
59.99967997
59.99982125
59.99996714
60.00011465
60.00025618
60.00039244
60.00051029
60.00061904
60.00069673
60.0007602
60.00079155
60.00079241
60.00076912
60.00070279
60.00058963
60.00042538
60.00019263
59.99983385
59.99929198
59.99847732
59.99724218
59.99992822
59.99980465
59.9996766
59.99954392
59.99942951
59.99934549
59.99925843
59.99917289
59.99912468
59.99908991
59.99905389
59.9990545
59.99907477
59.99909716
59.9991575
59.99923024
59.999315
59.99942681
59.99954395
59.99967922
59.9998205
59.99996628
60.00011379
60.00025521
60.00039146
60.00050917
60.00061786
60.00069538
60.00075839
60.00078974
60.00078984
60.00076521
60.00069887
60.00058346
60.0004155
60.0001767
59.99981694
59.99926632
59.99843626
59.99717756
59.99992655
59.99978247
59.99965443
59.99953764
59.999429
59.9993243
59.99923724
59.99917275
59.99911092
59.99907096
59.99905165
59.99904558
59.99905918
59.99909676
59.99914676
59.99921898
59.99931445
59.99942033
59.99954325
59.99967735
59.99981927
59.99996821
60.00011439
60.00025976
60.00039218
60.00051503
60.00061658
60.00070142
60.00075877
60.00079158
60.00079432
60.0007628
60.00069644
60.00058628
60.00041807
60.00016366
59.99979502
59.99925787
59.99844052
59.99718104
59.99992655
59.999777
59.99964245
59.99953759
59.99942895
59.99931638
59.99923229
59.99917261
59.99911078
59.99905725
59.99905138
59.99904532
59.99904811
59.99909635
59.99914636
59.99921713
59.99931389
59.99941418
59.99954255
59.99967629
59.99981845
59.99996739
60.00011345
60.00025897
60.00039111
60.00051694
60.00061529
60.00070569
60.00075711
60.00078928
60.00079706
60.00075937
60.00069111
60.0005854
60.00041084
60.00015004
59.9997731
59.99922276
59.99840435
59.99716672
59.99992655
59.99978246
59.99965436
59.99953754
59.9994289
59.99932417
59.99923698
59.99917247
59.99911064
59.99907052
59.99905112
59.99904505
59.99905847
59.99909595
59.99914595
59.99921789
59.99931334
59.99941909
59.99954186
59.99967592
59.99981763
59.99996657
60.00011251
60.00025788
60.00039003
60.00051279
60.00061401
60.0006984
60.00075546
60.00078697
60.00078887
60.00075595
60.00068578
60.00057144
60.00040054
60.00013641
59.99975118
59.99918765
59.99833612
59.99703339
59.99992822
59.99980459
59.99967648
59.99954374
59.99942931
59.99934517
59.99925799
59.99917233
59.99912404
59.99908908
59.99905286
59.99905338
59.99907339
59.99909554
59.99915574
59.9992282
59.99931278
59.99942432
59.99954116
59.99967627
59.99981726
59.99996287
60.00011009
60.00025131
60.0003872
60.00050457
60.00061273
60.00068941
60.00075157
60.00078086
60.00077866
60.00075123
60.00067819
60.00055483
60.00037586
60.00012192
59.99972926
59.99913497
59.99824125
59.99688835
59.9999282
59.99980457
59.99967646
59.99954372
59.99942922
59.99934508
59.9992579
59.99917222
59.99912384
59.99908889
59.99905266
59.99905305
59.99907306
59.9990952
59.99915526
59.99922771
59.99931217
59.99942369
59.99954052
59.99967549
59.99981649
59.99996197
60.0001092
60.00025029
60.00038618
60.00050338
60.00061146
60.00068794
60.00074957
60.00077886
60.0007758
60.00074687
60.00067383
60.00054796
60.00036487
60.00010423
59.99971049
59.99910656
59.99819594
59.99681734
59.99992653
59.99978241
59.99965431
59.99953745
59.99942871
59.9993239
59.99923672
59.99917208
59.99911008
59.99906994
59.99905041
59.99904412
59.99905747
59.99909478
59.9991445
59.99921643
59.9993116
59.99941718
59.9995398
59.99967359
59.99981523
59.99996387
60.00010976
60.00025481
60.00038685
60.00050921
60.00061008
60.00069399
60.00074984
60.00078058
60.00078031
60.00074414
60.000671
60.00055085
60.00036757
60.00008974
59.9996862
59.9990971
59.99820017
59.99682038
59.99992653
59.99977695
59.99964233
59.99953739
59.99942866
59.99931598
59.99923177
59.99917193
59.99910994
59.99905623
59.99905014
59.99904385
59.9990464
59.99909437
59.99914409
59.99921457
59.99931103
59.99941101
59.99953908
59.99967251
59.99981438
59.99996302
60.00010877
60.00025398
60.0003857
60.00051107
60.0006087
60.00069823
60.00074802
60.00077802
60.000783
60.00074033
60.00066507
60.00054971
60.0003595
60.00007461
59.99966191
59.99905832
59.99816025
59.99680409
59.99992653
59.9997824
59.99965423
59.99953734
59.9994286
59.99932376
59.99923645
59.99917179
59.9991098
59.99906949
59.99904988
59.99904358
59.99905675
59.99909395
59.99914367
59.99921532
59.99931046
59.99941591
59.99953837
59.99967212
59.99981352
59.99996217
60.00010779
60.00025284
60.00038456
60.00050682
60.00060731
60.0006907
60.00074621
60.00077547
60.00077426
60.00073652
60.00065914
60.00053434
60.00034806
60.00005948
59.99963762
59.99901954
59.99808527
59.99665853
59.9999282
59.99980451
59.99967633
59.99954353
59.99942901
59.99934475
59.99925743
59.99917165
59.99912318
59.99908802
59.9990516
59.99905189
59.99907165
59.99909354
59.99915345
59.99922561
59.99930989
59.99942113
59.99953765
59.99967245
59.99981313
59.99995843
60.00010533
60.00024619
60.00038166
60.00049847
60.00060593
60.00068145
60.0007421
60.00076904
60.00076339
60.00073133
60.00065081
60.0005161
60.00032081
60.00004338
59.99961333
59.9989614
59.9979812
59.99650024
59.99992818
59.99980449
59.99967632
59.99954351
59.99942892
59.99934466
59.99925734
59.99917153
59.99912297
59.99908782
59.9990514
59.99905155
59.99907131
59.99909318
59.99915295
59.99922511
59.99930926
59.99942047
59.99953698
59.99967165
59.99981233
59.9999575
60.0001044
60.00024511
60.00038058
60.00049719
60.00060457
60.00067985
60.00073989
60.00076683
60.00076022
60.00072648
60.00064596
60.00050846
60.00030859
60.00002376
59.99959251
59.99892996
59.99793124
59.9964223
59.99992652
59.99978235
59.99965418
59.99953724
59.9994284
59.99932349
59.99923618
59.99917138
59.99910921
59.99906888
59.99904914
59.99904261
59.99905572
59.99909275
59.99914219
59.99921382
59.99930867
59.99941394
59.99953625
59.99966972
59.99981104
59.99995936
60.00010491
60.0002496
60.00038119
60.000503
60.00060307
60.00068591
60.00074002
60.0007684
60.00076475
60.00072339
60.00064269
60.00051141
60.0003114
60.00000767
59.99956561
59.99891938
59.99793539
59.99642473
59.99992652
59.99977689
59.99964222
59.99953718
59.99942835
59.99931558
59.99923123
59.99917123
59.99910906
59.99905517
59.99904886
59.99904233
59.99904463
59.99909232
59.99914176
59.99921194
59.99930809
59.99940775
59.99953551
59.99966861
59.99981015
59.99995848
60.00010388
60.00024872
60.00037997
60.00050481
60.00060158
60.00069011
60.00073803
60.00076557
60.00076739
60.00071915
60.00063609
60.00050998
60.00030241
59.99999087
59.99953871
59.99887658
59.99789135
59.99640622
59.99992652
59.99978234
59.9996541
59.99953713
59.99942829
59.99932335
59.9992359
59.99917108
59.99910891
59.99906841
59.99904858
59.99904205
59.99905496
59.9990919
59.99914133
59.99921267
59.9993075
59.99941263
59.99953477
59.9996682
59.99980927
59.99995759
60.00010285
60.00024753
60.00037875
60.00050045
60.00060008
60.00068232
60.00073604
60.00076275
60.00075805
60.00071492
60.00062949
60.00049306
60.00028972
59.99997407
59.99951181
59.99883378
59.99780907
59.99624751
59.99992818
59.99980442
59.99967618
59.9995433
59.99942869
59.9993443
59.99925686
59.99917093
59.99912228
59.99908693
59.9990503
59.99905035
59.99906985
59.99909147
59.99915109
59.99922295
59.99930692
59.99941783
59.99953403
59.9996685
59.99980885
59.99995381
60.00010034
60.00024079
60.00037578
60.00049193
60.00059859
60.00067277
60.00073169
60.00075597
60.00074646
60.00070919
60.00062034
60.00047302
60.00025962
59.99995621
59.99948491
59.9987697
59.99769504
59.99607499
59.99992816
59.9998044
59.99967616
59.99954329
59.9994286
59.99934421
59.99925676
59.9991708
59.99912206
59.99908671
59.99905008
59.99904999
59.9990695
59.9990911
59.99915058
59.99922243
59.99930626
59.99941715
59.99953334
59.99966768
59.99980802
59.99995283
60.00009936
60.00023964
60.00037463
60.00049056
60.00059711
60.00067103
60.00072927
60.00075355
60.00074293
60.00070379
60.00061494
60.00046451
60.00024604
59.99993445
59.99946183
59.99873493
59.99764001
59.99598956
59.9999265
59.99978229
59.99965405
59.99953702
59.99942808
59.99932305
59.99923561
59.99917064
59.99910831
59.99906777
59.99904782
59.99904105
59.9990539
59.99909066
59.9991398
59.99921113
59.99930566
59.9994106
59.99953257
59.99966571
59.99980669
59.99995466
60.00009984
60.0002441
60.00037517
60.00049634
60.00059548
60.00067709
60.00072926
60.00075497
60.00074748
60.0007003
60.00061119
60.00046754
60.00024898
59.99991659
59.99943205
59.99872309
59.99764398
59.99599122
59.9999265
59.99977683
59.99964209
59.99953696
59.99942802
59.99931514
59.99923065
59.99917049
59.99910815
59.99905407
59.99904753
59.99904076
59.99904282
59.99909022
59.99913936
59.99920923
59.99930505
59.99940438
59.99953181
59.99966457
59.99980577
59.99995374
60.00009875
60.00024317
60.00037387
60.00049809
60.00059386
60.00068124
60.00072707
60.00075184
60.00075005
60.00069559
60.00060385
60.00046578
60.00023896
59.99989795
59.99940227
59.99867589
59.99759546
59.9959702
59.9999265
59.99978227
59.99965396
59.9995369
59.99942796
59.9993229
59.99923531
59.99917033
59.99910799
59.99906729
59.99904724
59.99904047
59.99905313
59.99908978
59.99913892
59.99920994
59.99930445
59.99940924
59.99953104
59.99966413
59.99980485
59.99995282
60.00009766
60.00024192
60.00037257
60.0004936
60.00059223
60.00067315
60.00072489
60.00074871
60.00074004
60.00069088
60.00059651
60.00044714
60.00022488
59.99987931
59.99937249
59.99862868
59.99750526
59.99579738
59.99992816
59.99980433
59.99967602
59.99954306
59.99942836
59.99934383
59.99925625
59.99917017
59.99912134
59.99908578
59.99904894
59.99904875
59.99906799
59.99908934
59.99914866
59.9992202
59.99930384
59.99941442
59.99953027
59.99966441
59.99980439
59.99994898
60.0000951
60.00023507
60.0003695
60.00048489
60.00059061
60.00066328
60.00072027
60.00074155
60.00072766
60.00068457
60.00058644
60.00042511
60.00019165
59.99985951
59.99934271
59.9985581
59.99738044
59.99560959
59.99992814
59.99980431
59.999676
59.99954304
59.99942825
59.99934373
59.99925615
59.99917004
59.99912111
59.99908556
59.99904872
59.99904838
59.99906762
59.99908895
59.99914813
59.99921967
59.99930317
59.99941372
59.99952956
59.99966354
59.99980353
59.99994795
60.00009407
60.00023385
60.00036828
60.00048341
60.00058901
60.00066137
60.00071761
60.00073889
60.00072374
60.00067856
60.00058044
60.00041565
60.00017657
59.99983538
59.99931714
59.99851964
59.99731987
59.99551606
59.99992647
59.99978221
59.9996539
59.99953678
59.99942773
59.99932259
59.99923501
59.99916987
59.99910736
59.99906662
59.99904644
59.99903943
59.99905202
59.9990885
59.99913733
59.99920835
59.99930254
59.99940714
59.99952877
59.99966154
59.99980216
59.99994974
60.00009449
60.00023827
60.00036874
60.00048916
60.00058724
60.00066742
60.00071744
60.00074016
60.00072829
60.00067463
60.00057614
60.00041876
60.00017963
59.99981557
59.99928419
59.99850633
59.99732357
59.99551677
59.99992647
59.99977676
59.99964195
59.99953671
59.99942767
59.99931468
59.99923005
59.99916971
59.99910719
59.99905292
59.99904614
59.99903913
59.99904093
59.99908804
59.99913688
59.99920643
59.99930191
59.9994009
59.99952797
59.99966038
59.99980119
59.99994878
60.00009334
60.00023728
60.00036735
60.00049084
60.00058547
60.00067151
60.00071505
60.0007367
60.00073079
60.00066939
60.00056798
60.00041663
60.00016848
59.9997949
59.99925124
59.9984543
59.99727015
59.99549296
59.99992647
59.9997822
59.99965381
59.99953665
59.9994276
59.99932242
59.9992347
59.99916954
59.99910703
59.99906612
59.99904584
59.99903883
59.99905122
59.99908758
59.99913642
59.99920712
59.99930129
59.99940573
59.99952717
59.9996599
59.99980023
59.99994781
60.00009219
60.00023596
60.00036595
60.00048621
60.00058369
60.0006631
60.00071265
60.00073324
60.00072005
60.00066416
60.00055981
60.00039609
60.00015286
59.99977423
59.99921828
59.99840227
59.99717136
59.99530496
59.99992813
59.99980423
59.99967584
59.99954281
59.999428
59.99934334
59.99925561
59.99916938
59.99912035
59.99908459
59.99904753
59.99904709
59.99906606
59.99908712
59.99914614
59.99921736
59.99930066
59.99941089
59.99952638
59.99966014
59.99979973
59.9999439
60.00008956
60.000229
60.00036278
60.0004773
60.00058192
60.00065289
60.00070771
60.00072562
60.0007068
60.00065719
60.00054874
60.00037186
60.00011618
59.99975227
59.99918533
59.99832465
59.99703489
59.99510079
59.99992811
59.9998042
59.99967582
59.99954278
59.99942789
59.99934323
59.9992555
59.99916924
59.99912012
59.99908436
59.9990473
59.99904671
59.99906568
59.99908673
59.99914559
59.99921681
59.99929996
59.99941017
59.99952564
59.99965924
59.99979883
59.99994282
60.00008848
60.00022771
60.00036149
60.0004757
60.00058019
60.0006508
60.00070479
60.0007227
60.00070246
60.00065051
60.00054206
60.00036134
60.00009943
59.99972555
59.99915701
59.99828215
59.9969683
59.99499848
59.99992645
59.99978212
59.99965374
59.99953652
59.99942736
59.9993221
59.99923437
59.99916907
59.99910637
59.99906543
59.99904502
59.99903776
59.99905008
59.99908625
59.99913478
59.99920547
59.99929931
59.99940356
59.99952481
59.99965721
59.99979742
59.99994458
60.00008885
60.00023209
60.00036187
60.00048142
60.00057826
60.00065682
60.00070446
60.00072381
60.00070701
60.00064609
60.00053717
60.00036454
60.00010262
59.99970358
59.99912059
59.9982672
59.99697159
59.99499803
59.99992645
59.99977667
59.9996418
59.99953645
59.9994273
59.99931419
59.99922941
59.99916889
59.9991062
59.99905173
59.9990447
59.99903744
59.99903898
59.99908578
59.9991343
59.99920352
59.99929866
59.99939729
59.99952398
59.99965601
59.99979641
59.99994356
60.00008763
60.00023103
60.00036037
60.00048303
60.00057633
60.00066084
60.00070183
60.00071998
60.00070941
60.00064027
60.00052809
60.000362
60.00009022
59.99968067
59.99908416
59.99820992
59.99691283
59.99497111
59.99992645
59.99978211
59.99965364
59.99953638
59.99942723
59.99932193
59.99923405
59.99916872
59.99910602
59.9990649
59.99904439
59.99903713
59.99904924
59.9990853
59.99913383
59.99920419
59.99929801
59.99940209
59.99952316
59.99965549
59.9997954
59.99994255
60.00008641
60.00022964
60.00035887
60.00047824
60.0005744
60.00065209
60.00069919
60.00071615
60.00069787
60.00063445
60.00051902
60.00033935
60.0000729
59.99965776
59.99904774
59.99815264
59.99680477
59.99476683
59.9999281
59.99980412
59.99967565
59.99954253
59.99942762
59.99934281
59.99925494
59.99916855
59.99911933
59.99908335
59.99904607
59.99904537
59.99906406
59.99908483
59.99914352
59.9992144
59.99929737
59.99940722
59.99952233
59.99965569
59.99979485
59.99993857
60.00008371
60.00022254
60.00035559
60.00046909
60.00057247
60.00064151
60.00069391
60.00070803
60.00068367
60.00062676
60.00050683
60.0003127
60.00003242
59.99963343
59.99901131
59.99806738
59.99665574
59.99454507
59.99992808
59.9998041
59.99967563
59.99954251
59.9994275
59.99934269
59.99925482
59.9991684
59.99911909
59.99908311
59.99904583
59.99904497
59.99906366
59.99908442
59.99914295
59.99921383
59.99929664
59.99940647
59.99952156
59.99965475
59.99979392
59.99993743
60.00008257
60.00022116
60.00035421
60.00046736
60.00057058
60.00063921
60.00069069
60.00070481
60.00067884
60.00061933
60.0004994
60.00030101
60.00001384
59.99960385
59.99897997
59.99802048
59.9965826
59.99443329
59.99992642
59.99978203
59.99965356
59.99953624
59.99942697
59.99932158
59.9992337
59.99916822
59.99910533
59.99906418
59.99904353
59.99903601
59.99904805
59.99908392
59.99913213
59.99920248
59.99929596
59.99939984
59.99952069
59.99965268
59.99979246
59.99993914
60.00008289
60.0002255
60.00035449
60.00047306
60.00056847
60.0006452
60.00069018
60.00070574
60.00068339
60.00061437
60.00049384
60.0003043
60.00001717
59.9995795
59.99893975
59.99800369
59.99658535
59.99443149
59.99992642
59.99977659
59.99964163
59.99953617
59.9994269
59.99931367
59.99922874
59.99916803
59.99910515
59.99905047
59.9990432
59.99903568
59.99903694
59.99908343
59.99913163
59.99920051
59.99929528
59.99939354
59.99951983
59.99965144
59.9997914
59.99993808
60.00008159
60.00022436
60.00035288
60.00047459
60.00056636
60.00064913
60.00068727
60.0007015
60.00068569
60.0006079
60.00048376
60.0003013
60.00000338
59.99955413
59.99889952
59.9979407
59.99652077
59.99440111
59.99992642
59.99978202
59.99965346
59.9995361
59.99942682
59.99932139
59.99923336
59.99916785
59.99910496
59.99906363
59.99904287
59.99903535
59.99904718
59.99908293
59.99913114
59.99920115
59.99929461
59.99939831
59.99951896
59.99965089
59.99979033
59.99993701
60.00008029
60.0002229
60.00035126
60.00046961
60.00056425
60.00064
60.00068437
60.00069726
60.00067326
60.00060144
60.00047367
60.00027633
59.99998419
59.99952875
59.9988593
59.9978777
59.99640271
59.99417936
59.99992807
59.999804
59.99967545
59.99954224
59.99942721
59.99934225
59.99925422
59.99916767
59.99911825
59.99908205
59.99904453
59.99904357
59.99906197
59.99908244
59.99914081
59.99921134
59.99929393
59.9994034
59.9995181
59.99965103
59.99978973
59.99993294
60.0000775
60.00021564
60.00034785
60.0004602
60.00056215
60.00062901
60.0006787
60.00068858
60.00065801
60.00059295
60.00046025
60.000247
59.99993952
59.99950183
59.99881907
59.99778417
59.99624018
59.99393873
59.99992805
59.99980398
59.99967542
59.99954221
59.99942708
59.99934213
59.9992541
59.99916751
59.99911799
59.99908179
59.99904428
59.99904316
59.99906156
59.99908201
59.99914021
59.99921074
59.99929317
59.99940261
59.9995173
59.99965004
59.99978875
59.99993173
60.0000763
60.00021416
60.00034637
60.00045832
60.00056008
60.00062648
60.00067514
60.00068502
60.00065266
60.0005847
60.000452
60.00023402
59.99991892
59.9994691
59.99878442
59.99773248
59.99615993
59.99381674
59.99992639
59.99978193
59.99965337
59.99953595
59.99942655
59.99932102
59.99923299
59.99916732
59.99910424
59.99906287
59.99904197
59.99903418
59.99904594
59.99908149
59.99912937
59.99919937
59.99929247
59.99939595
59.99951639
59.99964794
59.99978724
59.99993341
60.00007655
60.00021847
60.00034656
60.00046398
60.00055778
60.00063242
60.00067442
60.00068575
60.00065721
60.00057914
60.0004457
60.00023739
59.99992237
59.99944214
59.99874005
59.99771363
59.99616196
59.99381339
59.99992639
59.99977649
59.99964145
59.99953587
59.99942647
59.99931311
59.99922802
59.99916713
59.99910404
59.99904916
59.99904163
59.99903384
59.99903481
59.99908098
59.99912885
59.99919737
59.99929176
59.99938962
59.99951548
59.99964666
59.99978612
59.99993228
60.00007517
60.00021724
60.00034481
60.00046542
60.00055547
60.00063625
60.00067121
60.00068105
60.00065939
60.00057196
60.0004345
60.00023388
59.99990704
59.99941406
59.99869567
59.99764442
59.99609106
59.99377922
59.99992639
59.99978191
59.99965326
59.99953579
59.99942639
59.99932082
59.99923263
59.99916693
59.99910385
59.99906229
59.99904128
59.99903349
59.99904503
59.99908046
59.99912834
59.99919798
59.99929106
59.99939435
59.99951458
59.99964606
59.99978499
59.99993116
60.00007378
60.00021569
60.00034306
60.00046025
60.00055317
60.00062671
60.00066801
60.00067636
60.00064598
60.00056479
60.0004233
60.00020636
59.99988579
59.99938597
59.99865129
59.99757522
59.99596221
59.99353867
59.99992804
59.99980388
59.99967523
59.99954192
59.99942677
59.99934165
59.99925346
59.99916674
59.99911711
59.99908068
59.99904293
59.99904169
59.99905979
59.99907995
59.99913797
59.99920814
59.99929035
59.9993994
59.99951367
59.99964613
59.99978434
59.99992698
60.0000709
60.00020825
60.0003395
60.00045053
60.00055086
60.00061526
60.0006619
60.00066704
60.00062956
60.00055541
60.00040851
60.00017408
59.99983654
59.99935618
59.99860691
59.99747273
59.99578517
59.99327777
59.99992801
59.99980385
59.9996752
59.99954189
59.99942664
59.99934152
59.99925333
59.99916658
59.99911684
59.99908041
59.99904266
59.99904126
59.99905936
59.9990795
59.99913735
59.99920752
59.99928956
59.99939858
59.99951283
59.9996451
59.9997833
59.9999257
60.00006962
60.00020667
60.00033792
60.00044849
60.00054861
60.00061248
60.00065796
60.00066311
60.00062363
60.00054625
60.00039934
60.00015966
59.99981371
59.99932001
59.99856864
59.99741581
59.99569721
59.99314477
59.99992635
59.99978182
59.99965317
59.99953563
59.9994261
59.99932043
59.99923224
59.99916637
59.99910308
59.99906148
59.99904033
59.99903227
59.99904373
59.99907896
59.99912648
59.99919612
59.99928882
59.99939189
59.99951188
59.99964295
59.99978174
59.99992733
60.00006981
60.00021093
60.00033799
60.00045412
60.00054609
60.00061838
60.00065701
60.00066362
60.00062818
60.00054001
60.00039223
60.00016312
59.99981728
59.99929018
59.99851971
59.99739468
59.99569833
59.99313969
59.99992635
59.99977639
59.99964125
59.99953554
59.99942601
59.99931252
59.99922726
59.99916616
59.99910288
59.99904777
59.99903997
59.99903191
59.9990326
59.99907842
59.99912594
59.99919409
59.99928808
59.99938553
59.99951092
59.99964163
59.99978055
59.99992614
60.00006833
60.00020961
60.0003361
60.00045547
60.00054356
60.00062209
60.00065348
60.00065841
60.00063024
60.00053205
60.00037979
60.00015904
59.99980025
59.9992591
59.99847078
59.99731873
59.99562056
59.99310139
59.99992635
59.9997818
59.99965305
59.99953546
59.99942593
59.99932022
59.99923185
59.99916596
59.99910267
59.99906088
59.99903961
59.99903155
59.99904278
59.99907788
59.99912541
59.99919467
59.99928734
59.99939021
59.99950997
59.99964097
59.99977936
59.99992495
60.00006684
60.00020796
60.00033421
60.00045007
60.00054104
60.00061209
60.00064995
60.00065321
60.00061572
60.00052409
60.00036736
60.0001287
59.99977672
59.99922803
59.99842185
59.99724277
59.9954801
59.99284061
59.999928
59.99980374
59.99967499
59.99954158
59.9994263
59.99934102
59.99925266
59.99916575
59.99911591
59.99907923
59.99904124
59.99903972
59.99905751
59.99907734
59.999135
59.99920479
59.9992866
59.99939521
59.99950902
59.99964097
59.99977863
59.99992065
60.00006385
60.00020032
60.00033049
60.00044003
60.00053852
60.00060014
60.00064335
60.0006432
60.000598
60.00051374
60.00035106
60.00009317
59.99972244
59.99919508
59.99837292
59.99713059
59.99528751
59.99255788
59.99992797
59.99980371
59.99967496
59.99954154
59.99942616
59.99934088
59.99925252
59.99916558
59.99911562
59.99907895
59.99904095
59.99903926
59.99905705
59.99907687
59.99913435
59.99920414
59.99928577
59.99939435
59.99950814
59.99963988
59.99977754
59.99991929
60.00006249
60.00019861
60.00032878
60.0004378
60.00053606
60.00059709
60.00063898
60.00063883
60.00059142
60.00050356
60.00034088
60.00007717
59.99969714
59.99915509
59.99833064
59.99706796
59.99519121
59.99241306
59.99992631
59.9997817
59.99965295
59.99953528
59.99942561
59.99931979
59.99923143
59.99916536
59.99910186
59.99906002
59.99903861
59.99903026
59.99904141
59.9990763
59.99912346
59.99919272
59.99928499
59.99938762
59.99950713
59.99963769
59.99977591
59.99992087
60.0000626
60.00020283
60.00032873
60.00044339
60.00053329
60.00060295
60.00063777
60.00063908
60.00059599
60.00049659
60.00033286
60.00008072
59.99970082
59.99912208
59.99827673
59.99704428
59.99519121
59.99240614
59.99992631
59.99977627
59.99964103
59.99953519
59.99942552
59.99931188
59.99922644
59.99916514
59.99910164
59.9990463
59.99903823
59.99902988
59.99903026
59.99907574
59.9991229
59.99919066
59.99928422
59.99938123
59.99950613
59.99963632
59.99977465
59.99991961
60.00006101
60.0002014
60.00032667
60.00044463
60.00053053
60.00060654
60.00063387
60.00063332
60.00059791
60.00048775
60.00031906
60.000076
59.99968192
59.9990877
59.99822282
59.99696101
59.99510598
59.99236339
59.99992631
59.99978168
59.99965281
59.9995351
59.99942543
59.99931956
59.99923102
59.99916492
59.99910142
59.99905938
59.99903785
59.9990295
59.99904041
59.99907517
59.99912233
59.9991912
59.99928344
59.99938586
59.99950513
59.99963561
59.99977339
59.99991834
60.00005942
60.00019964
60.00032462
60.00043898
60.00052777
60.00059602
60.00062997
60.00062755
60.00058218
60.00047891
60.00030526
60.00004255
59.99965588
59.99905333
59.9981689
59.99687773
59.99495303
59.99208069
59.99992796
59.9998036
59.99967473
59.9995412
59.99942579
59.99934034
59.9992518
59.9991647
59.99911463
59.99907771
59.99903945
59.99903764
59.9990551
59.9990746
59.99913189
59.99920127
59.99928267
59.99939081
59.99950412
59.99963553
59.99977258
59.99991391
60.0000563
60.00019177
60.00032072
60.00042857
60.000525
60.0005835
60.00062284
60.00061677
60.000563
60.00046748
60.00028729
60.00000344
59.99959606
59.99901691
59.99811499
59.99675506
59.99474377
59.99177433
59.99992793
59.99980356
59.9996747
59.99954117
59.99942564
59.99934019
59.99925165
59.99916452
59.99911433
59.99907741
59.99903915
59.99903716
59.99905462
59.99907411
59.99913121
59.99920059
59.99928179
59.9993899
59.9995032
59.99963437
59.99977143
59.99991246
60.00005485
60.00018993
60.00031887
60.00042614
60.00052231
60.00058014
60.00061801
60.00061194
60.0005557
60.00045618
60.00027599
59.9999857
59.99956805
59.99897273
59.99806831
59.99668621
59.99463845
59.99161677
59.99992627
59.99978157
59.99965271
59.99953491
59.99942509
59.99931911
59.99923057
59.99916429
59.99910056
59.99905848
59.99903678