/*--------------------------------*- C++ -*----------------------------------*\
| =========                 |                                                 |
| \\      /  F ield         | OpenFOAM: The Open Source CFD Toolbox           |
|  \\    /   O peration     | Version:  v2006                                 |
|   \\  /    A nd           | Website:  www.openfoam.com                      |
|    \\/     M anipulation  |                                                 |
\*---------------------------------------------------------------------------*/
FoamFile
{
    version     2.0;
    format      ascii;
    class       volScalarField;
    location    "0.09";
    object      C2H6;
}
// * * * * * * * * * * * * * * * * * * * * * * * * * * * * * * * * * * * * * //

dimensions      [0 0 0 0 0 0 0];


internalField   nonuniform List<scalar> 
168000
(
1.401978733e-08
1.700167278e-08
1.976631167e-08
2.285033306e-08
2.58928561e-08
2.860449986e-08
3.139114058e-08
3.416528411e-08
3.609509578e-08
3.764345286e-08
3.898722529e-08
3.950414951e-08
3.938681831e-08
3.898902624e-08
3.768790201e-08
3.590571359e-08
3.375433608e-08
3.088137458e-08
2.773428512e-08
2.420355982e-08
2.039555357e-08
1.652725233e-08
1.601868927e-08
1.627514994e-08
1.653140123e-08
1.677923145e-08
1.70267237e-08
1.725634998e-08
1.748249824e-08
1.769257538e-08
1.788730144e-08
1.807130649e-08
1.823480182e-08
1.837962914e-08
1.850982328e-08
1.862416261e-08
1.897470628e-08
3.237679545e-08
4.239976901e-07
1.747536831e-06
1.383375433e-08
1.685741952e-08
1.861495022e-08
2.047067375e-08
2.266293551e-08
2.511753347e-08
2.786996933e-08
3.073135298e-08
3.322276699e-08
3.535246555e-08
3.709719205e-08
3.813019305e-08
3.847389608e-08
3.826947834e-08
3.727279211e-08
3.566691317e-08
3.355125185e-08
3.082619569e-08
2.767367432e-08
2.419496257e-08
2.039981611e-08
1.653472634e-08
1.60176653e-08
1.627446549e-08
1.653027402e-08
1.677880336e-08
1.702528501e-08
1.725597566e-08
1.748152532e-08
1.769177685e-08
1.788687313e-08
1.807048725e-08
1.823415924e-08
1.837925453e-08
1.850945904e-08
1.862375443e-08
1.949769342e-08
3.312049935e-08
4.661101297e-07
1.817820332e-06
1.346213139e-08
1.664456021e-08
1.798702076e-08
1.902131247e-08
2.041386744e-08
2.235056936e-08
2.482838922e-08
2.76428481e-08
3.042324006e-08
3.297014478e-08
3.511763286e-08
3.661369929e-08
3.738584497e-08
3.746495359e-08
3.675433497e-08
3.534482467e-08
3.332754211e-08
3.071430763e-08
2.760837005e-08
2.416738089e-08
2.039969947e-08
1.653847201e-08
1.601669541e-08
1.627372479e-08
1.652922803e-08
1.677826061e-08
1.702398155e-08
1.72555013e-08
1.748059584e-08
1.769099071e-08
1.788640499e-08
1.806969586e-08
1.823352261e-08
1.837886874e-08
1.850909259e-08
1.862335436e-08
2.002758557e-08
3.388062221e-08
5.092702441e-07
1.889681101e-06
1.319627488e-08
1.647874491e-08
1.768751822e-08
1.820938286e-08
1.892807889e-08
2.026313445e-08
2.231314814e-08
2.492805134e-08
2.778862769e-08
3.059743761e-08
3.30866708e-08
3.499037938e-08
3.616379487e-08
3.656437268e-08
3.614131987e-08
3.494660167e-08
3.306635573e-08
3.05641384e-08
2.752750837e-08
2.412578193e-08
2.039316808e-08
1.653894682e-08
1.601576293e-08
1.62729462e-08
1.652823992e-08
1.677763313e-08
1.702278227e-08
1.725494973e-08
1.747970019e-08
1.769021544e-08
1.788590339e-08
1.806892796e-08
1.823289198e-08
1.8378473e-08
1.850872404e-08
1.862296189e-08
2.056522119e-08
3.465721311e-08
5.534936206e-07
1.963173995e-06
1.302094956e-08
1.638844683e-08
1.760047639e-08
1.78277577e-08
1.801977258e-08
1.876721052e-08
2.031264221e-08
2.260361322e-08
2.537972082e-08
2.830725182e-08
3.104986445e-08
3.329753333e-08
3.483962239e-08
3.557150476e-08
3.544097764e-08
3.447688343e-08
3.275992356e-08
3.037803001e-08
2.74256952e-08
2.407057076e-08
2.037677593e-08
1.653608253e-08
1.601485676e-08
1.627214247e-08
1.652729294e-08
1.677694328e-08
1.702166335e-08
1.725433862e-08
1.747883097e-08
1.768944964e-08
1.788537369e-08
1.806817995e-08
1.823226725e-08
1.837806844e-08
1.850835353e-08
1.862257656e-08
2.111132603e-08
3.545037986e-08
5.987978803e-07
2.038351955e-06
1.29034869e-08
1.636597585e-08
1.765405615e-08
1.77351809e-08
1.753912559e-08
1.776142074e-08
1.878164237e-08
2.066633523e-08
2.323204856e-08
2.615163497e-08
2.905048444e-08
3.157129716e-08
3.344147575e-08
3.449721693e-08
3.466095518e-08
3.393950378e-08
3.240502645e-08
3.015622675e-08
2.730003011e-08
2.400070592e-08
2.035036458e-08
1.652843257e-08
1.601396948e-08
1.627132241e-08
1.652637514e-08
1.677620776e-08
1.702060657e-08
1.725368167e-08
1.747798247e-08
1.768869201e-08
1.788482042e-08
1.806744884e-08
1.823164825e-08
1.837765605e-08
1.85079812e-08
1.862219796e-08
2.166653601e-08
3.62602787e-08
6.452024152e-07
2.115266498e-06
1.282449255e-08
1.639499885e-08
1.779995819e-08
1.783435662e-08
1.737038416e-08
1.714903461e-08
1.766255503e-08
1.909746047e-08
2.13611194e-08
2.416573374e-08
2.71253714e-08
2.984479418e-08
3.199537939e-08
3.335576167e-08
3.38098439e-08
3.333856485e-08
3.200091209e-08
2.98982597e-08
2.714884032e-08
2.391540595e-08
2.03131813e-08
1.651554017e-08
1.601309624e-08
1.627049212e-08
1.65254781e-08
1.677543899e-08
1.701959795e-08
1.725298947e-08
1.747715031e-08
1.768794134e-08
1.788424738e-08
1.806673213e-08
1.823103476e-08
1.837723672e-08
1.850760722e-08
1.862182572e-08
2.223141559e-08
3.708710605e-08
6.927281818e-07
2.193968133e-06
1.277247472e-08
1.6461153e-08
1.800679004e-08
1.806357527e-08
1.742398627e-08
1.684546126e-08
1.689364243e-08
1.786526657e-08
1.976701013e-08
2.237078675e-08
2.530353249e-08
2.814703815e-08
3.052550343e-08
3.216262296e-08
3.28971598e-08
3.267882426e-08
3.154834106e-08
2.960374378e-08
2.697106316e-08
2.381330953e-08
2.026453781e-08
1.649660702e-08
1.601223376e-08
1.626965578e-08
1.652459586e-08
1.677464623e-08
1.701862679e-08
1.725227022e-08
1.747633111e-08
1.768719659e-08
1.788365778e-08
1.806602776e-08
1.82304265e-08
1.837681128e-08
1.850723174e-08
1.862145952e-08
2.280647253e-08
3.79310918e-08
7.413975277e-07
2.27450672e-06
1.27398533e-08
1.655317753e-08
1.82528162e-08
1.837810608e-08
1.764060918e-08
1.678170502e-08
1.641639644e-08
1.693439695e-08
1.843982619e-08
2.077693782e-08
2.360611882e-08
2.650234382e-08
2.905369611e-08
3.093358161e-08
3.193307489e-08
3.196574429e-08
3.104912229e-08
2.927269045e-08
2.676604976e-08
2.369333756e-08
2.020379968e-08
1.647089067e-08
1.601138025e-08
1.626881634e-08
1.652372431e-08
1.677383636e-08
1.70176849e-08
1.725153028e-08
1.747552225e-08
1.768645683e-08
1.788305434e-08
1.806533398e-08
1.822982319e-08
1.837638044e-08
1.850685494e-08
1.862109908e-08
2.339216984e-08
3.879249427e-08
7.91234051e-07
2.356931754e-06
1.272134752e-08
1.666270637e-08
1.852308797e-08
1.874771179e-08
1.796956206e-08
1.689653695e-08
1.617785969e-08
1.626709401e-08
1.736155545e-08
1.938558708e-08
2.204709438e-08
2.493019806e-08
2.75992234e-08
2.968393612e-08
3.092810005e-08
3.120538405e-08
3.050585389e-08
2.89056041e-08
2.653348425e-08
2.355458531e-08
2.013009043e-08
1.643767e-08
1.601053469e-08
1.626797584e-08
1.65228606e-08
1.677301448e-08
1.7016766e-08
1.725077459e-08
1.74747217e-08
1.768572126e-08
1.788243932e-08
1.806464936e-08
1.822922454e-08
1.837594485e-08
1.850647697e-08
1.862074414e-08
2.398893551e-08
3.967159625e-08
8.422624871e-07
2.441292616e-06
1.271319329e-08
1.678366588e-08
1.880733238e-08
1.915185484e-08
1.837771236e-08
1.715324491e-08
1.613388537e-08
1.582695031e-08
1.651146103e-08
1.819188063e-08
2.063428861e-08
2.344546012e-08
2.61786209e-08
2.842800227e-08
2.989273424e-08
3.040423239e-08
2.992174856e-08
2.85034831e-08
2.627335826e-08
2.339639502e-08
2.004316102e-08
1.639628246e-08
1.600969576e-08
1.626713569e-08
1.652200281e-08
1.677218438e-08
1.701586526e-08
1.725000697e-08
1.747392789e-08
1.76849892e-08
1.788181465e-08
1.806397268e-08
1.822863024e-08
1.837550509e-08
1.850609803e-08
1.862039449e-08
2.45971703e-08
4.056870233e-08
8.945086219e-07
2.52763878e-06
1.271267237e-08
1.691167722e-08
1.909841516e-08
1.957611422e-08
1.883944324e-08
1.751209611e-08
1.624143154e-08
1.557980014e-08
1.586678719e-08
1.718735746e-08
1.937055872e-08
2.205876202e-08
2.480565099e-08
2.71789149e-08
2.883703342e-08
2.956905264e-08
2.930049517e-08
2.806777917e-08
2.598595409e-08
2.321830856e-08
1.994236774e-08
1.634615827e-08
1.600886324e-08
1.626629683e-08
1.652114963e-08
1.677134887e-08
1.701497901e-08
1.724923041e-08
1.74731396e-08
1.768426007e-08
1.788118194e-08
1.806330292e-08
1.822804002e-08
1.837506169e-08
1.850571826e-08
1.862004992e-08
2.521725449e-08
4.148413773e-08
9.479992263e-07
2.616019989e-06
1.271779904e-08
1.704359465e-08
1.93913871e-08
2.001044824e-08
1.933644083e-08
1.794740602e-08
1.647604577e-08
1.549634947e-08
1.540455496e-08
1.635889254e-08
1.825462288e-08
2.077699807e-08
2.349135505e-08
2.594820542e-08
2.777066495e-08
2.870669217e-08
2.864613223e-08
2.760033841e-08
2.567183057e-08
2.302008035e-08
1.982728635e-08
1.628679713e-08
1.600803686e-08
1.626545986e-08
1.652030024e-08
1.677051005e-08
1.701410441e-08
1.724844721e-08
1.747235585e-08
1.768353338e-08
1.788054255e-08
1.806263922e-08
1.822745359e-08
1.837461512e-08
1.850533784e-08
1.861971028e-08
2.584955339e-08
4.241824926e-08
1.002762015e-06
2.706486411e-06
1.272710734e-08
1.717716625e-08
1.968282311e-08
2.044782566e-08
1.985520982e-08
1.843794652e-08
1.68069131e-08
1.554573108e-08
1.510246019e-08
1.569349305e-08
1.728237157e-08
1.960392629e-08
2.224423848e-08
2.47458341e-08
2.670261834e-08
2.78239342e-08
2.796293068e-08
2.710333549e-08
2.533180464e-08
2.280166866e-08
1.969758423e-08
1.621769312e-08
1.600721656e-08
1.626462612e-08
1.651945417e-08
1.676966945e-08
1.701323927e-08
1.724765917e-08
1.747157591e-08
1.768280875e-08
1.787989762e-08
1.806198085e-08
1.822687069e-08
1.83741658e-08
1.850495692e-08
1.861937542e-08
2.649442213e-08
4.337141011e-08
1.058825626e-06
2.79908877e-06
1.273950402e-08
1.731078407e-08
1.997037576e-08
2.088334257e-08
2.038590009e-08
1.896768382e-08
1.721385482e-08
1.571141045e-08
1.49408381e-08
1.517706734e-08
1.64480954e-08
1.854075103e-08
2.107051482e-08
2.358020108e-08
2.564106121e-08
2.692738144e-08
2.725528202e-08
2.657920665e-08
2.496692822e-08
2.256322505e-08
1.95530359e-08
1.613847024e-08
1.600640222e-08
1.626379511e-08
1.65186111e-08
1.676882824e-08
1.701238193e-08
1.72468677e-08
1.747079918e-08
1.768208584e-08
1.787924813e-08
1.80613272e-08
1.822629108e-08
1.83737141e-08
1.850457566e-08
1.861904521e-08
2.715220908e-08
4.434403136e-08
1.116219635e-06
2.893878467e-06
1.275416672e-08
1.744330771e-08
2.025246158e-08
2.131360129e-08
2.092130487e-08
1.952418111e-08
1.767929206e-08
1.596967885e-08
1.490083818e-08
1.479521157e-08
1.574344936e-08
1.75864862e-08
1.997436645e-08
2.24582067e-08
2.459335954e-08
2.602323936e-08
2.65276144e-08
2.60305862e-08
2.457846132e-08
2.230508144e-08
1.939352875e-08
1.604887632e-08
1.600559382e-08
1.626296745e-08
1.651777088e-08
1.676798728e-08
1.70115311e-08
1.72460739e-08
1.74700252e-08
1.768136437e-08
1.787859489e-08
1.806067775e-08
1.822571453e-08
1.837326037e-08
1.85041942e-08
1.861871955e-08
2.782325571e-08
4.659002455e-08
1.174974604e-06
2.990907689e-06
1.27704724e-08
1.757393738e-08
2.052804184e-08
2.173628106e-08
2.145617313e-08
2.009787501e-08
1.818915391e-08
1.630341843e-08
1.496091561e-08
1.453380829e-08
1.516034124e-08
1.673863165e-08
1.895824776e-08
2.138534449e-08
2.356604284e-08
2.511723783e-08
2.578431625e-08
2.546024665e-08
2.416784235e-08
2.202773445e-08
1.921905308e-08
1.594862228e-08
1.600479131e-08
1.626214339e-08
1.651693347e-08
1.676714721e-08
1.701068581e-08
1.724527861e-08
1.746925362e-08
1.76806441e-08
1.787793859e-08
1.806003204e-08
1.822514082e-08
1.83728049e-08
1.85038127e-08
1.861839836e-08
2.850788863e-08
8.360648148e-08
1.235122189e-06
3.090229506e-06
1.278794583e-08
1.770212072e-08
2.079646896e-08
2.214983588e-08
2.198670791e-08
2.068145705e-08
1.873232488e-08
1.669952425e-08
1.511432478e-08
1.438083262e-08
1.469004527e-08
1.599347469e-08
1.802316405e-08
2.036580512e-08
2.256464471e-08
2.421476124e-08
2.502966355e-08
2.487104276e-08
2.373665705e-08
2.173182918e-08
1.902970489e-08
1.583752938e-08
1.600399462e-08
1.626132312e-08
1.651609884e-08
1.676630851e-08
1.700984528e-08
1.724448251e-08
1.746848416e-08
1.767992486e-08
1.787727981e-08
1.805938971e-08
1.822456975e-08
1.837234798e-08
1.850343129e-08
1.861808153e-08
2.920644575e-08
1.215092044e-07
1.296695101e-06
3.191897868e-06
1.280622302e-08
1.782748789e-08
2.105737379e-08
2.255327673e-08
2.251018528e-08
2.126931289e-08
1.929972042e-08
1.714564785e-08
1.534326988e-08
1.432394031e-08
1.432362511e-08
1.534699063e-08
1.716895798e-08
1.940261734e-08
2.159383631e-08
2.332070447e-08
2.426776556e-08
2.426586095e-08
2.328660723e-08
2.141814196e-08
1.882568181e-08
1.574521013e-08
1.600320367e-08
1.626050677e-08
1.651526691e-08
1.676547154e-08
1.700900895e-08
1.724368613e-08
1.746771659e-08
1.76792065e-08
1.787661903e-08
1.805875042e-08
1.822400114e-08
1.837188985e-08
1.85030501e-08
1.861776901e-08
2.991926098e-08
1.603175779e-07
1.359726655e-06
3.295967565e-06
1.282502415e-08
1.794980255e-08
2.131058612e-08
2.294601604e-08
2.302467975e-08
2.185714635e-08
1.988402573e-08
1.763161746e-08
1.563611894e-08
1.434903713e-08
1.405200147e-08
1.479329799e-08
1.639438749e-08
1.849777803e-08
2.065747711e-08
2.24394431e-08
2.350252589e-08
2.364757376e-08
2.281948007e-08
2.108756272e-08
1.860727657e-08
1.574446298e-08
1.600241832e-08
1.625969448e-08
1.651443828e-08
1.676463661e-08
1.700817635e-08
1.724288986e-08
1.746695073e-08
1.767848891e-08
1.787595667e-08
1.805811389e-08
1.822343483e-08
1.837143072e-08
1.850266927e-08
1.861746073e-08
3.06466653e-08
2.000516131e-07
1.424250795e-06
3.402494002e-06
1.284413355e-08
1.806892616e-08
2.155607725e-08
2.332775591e-08
2.352886338e-08
2.244169192e-08
2.047939255e-08
1.814909101e-08
1.598352703e-08
1.445115871e-08
1.386731383e-08
1.432741546e-08
1.569754286e-08
1.765240975e-08
1.975867221e-08
2.157482342e-08
2.273762331e-08
2.30189972e-08
2.233711899e-08
2.074107726e-08
1.83748681e-08
1.574372116e-08
1.600163844e-08
1.625888631e-08
1.651361249e-08
1.676380391e-08
1.700734716e-08
1.724209403e-08
1.746618643e-08
1.767777201e-08
1.787529307e-08
1.805747988e-08
1.822287067e-08
1.837097081e-08
1.85022889e-08
1.861715665e-08
3.13889879e-08
2.407319372e-07
1.490302188e-06
3.511532631e-06
1.286338476e-08
1.818479164e-08
2.179391819e-08
2.369840709e-08
2.402185545e-08
2.302048378e-08
2.108113199e-08
1.869103185e-08
1.637656724e-08
1.461829516e-08
1.376137991e-08
1.394374255e-08
1.507591068e-08
1.686689211e-08
1.889984446e-08
2.073023418e-08
2.197642018e-08
2.238285887e-08
2.18413975e-08
2.037975006e-08
1.812891701e-08
1.574298396e-08
1.600086374e-08
1.625808229e-08
1.651278979e-08
1.676297361e-08
1.700652111e-08
1.724129889e-08
1.746542357e-08
1.767705575e-08
1.787462853e-08
1.805684818e-08
1.822230852e-08
1.837051029e-08
1.850190914e-08
1.903054035e-08
3.214655719e-08
2.82379764e-07
1.557916134e-06
3.623141278e-06
1.288264939e-08
1.829738407e-08
2.202424895e-08
2.405803023e-08
2.450310985e-08
2.359167888e-08
2.168549393e-08
1.925156047e-08
1.680760057e-08
1.484226553e-08
1.372674632e-08
1.363661518e-08
1.452668261e-08
1.614099433e-08
1.808280358e-08
1.990863689e-08
2.122191796e-08
2.174178936e-08
2.133419672e-08
2.000470777e-08
1.7869956e-08
1.574225058e-08
1.600009399e-08
1.625728242e-08
1.651197026e-08
1.676214584e-08
1.700569801e-08
1.724050465e-08
1.746466206e-08
1.767634007e-08
1.787396328e-08
1.80562186e-08
1.822174825e-08
1.837004933e-08
1.850153008e-08
1.955654625e-08
3.291970271e-08
3.250168882e-07
1.627128667e-06
3.737379407e-06
1.290182861e-08
1.840672642e-08
2.22472574e-08
2.440678968e-08
2.497233219e-08
2.415392105e-08
2.2289492e-08
1.982578716e-08
1.727006298e-08
1.511545699e-08
1.375330964e-08
1.340029172e-08
1.404658187e-08
1.547395711e-08
1.730880055e-08
1.911249545e-08
2.047687595e-08
2.109828663e-08
2.081738378e-08
1.961712344e-08
1.759858086e-08
1.574152012e-08
1.599932886e-08
1.625648667e-08
1.651115395e-08
1.676132068e-08
1.700487769e-08
1.723971145e-08
1.746390183e-08
1.767562494e-08
1.787329755e-08
1.805559098e-08
1.822118975e-08
1.836958807e-08
1.850115184e-08
2.009367557e-08
3.370875558e-08
3.686656757e-07
1.6979766e-06
3.854307728e-06
1.292084678e-08
1.851286905e-08
2.246316358e-08
2.47449225e-08
2.542941467e-08
2.470623467e-08
2.289076047e-08
2.040966439e-08
1.775841978e-08
1.543199644e-08
1.384018398e-08
1.322999924e-08
1.363217324e-08
1.486460273e-08
1.65785917e-08
1.83438041e-08
1.97438133e-08
2.045470816e-08
2.029279375e-08
1.921820171e-08
1.731544167e-08
1.574079161e-08
1.599856797e-08
1.625569499e-08
1.651034092e-08
1.676049823e-08
1.700406005e-08
1.723891942e-08
1.746314283e-08
1.767491034e-08
1.787263151e-08
1.805496519e-08
1.822063291e-08
1.836912665e-08
1.850077452e-08
2.064215666e-08
3.451404914e-08
4.133490581e-07
1.770497552e-06
3.97398823e-06
1.29396463e-08
1.861588132e-08
2.267220625e-08
2.507271616e-08
2.587438815e-08
2.52479406e-08
2.348743225e-08
2.099982286e-08
1.82678275e-08
1.578585403e-08
1.397839466e-08
1.315296413e-08
1.343866926e-08
1.43114344e-08
1.589251017e-08
1.760417675e-08
1.902495754e-08
1.981325861e-08
1.976221418e-08
1.880916519e-08
1.702123376e-08
1.574006402e-08
1.59978109e-08
1.625490726e-08
1.65095312e-08
1.675967852e-08
1.700324499e-08
1.723812866e-08
1.746238501e-08
1.767419625e-08
1.787196529e-08
1.80543411e-08
1.822007765e-08
1.83686652e-08
1.850039822e-08
2.120222182e-08
3.533591952e-08
4.590905309e-07
1.844729965e-06
4.096484219e-06
1.29581838e-08
1.871584563e-08
2.287463477e-08
2.539049027e-08
2.630738543e-08
2.577859063e-08
2.407804311e-08
2.159346211e-08
1.879410599e-08
1.617178424e-08
1.416258593e-08
1.313791206e-08
1.342673353e-08
1.381269071e-08
1.525052791e-08
1.689487625e-08
1.832225762e-08
1.917598384e-08
1.922737205e-08
1.839124198e-08
1.671668923e-08
1.573933625e-08
1.599705715e-08
1.625412336e-08
1.65087248e-08
1.675886161e-08
1.700243245e-08
1.723733925e-08
1.746162834e-08
1.767348266e-08
1.787129904e-08
1.80537186e-08
1.821952389e-08
1.836820383e-08
1.850002305e-08
2.177410722e-08
3.617470613e-08
5.059141567e-07
1.920713121e-06
4.221860353e-06
1.297642714e-08
1.881285293e-08
2.307070321e-08
2.569858322e-08
2.672861322e-08
2.629791654e-08
2.46614561e-08
2.218826205e-08
1.933366607e-08
1.658517456e-08
1.438768911e-08
1.312286728e-08
1.341467595e-08
1.36931842e-08
1.465231811e-08
1.621684769e-08
1.763739614e-08
1.854477099e-08
1.868992296e-08
1.796565441e-08
1.640256861e-08
1.573860714e-08
1.599630622e-08
1.625334312e-08
1.65079217e-08
1.675804746e-08
1.700162237e-08
1.723655124e-08
1.746087278e-08
1.767276958e-08
1.787063285e-08
1.805309759e-08
1.821897154e-08
1.836774264e-08
1.84996491e-08
2.235805308e-08
3.703075204e-08
5.538445663e-07
1.998487163e-06
4.350182679e-06
1.299435298e-08
1.890699917e-08
2.326066422e-08
2.599734419e-08
2.713833123e-08
2.680579016e-08
2.523680042e-08
2.278230773e-08
1.988343696e-08
1.702199863e-08
1.464935181e-08
1.310785442e-08
1.3402521e-08
1.368387592e-08
1.40973423e-08
1.557075158e-08
1.69717985e-08
1.792135588e-08
1.815144109e-08
1.753360905e-08
1.607965298e-08
1.57378755e-08
1.599555752e-08
1.625256634e-08
1.650712187e-08
1.675723607e-08
1.700081471e-08
1.723576467e-08
1.746011832e-08
1.767205701e-08
1.786996682e-08
1.805247799e-08
1.821842055e-08
1.836728173e-08
1.849927646e-08
2.295430365e-08
3.790440437e-08
6.029069648e-07
2.078093112e-06
4.481518667e-06
1.301194494e-08
1.899838295e-08
2.344476709e-08
2.628712489e-08
2.753683572e-08
2.730219192e-08
2.580342162e-08
2.337402353e-08
2.04407891e-08
1.747870505e-08
1.494356008e-08
1.31942092e-08
1.33902912e-08
1.367440994e-08
1.394658298e-08
1.495698903e-08
1.632666708e-08
1.730730881e-08
1.761340689e-08
1.709628799e-08
1.574873665e-08
1.573714011e-08
1.599481045e-08
1.625179281e-08
1.65063253e-08
1.67564278e-08
1.700000944e-08
1.72349796e-08
1.745936494e-08
1.767134496e-08
1.786930102e-08
1.805185972e-08
1.821787085e-08
1.83668212e-08
1.849890523e-08
2.356310742e-08
3.879601455e-08
6.531271364e-07
2.159572887e-06
4.615937246e-06
1.302919226e-08
1.908710378e-08
2.362325565e-08
2.656827436e-08
2.792444709e-08
2.778718587e-08
2.636084061e-08
2.396211719e-08
2.100346749e-08
1.795213991e-08
1.526653494e-08
1.33202669e-08
1.337800686e-08
1.366480471e-08
1.393948527e-08
1.437575513e-08
1.570304453e-08
1.670397175e-08
1.707721644e-08
1.6654843e-08
1.547940036e-08
1.57363997e-08
1.599406436e-08
1.625102226e-08
1.650553191e-08
1.675562221e-08
1.699920655e-08
1.723419605e-08
1.745861263e-08
1.767063343e-08
1.786863551e-08
1.805124271e-08
1.82173224e-08
1.836636112e-08
1.84985355e-08
2.418471716e-08
3.970593869e-08
7.045314507e-07
2.242969322e-06
4.753508838e-06
1.304608853e-08
1.917326074e-08
2.379636654e-08
2.684113559e-08
2.83015005e-08
2.826090001e-08
2.69087206e-08
2.454553396e-08
2.15695407e-08
1.843951691e-08
1.561487415e-08
1.348177831e-08
1.336568687e-08
1.365507776e-08
1.393222129e-08
1.419922041e-08
1.510177041e-08
1.611253609e-08
1.654417351e-08
1.621038833e-08
1.547858627e-08
1.573565298e-08
1.599331856e-08
1.625025439e-08
1.650474161e-08
1.675481943e-08
1.699840599e-08
1.723341405e-08
1.745786138e-08
1.766992244e-08
1.786797034e-08
1.805062691e-08
1.821677514e-08
1.836590158e-08
1.849816736e-08
2.481939016e-08
4.063453789e-08
7.57146872e-07
2.32832619e-06
4.8943054e-06
1.306263081e-08
1.925695144e-08
2.39643281e-08
2.710604299e-08
2.86683388e-08
2.872351075e-08
2.74468402e-08
2.51234189e-08
2.213735839e-08
1.893838295e-08
1.59855138e-08
1.367544771e-08
1.335334847e-08
1.364524544e-08
1.39248041e-08
1.419392821e-08
1.452347302e-08
1.553409189e-08
1.601548927e-08
1.576399202e-08
1.54777505e-08
1.573489867e-08
1.599257234e-08
1.624948889e-08
1.65039543e-08
1.675401944e-08
1.699760775e-08
1.72326336e-08
1.745711119e-08
1.7669212e-08
1.786730557e-08
1.805001225e-08
1.821622904e-08
1.836544266e-08
1.84978009e-08
2.546738842e-08
4.158217871e-08
8.110009679e-07
2.415688217e-06
5.038400454e-06
1.307881893e-08
1.933827131e-08
2.412735984e-08
2.736332075e-08
2.902530716e-08
2.917523062e-08
2.797507157e-08
2.56950854e-08
2.270551465e-08
1.944658623e-08
1.637570996e-08
1.389816125e-08
1.334100075e-08
1.363532241e-08
1.391724625e-08
1.418848019e-08
1.445163849e-08
1.496960312e-08
1.549228366e-08
1.531667683e-08
1.54768912e-08
1.573413548e-08
1.599182494e-08
1.624872541e-08
1.650316984e-08
1.675322219e-08
1.69968118e-08
1.723185473e-08
1.745636204e-08
1.766850212e-08
1.786664122e-08
1.804939869e-08
1.821568405e-08
1.836498441e-08
1.849743621e-08
2.612897901e-08
4.254923388e-08
8.661219198e-07
2.505101109e-06
5.185869129e-06
1.309465482e-08
1.941731306e-08
2.4285672e-08
2.761328168e-08
2.937274921e-08
2.961629848e-08
2.849336247e-08
2.625998837e-08
2.327281505e-08
1.996224544e-08
1.678305912e-08
1.414763391e-08
1.332866598e-08
1.362532348e-08
1.390955973e-08
1.418288464e-08
1.444777038e-08
1.470711289e-08
1.497558489e-08
1.521954076e-08
1.547600659e-08
1.573336214e-08
1.599107562e-08
1.624796358e-08
1.65023881e-08
1.675242765e-08
1.699601812e-08
1.723107744e-08
1.745561395e-08
1.766779281e-08
1.786597734e-08
1.804878619e-08
1.821514016e-08
1.836452692e-08
1.849707338e-08
2.680443451e-08
4.353608356e-08
9.225385404e-07
2.596611568e-06
5.336788198e-06
1.31101421e-08
1.94941664e-08
2.443946549e-08
2.785622638e-08
2.971100422e-08
3.004697166e-08
2.900172132e-08
2.681770107e-08
2.383824502e-08
2.048370202e-08
1.720534234e-08
1.442118946e-08
1.331635253e-08
1.361526193e-08
1.390175644e-08
1.417714985e-08
1.444376808e-08
1.470443253e-08
1.49618898e-08
1.521833188e-08
1.547509498e-08
1.573257737e-08
1.599032358e-08
1.624720301e-08
1.650160891e-08
1.675163575e-08
1.699522668e-08
1.723030174e-08
1.745486691e-08
1.766708408e-08
1.786531394e-08
1.80481747e-08
1.821459733e-08
1.836407024e-08
1.84967125e-08
2.749403367e-08
4.454311782e-08
9.80280294e-07
2.690267323e-06
5.491236118e-06
1.312528568e-08
1.956891783e-08
2.458893188e-08
2.809244229e-08
3.004040558e-08
3.046751976e-08
2.950020503e-08
2.73678958e-08
2.440094429e-08
2.100949436e-08
1.7640549e-08
1.471643561e-08
1.330407125e-08
1.36051502e-08
1.389384738e-08
1.417128399e-08
1.443963621e-08
1.470164269e-08
1.496004031e-08
1.521707108e-08
1.547415477e-08
1.573177992e-08
1.598956804e-08
1.624644327e-08
1.65008321e-08
1.675084643e-08
1.699443746e-08
1.722952762e-08
1.745412091e-08
1.766637594e-08
1.786465104e-08
1.804756418e-08
1.821405554e-08
1.836361444e-08
1.849635367e-08
2.819806218e-08
4.557074132e-08
1.039377332e-06
2.786117157e-06
5.649293071e-06
1.314009147e-08
1.964165062e-08
2.473425409e-08
2.832220614e-08
3.036127524e-08
3.087822051e-08
2.998890911e-08
2.791032785e-08
2.496018591e-08
2.153833734e-08
1.808686976e-08
1.503120579e-08
1.329183193e-08
1.359499986e-08
1.388584312e-08
1.416529508e-08
1.443537954e-08
1.469874519e-08
1.495810985e-08
1.521575705e-08
1.547318447e-08
1.573096857e-08
1.598880818e-08
1.624568393e-08
1.650005746e-08
1.67500596e-08
1.699365042e-08
1.72287551e-08
1.745337597e-08
1.766566841e-08
1.786398865e-08
1.804695461e-08
1.821351476e-08
1.836315957e-08
1.849599698e-08
2.891681313e-08
4.661938262e-08
1.099860538e-06
2.884210943e-06
5.811041017e-06
1.315456614e-08
1.971244473e-08
2.487560629e-08
2.854578241e-08
3.067392592e-08
3.127935489e-08
3.046795942e-08
2.844482222e-08
2.551535873e-08
2.206910389e-08
1.854268054e-08
1.536351915e-08
1.327964319e-08
1.35848218e-08
1.387775355e-08
1.415919094e-08
1.443100292e-08
1.469574204e-08
1.49560984e-08
1.521438867e-08
1.547218265e-08
1.57301421e-08
1.598804319e-08
1.624492453e-08
1.649928479e-08
1.674927519e-08
1.699286553e-08
1.722798416e-08
1.745263205e-08
1.766496152e-08
1.78633268e-08
1.804634595e-08
1.821297499e-08
1.83627057e-08
1.849564251e-08
2.965058552e-08
4.768951247e-08
1.161761607e-06
2.984599692e-06
5.976563725e-06
1.316871691e-08
1.978137675e-08
2.501315412e-08
2.876342305e-08
3.097866065e-08
3.167120455e-08
3.093750554e-08
2.897126243e-08
2.60659521e-08
2.260080808e-08
1.90065278e-08
1.571157224e-08
1.326751222e-08
1.357462087e-08
1.386958759e-08
1.415297911e-08
1.442651127e-08
1.469263548e-08
1.495400612e-08
1.521296497e-08
1.5471148e-08
1.572929936e-08
1.598727226e-08
1.624416461e-08
1.649851385e-08
1.674849309e-08
1.699208276e-08
1.722721479e-08
1.745188918e-08
1.766425526e-08
1.786266549e-08
1.804573817e-08
1.821243621e-08
1.836225287e-08
1.849529036e-08
3.039967599e-08
6.406777351e-08
1.225113154e-06
3.08733561e-06
6.145946829e-06
1.318255137e-08
1.984851996e-08
2.514705499e-08
2.897536821e-08
3.127577193e-08
3.205404962e-08
3.139771535e-08
2.948958105e-08
2.661154247e-08
2.313258908e-08
1.947711447e-08
1.607376494e-08
1.329161762e-08
1.356441264e-08
1.386135473e-08
1.4146667e-08
1.44219095e-08
1.468942788e-08
1.495183341e-08
1.521148514e-08
1.547007929e-08
1.572843921e-08
1.598649457e-08
1.624340368e-08
1.64977444e-08
1.674771321e-08
1.699130205e-08
1.7226447e-08
1.745114734e-08
1.766354965e-08
1.786200474e-08
1.804513126e-08
1.821189839e-08
1.836180114e-08
1.852294775e-08
3.11643848e-08
1.046489586e-07
1.289948847e-06
3.192472143e-06
6.319277865e-06
1.319607735e-08
1.991394436e-08
2.527745847e-08
2.918184678e-08
3.156554126e-08
3.242816685e-08
3.184877058e-08
2.999975157e-08
2.715178118e-08
2.366369481e-08
1.99532729e-08
1.644859467e-08
1.352592514e-08
1.355420221e-08
1.38530634e-08
1.414026166e-08
1.441720255e-08
1.468612178e-08
1.494958085e-08
1.520994854e-08
1.54689754e-08
1.572756056e-08
1.598570932e-08
1.624264125e-08
1.649697619e-08
1.674693541e-08
1.699052336e-08
1.722568075e-08
1.745040652e-08
1.76628447e-08
1.786134454e-08
1.804452517e-08
1.821136154e-08
1.836135056e-08
1.906399427e-08
3.194502962e-08
1.46194214e-07
1.356303246e-06
3.300063985e-06
6.496646302e-06
1.320930284e-08
1.997771682e-08
2.540450673e-08
2.938307726e-08
3.184823871e-08
3.279382834e-08
3.229086304e-08
3.050178144e-08
2.768638407e-08
2.419346845e-08
2.043395159e-08
1.683466895e-08
1.377801908e-08
1.354399706e-08
1.384472155e-08
1.413377014e-08
1.441239533e-08
1.468271981e-08
1.494724919e-08
1.520835469e-08
1.546783531e-08
1.572666237e-08
1.59849157e-08
1.62418768e-08
1.649620895e-08
1.674615958e-08
1.698974665e-08
1.722491605e-08
1.744966673e-08
1.766214041e-08
1.786068491e-08
1.804391989e-08
1.821082565e-08
1.836090118e-08
1.961652574e-08
3.274193117e-08
1.88724297e-07
1.42421147e-06
3.410167073e-06
6.678143578e-06
1.322223587e-08
2.003990106e-08
2.552833455e-08
2.95792665e-08
3.212412474e-08
3.315130067e-08
3.272419169e-08
3.09957063e-08
2.821512253e-08
2.47213373e-08
2.091820493e-08
1.723071357e-08
1.4046427e-08
1.353380402e-08
1.383633672e-08
1.412719891e-08
1.44074927e-08
1.467922474e-08
1.494483932e-08
1.520670323e-08
1.546665809e-08
1.572574365e-08
1.598411293e-08
1.624110984e-08
1.64954424e-08
1.674538558e-08
1.698897184e-08
1.722415285e-08
1.744892798e-08
1.766143677e-08
1.786002585e-08
1.804331541e-08
1.82102907e-08
1.836045304e-08
2.018077018e-08
3.355541226e-08
2.322605963e-07
1.493709258e-06
3.522838571e-06
6.863863145e-06
1.323488447e-08
2.010055784e-08
2.564906988e-08
2.977061129e-08
3.239344922e-08
3.350084406e-08
3.31489601e-08
3.148158499e-08
2.873781599e-08
2.524680337e-08
2.140518424e-08
1.763556381e-08
1.432978254e-08
1.352362932e-08
1.382791611e-08
1.412055438e-08
1.440249943e-08
1.46756394e-08
1.494235226e-08
1.520499396e-08
1.54654429e-08
1.572480343e-08
1.598330022e-08
1.624033984e-08
1.649467624e-08
1.674461327e-08
1.698819889e-08
1.72233911e-08
1.744819029e-08
1.766073381e-08
1.785936736e-08
1.80427117e-08
1.820975669e-08
1.83600062e-08
2.075696005e-08
3.438579834e-08
2.768251204e-07
1.564833035e-06
3.638136891e-06
7.053900506e-06
1.324725659e-08
2.015974512e-08
2.576683436e-08
2.995729925e-08
3.265645128e-08
3.38427117e-08
3.35653744e-08
3.19594955e-08
2.925432543e-08
2.576943505e-08
2.189412901e-08
1.804815623e-08
1.462681569e-08
1.351347846e-08
1.381946524e-08
1.41138426e-08
1.43974202e-08
1.467196669e-08
1.493978917e-08
1.520322679e-08
1.5464189e-08
1.572384083e-08
1.598247681e-08
1.623956628e-08
1.649391017e-08
1.674384249e-08
1.698742769e-08
1.722263079e-08
1.744745364e-08
1.766003152e-08
1.785870944e-08
1.804210875e-08
1.820922361e-08
1.835956068e-08