/*--------------------------------*- C++ -*----------------------------------*\
| =========                 |                                                 |
| \\      /  F ield         | OpenFOAM: The Open Source CFD Toolbox           |
|  \\    /   O peration     | Version:  v2006                                 |
|   \\  /    A nd           | Website:  www.openfoam.com                      |
|    \\/     M anipulation  |                                                 |
\*---------------------------------------------------------------------------*/
FoamFile
{
    version     2.0;
    format      ascii;
    class       volScalarField;
    location    "0.09";
    object      CH2(S);
}
// * * * * * * * * * * * * * * * * * * * * * * * * * * * * * * * * * * * * * //

dimensions      [0 0 0 0 0 0 0];


internalField   nonuniform List<scalar> 
168000
(
4.468631654e-20
9.006465421e-20
1.332017274e-19
1.822935336e-19
2.311221137e-19
2.747272364e-19
3.198875328e-19
3.651198852e-19
3.9625363e-19
4.210442172e-19
4.424549292e-19
4.497303008e-19
4.460253531e-19
4.373416156e-19
4.12752541e-19
3.794259489e-19
3.392025027e-19
2.857679595e-19
2.268332321e-19
1.604341981e-19
8.829691735e-20
1.434343278e-20
5.020601565e-22
5.101845387e-22
5.183022881e-22
5.261532674e-22
5.339935402e-22
5.412678395e-22
5.484319591e-22
5.550869639e-22
5.612556641e-22
5.670847346e-22
5.722640807e-22
5.768520453e-22
5.809764476e-22
5.845985875e-22
5.437552775e-21
2.598193673e-19
1.291483687e-15
5.788964273e-15
4.708658264e-20
9.145349145e-20
1.165573962e-19
1.441614346e-19
1.779756314e-19
2.16658398e-19
2.607683641e-19
3.071006584e-19
3.474842251e-19
3.819683894e-19
4.100736546e-19
4.260897707e-19
4.302509126e-19
4.248551585e-19
4.055183379e-19
3.752483494e-19
3.356374093e-19
2.847980213e-19
2.257709516e-19
1.602890352e-19
8.839040264e-20
1.449073897e-20
5.020277184e-22
5.101628562e-22
5.182665792e-22
5.26139706e-22
5.339479643e-22
5.412559816e-22
5.484011383e-22
5.550616675e-22
5.612420956e-22
5.670587821e-22
5.722437244e-22
5.768401782e-22
5.80964909e-22
5.845856569e-22
1.541424838e-20
2.740205245e-19
1.433947149e-15
6.027568915e-15
4.4507017e-20
9.092278665e-20
1.084528669e-19
1.216873127e-19
1.414799838e-19
1.708946683e-19
2.098913268e-19
2.550315998e-19
3.00008135e-19
3.413617128e-19
3.761722967e-19
4.000024909e-19
4.114520435e-19
4.108943252e-19
3.964824375e-19
3.696118452e-19
3.317084165e-19
2.828263865e-19
2.246235467e-19
1.598061843e-19
8.840403391e-20
1.457171819e-20
5.019969934e-22
5.101393917e-22
5.182334437e-22
5.261225124e-22
5.339066722e-22
5.412409545e-22
5.483716934e-22
5.550367633e-22
5.612272654e-22
5.670337116e-22
5.722235569e-22
5.768279568e-22
5.809533003e-22
5.845729832e-22
2.552239559e-20
2.885351321e-19
1.579971267e-15
6.271561245e-15
4.266095267e-20
9.053935812e-20
1.055151444e-19
1.098045663e-19
1.178618443e-19
1.366934933e-19
1.680254826e-19
2.093905712e-19
2.553985386e-19
3.009543287e-19
3.414084187e-19
3.720855089e-19
3.903409774e-19
3.952674531e-19
3.857983431e-19
3.626418175e-19
3.271192994e-19
2.801783713e-19
2.231985443e-19
1.590737865e-19
8.830166717e-20
1.459427133e-20
5.019674534e-22
5.101147268e-22
5.182021414e-22
5.261026345e-22
5.338686802e-22
5.412234812e-22
5.483433202e-22
5.550122038e-22
5.612113753e-22
5.670093855e-22
5.722035791e-22
5.768154203e-22
5.809416251e-22
5.845605501e-22
3.577798093e-20
3.033641226e-19
1.729609658e-15
6.52112902e-15
4.172126843e-20
9.093722652e-20
1.058064941e-19
1.049666082e-19
1.039135566e-19
1.125106625e-19
1.349437214e-19
1.704501042e-19
2.146909385e-19
2.619956558e-19
3.065667862e-19
3.429833197e-19
3.674701156e-19
3.780407417e-19
3.735924612e-19
3.544196696e-19
3.217335821e-19
2.76895117e-19
2.214004666e-19
1.580987347e-19
8.802176279e-20
1.455692367e-20
5.019387468e-22
5.100892655e-22
5.181721419e-22
5.260807809e-22
5.338332343e-22
5.412041221e-22
5.483157842e-22
5.549879442e-22
5.611945951e-22
5.669856895e-22
5.721837884e-22
5.768026042e-22
5.809298877e-22
5.845483432e-22
4.61948423e-20
3.185095514e-19
1.882922849e-15
6.776453621e-15
4.135442178e-20
9.211007448e-20
1.08165309e-19
1.047835767e-19
9.706554935e-20
9.658728336e-20
1.098482388e-19
1.381406189e-19
1.78486598e-19
2.253766174e-19
2.723922583e-19
3.1332031e-19
3.433274901e-19
3.594036841e-19
3.599985245e-19
3.450127473e-19
3.154948171e-19
2.729808045e-19
2.191780181e-19
1.568622172e-19
8.75616367e-20
1.443344703e-20
5.01910639e-22
5.10063287e-22
5.181430673e-22
5.260574803e-22
5.337997566e-22
5.411833107e-22
5.482889048e-22
5.549639431e-22
5.61177068e-22
5.669625287e-22
5.721641793e-22
5.767895401e-22
5.809180928e-22
5.845363495e-22
5.678510474e-20
3.339743991e-19
2.039977388e-15
7.037711724e-15
4.135209668e-20
9.387258275e-20
1.118308458e-19
1.076304303e-19
9.534697899e-20
8.725671438e-20
9.1734873e-20
1.121260273e-19
1.470426561e-19
1.916972188e-19
2.39518491e-19
2.836687615e-19
3.183644348e-19
3.396045967e-19
3.451667969e-19
3.344931381e-19
3.083899479e-19
2.684270887e-19
2.165016396e-19
1.553501534e-19
8.690789013e-20
1.421549897e-20
5.018829756e-22
5.100369841e-22
5.181146499e-22
5.260331265e-22
5.337678046e-22
5.411613825e-22
5.48262543e-22
5.549401629e-22
5.611589147e-22
5.669398242e-22
5.721447445e-22
5.767762564e-22
5.809062453e-22
5.845245574e-22
6.755953053e-20
3.497624143e-19
2.200845153e-15
7.305076711e-15
4.159336955e-20
9.604693675e-20
1.163204319e-19
1.124890687e-19
9.724528585e-20
8.307003414e-20
7.953484519e-20
9.185029306e-20
1.203514152e-19
1.613179027e-19
2.084437365e-19
2.545298195e-19
2.930001647e-19
3.189132071e-19
3.292637137e-19
3.229444484e-19
3.004325369e-19
2.632271637e-19
2.133525667e-19
1.535381596e-19
8.604824207e-20
1.388861708e-20
5.018556531e-22
5.100104901e-22
5.180867017e-22
5.260080129e-22
5.337370394e-22
5.411385975e-22
5.482365917e-22
5.5491657e-22
5.61140237e-22
5.669175104e-22
5.721254756e-22
5.767627788e-22
5.808943506e-22
5.845129567e-22
7.852780094e-20
3.658779859e-19
2.365602768e-15
7.578719865e-15
4.199928544e-20
9.849005146e-20
1.213061754e-19
1.186306716e-19
1.017644242e-19
8.285132802e-20
7.224008786e-20
7.669717221e-20
9.82343941e-20
1.344080175e-19
1.79530452e-19
2.263232417e-19
2.676136228e-19
2.976043944e-19
3.124671863e-19
3.104626592e-19
2.916546e-19
2.573812753e-19
2.09719362e-19
1.514069292e-19
8.497135481e-20
1.343936976e-20
5.018286151e-22
5.099838975e-22
5.18059092e-22
5.259823571e-22
5.337072014e-22
5.411151571e-22
5.482109679e-22
5.548931352e-22
5.611211206e-22
5.668955324e-22
5.721063634e-22
5.767491302e-22
5.808824138e-22
5.845015384e-22
8.969874428e-20
3.823260459e-19
2.534331123e-15
7.858811363e-15
4.25153616e-20
1.010954868e-19
1.265669895e-19
1.255689266e-19
1.080611083e-19
8.556453004e-20
6.894221301e-20
6.601218566e-20
8.037491463e-20
1.10986472e-19
1.53016868e-19
1.993851254e-19
2.425389146e-19
2.759446295e-19
2.949610561e-19
2.971542306e-19
2.821020497e-19
2.508984127e-19
2.055964922e-19
1.489402934e-19
8.366153179e-20
1.285472528e-20
5.018018288e-22
5.099572715e-22
5.180317306e-22
5.259563209e-22
5.336780916e-22
5.410912177e-22
5.481856074e-22
5.548698331e-22
5.611016376e-22
5.668738444e-22
5.720873987e-22
5.767353312e-22
5.808704405e-22
5.844902944e-22
1.010805205e-19
3.991119942e-19
2.707115001e-15
8.145521106e-15
4.310341462e-20
1.037868885e-19
1.319542494e-19
1.329780895e-19
1.155882402e-19
9.058876294e-20
6.888627505e-20
5.916649876e-20
6.641047392e-20
9.09647397e-20
1.290352047e-19
1.739713469e-19
2.180626996e-19
2.541832566e-19
2.76928962e-19
2.831331706e-19
2.718316254e-19
2.437963212e-19
2.009838829e-19
1.461265113e-19
8.211433246e-20
1.212272019e-20
5.017752525e-22
5.099306564e-22
5.180045566e-22
5.259300243e-22
5.336495574e-22
5.410669004e-22
5.481604604e-22
5.548466423e-22
5.610818487e-22
5.668524079e-22
5.720685721e-22
5.767214002e-22
5.808584359e-22
5.844792177e-22
1.126807711e-19
4.162416484e-19
2.884042779e-15
8.43901943e-15
4.373657695e-20
1.065103407e-19
1.373672106e-19
1.406326384e-19
1.239261988e-19
9.725843564e-20
7.134108251e-20
5.557208118e-20
5.594525153e-20
7.419245207e-20
1.07631802e-19
1.502644886e-19
1.9442342e-19
2.325490172e-19
2.585468115e-19
2.685183066e-19
2.609084567e-19
2.361007781e-19
1.958866235e-19
1.429574184e-19
8.031822688e-20
1.123307173e-20
5.017488791e-22
5.099040823e-22
5.179775291e-22
5.259035564e-22
5.33621482e-22
5.410422996e-22
5.48135488e-22
5.548235443e-22
5.610618051e-22
5.668311906e-22
5.720498744e-22
5.767073539e-22
5.808464053e-22
5.844683023e-22
1.245067463e-19
4.3372122e-19
3.065206215e-15
8.739477712e-15
4.439588486e-20
1.09228242e-19
1.427380088e-19
1.483780811e-19
1.32777639e-19
1.051449854e-19
7.58898984e-20
5.472569212e-20
4.858086953e-20
6.043978355e-20
8.878161813e-20
1.283823286e-19
1.718121939e-19
2.112426987e-19
2.399837072e-19
2.534299434e-19
2.494038358e-19
2.278445472e-19
1.903147188e-19
1.394286556e-19
7.826562364e-20
1.017675516e-20
5.017227004e-22
5.09877568e-22
5.179506214e-22
5.258769833e-22
5.335937755e-22
5.410174887e-22
5.481106599e-22
5.548005238e-22
5.610415499e-22
5.668101653e-22
5.72031297e-22
5.76693207e-22
5.808343539e-22
5.844575428e-22
1.365654115e-19
4.515573341e-19
3.250700304e-15
9.047068896e-15
4.506792894e-20
1.119147412e-19
1.480213838e-19
1.561082457e-19
1.419254637e-19
1.138962616e-19
8.201301504e-20
5.61004675e-20
4.393178046e-20
4.947946307e-20
7.241089905e-20
1.083882747e-19
1.503760198e-19
1.904376754e-19
2.213968902e-19
2.3798726e-19
2.37393152e-19
2.190662121e-19
1.842827633e-19
1.355395109e-19
7.595057589e-20
8.944649136e-21
5.01696714e-22
5.098511561e-22
5.179238189e-22
5.258503541e-22
5.335663689e-22
5.409925246e-22
5.480859522e-22
5.547775683e-22
5.610211195e-22
5.66789309e-22
5.720128316e-22
5.76678973e-22
5.808222868e-22
5.844469347e-22
1.488635377e-19
4.6975712e-19
3.440623219e-15
9.361967943e-15
4.574321852e-20
1.145523503e-19
1.531878243e-19
1.637507531e-19
1.51212864e-19
1.232478352e-19
8.937061363e-20
5.941222977e-20
4.165841373e-20
4.106596774e-20
5.841837545e-20
9.03014812e-20
1.302220162e-19
1.702800894e-19
2.029292159e-19
2.223062621e-19
2.249539209e-19
2.098089891e-19
1.778095305e-19
1.312927299e-19
7.336906073e-20
7.529978443e-21
5.016709168e-22
5.098248305e-22
5.178971113e-22
5.258237055e-22
5.335392094e-22
5.409674519e-22
5.480613463e-22
5.547546671e-22
5.610005444e-22
5.667686021e-22
5.719944702e-22
5.766646637e-22
5.808102089e-22
5.844364741e-22
1.614077665e-19
4.883284313e-19
3.635076338e-15
9.684352251e-15
4.641505547e-20
1.171295637e-19
1.582187997e-19
1.712568915e-19
1.605264586e-19
1.329958609e-19
9.766799829e-20
6.425840545e-20
4.143630291e-20
3.494906035e-20
4.665770069e-20
7.410319316e-20
1.114219575e-19
1.508898954e-19
1.847094954e-19
2.06495981e-19
2.121643038e-19
2.001196035e-19
1.709174952e-19
1.266942839e-19
7.051908279e-20
5.928204492e-21
5.016453076e-22
5.097986112e-22
5.178704942e-22
5.257970648e-22
5.335122562e-22
5.409423051e-22
5.480368275e-22
5.547318118e-22
5.609798505e-22
5.667480282e-22
5.719762056e-22
5.766502899e-22
5.807981249e-22
5.844261577e-22
1.742046092e-19
4.858711234e-18
3.834164429e-15
1.001440203e-14
4.707874705e-20
1.196391527e-19
1.631034635e-19
1.785946754e-19
1.69784778e-19
1.429846438e-19
1.066702325e-19
7.034856223e-20
4.289699567e-20
3.088405528e-20
3.698698846e-20
5.974846755e-20
9.401755081e-20
1.323624775e-19
1.668518779e-19
1.906570973e-19
1.991017611e-19
1.900472277e-19
1.636323054e-19
1.217530895e-19
6.740049488e-20
4.134125174e-21
5.016198848e-22
5.09772506e-22
5.178439657e-22
5.257704523e-22
5.334854782e-22
5.409171113e-22
5.480123847e-22
5.547089946e-22
5.609590597e-22
5.66727573e-22
5.71958031e-22
5.766358613e-22
5.807860394e-22
5.844159825e-22
1.872602929e-19
1.298682411e-16
4.037995986e-15
1.035230064e-14
4.773104547e-20
1.220769189e-19
1.678363733e-19
1.85744003e-19
1.789299126e-19
1.530960925e-19
1.161925118e-19
7.746071648e-20
4.592243517e-20
2.866241163e-20
2.925371471e-20
4.717143552e-20
7.802529419e-20
1.14770463e-19
1.494530725e-19
1.748842074e-19
1.858417676e-19
1.796424915e-19
1.559822307e-19
1.164807181e-19
6.40150493e-20
2.144530267e-21
5.015946467e-22
5.097465207e-22
5.178175257e-22
5.257438834e-22
5.334588513e-22
5.408918918e-22
5.479880091e-22
5.546862098e-22
5.609381902e-22
5.667072247e-22
5.719399402e-22
5.766213865e-22
5.807739567e-22
5.844059459e-22
2.005812619e-19
2.578844995e-16
4.246683218e-15
1.069823457e-14
4.836975658e-20
1.24440841e-19
1.724158301e-19
1.926931938e-19
1.879212055e-19
1.632402407e-19
1.26084474e-19
8.538654212e-20
5.020941143e-20
2.807083847e-20
2.330202783e-20
3.630084532e-20
6.344146675e-20
9.816618177e-20
1.325946706e-19
1.592632996e-19
1.724568556e-19
1.689565846e-19
1.479976053e-19
1.108910876e-19
6.036632412e-20
4.933966486e-22
5.015695902e-22
5.097206597e-22
5.177911711e-22
5.257173693e-22
5.334323571e-22
5.408666631e-22
5.479636934e-22
5.546634529e-22
5.609172575e-22
5.666869727e-22
5.719219275e-22
5.766068734e-22
5.807618811e-22
5.843960455e-22
2.14173884e-19
3.889736502e-16
4.460340444e-15
1.105239335e-14
4.899345397e-20
1.267304338e-19
1.768427257e-19
1.994365379e-19
1.967307352e-19
1.733489006e-19
1.36225632e-19
9.39549335e-20
5.555943916e-20
2.886715043e-20
1.897395355e-20
2.703358135e-20
5.024351527e-20
8.258393912e-20
1.163440315e-19
1.438712271e-19
1.590159256e-19
1.580404503e-19
1.397102819e-19
1.050001475e-19
5.64596057e-20
4.933729795e-22
5.015447113e-22
5.096949273e-22
5.177649212e-22
5.256909195e-22
5.334059814e-22
5.408414382e-22
5.479394318e-22
5.546407206e-22
5.608962747e-22
5.666668082e-22
5.719039875e-22
5.765923289e-22
5.807498167e-22
5.843862796e-22
2.280444707e-19
5.232039997e-16
4.679084181e-15
1.141496872e-14
4.960127108e-20
1.28946287e-19
1.811197201e-19
2.059725512e-19
2.05340028e-19
1.833708283e-19
1.465201619e-19
1.030259906e-19
6.181322161e-20
3.096425256e-20
1.613259865e-20
1.928206528e-20
3.839729172e-20
6.804276679e-20
1.00755285e-19
1.287755332e-19
1.45583905e-19
1.469440295e-19
1.31153114e-19
9.882556037e-20
5.230172936e-20
4.933494796e-22
5.015200055e-22
5.096693253e-22
5.17738761e-22
5.256645406e-22
5.333797136e-22
5.408162273e-22
5.479152196e-22
5.546180102e-22
5.608752526e-22
5.666467234e-22
5.718861155e-22
5.765777595e-22
5.807377671e-22
5.843766468e-22
2.421992994e-19
6.606459626e-16
4.90303346e-15
1.178615276e-14
5.019274946e-20
1.310897329e-19
1.852506525e-19
2.123027225e-19
2.137376117e-19
1.932678582e-19
1.568916764e-19
1.124820953e-19
6.881908757e-20
3.415634424e-20
1.463591931e-20
1.294819174e-20
2.785819214e-20
5.454872119e-20
8.587059293e-20
1.140357035e-19
1.322201364e-19
1.357156955e-19
1.223594899e-19
9.238639632e-20
4.790099811e-20
4.933261261e-22
5.014954641e-22
5.096438549e-22
5.177126987e-22
5.256382377e-22
5.333535453e-22
5.407910383e-22
5.478910531e-22
5.545953197e-22
5.608542006e-22
5.666267118e-22
5.718683071e-22
5.765631708e-22
5.807257365e-22
8.457065006e-21
2.566446328e-19
8.013719643e-16
5.132309536e-15
1.216614577e-14
5.07677279e-20
1.331626047e-19
1.892401151e-19
2.184306158e-19
2.219171958e-19
2.030119537e-19
1.67279471e-19
1.222253107e-19
7.644752779e-20
3.830293454e-20
1.435460511e-20
7.932898561e-21
1.857651344e-20
4.209720038e-20
7.172136051e-20
9.9703695e-20
1.189775937e-19
1.244020999e-19
1.133629328e-19
8.570283663e-20
4.326700951e-20
4.933028933e-22
5.014710793e-22
5.09618516e-22
5.176867369e-22
5.256120147e-22
5.333274702e-22
5.407658776e-22
5.478669294e-22
5.545726479e-22
5.608331264e-22
5.666067675e-22
5.718505583e-22
5.76548568e-22
5.807137284e-22
1.847286006e-20
2.713867551e-19
9.454564252e-16
5.367036213e-15
1.255515383e-14
5.132626069e-20
1.351670663e-19
1.93093168e-19
2.243611686e-19
2.298763386e-19
2.125829507e-19
1.776355547e-19
1.321744883e-19
8.458751306e-20
4.327358166e-20
1.511467261e-20
4.13595732e-21
1.049448471e-20
3.067438318e-20
5.832919128e-20
8.582270738e-20
1.059049684e-19
1.130475418e-19
1.041967157e-19
7.87958919e-20
3.841049546e-20
4.932797532e-22
5.014468408e-22
5.095933077e-22
5.176608773e-22
5.255858748e-22
5.333014835e-22
5.4074075e-22
5.478428462e-22
5.545499934e-22
5.608120368e-22
5.665868853e-22
5.718328656e-22
5.765339558e-22
5.807017461e-22
2.870015505e-20
2.864319805e-19
1.092975729e-15
5.607340024e-15
1.295338742e-14
5.186855839e-20
1.371054866e-19
1.968151342e-19
2.301002301e-19
2.37615408e-19
2.219667994e-19
1.879222302e-19
1.422627236e-19
9.314563663e-20
4.896761302e-20
1.689910926e-20
1.473860448e-21
3.551630068e-21
2.025915312e-20
4.570701303e-20
7.242767445e-20
9.304670202e-20
1.016938277e-19
9.489354041e-20
7.168713747e-20
3.334316216e-20
4.932566749e-22
5.014227367e-22
5.095682279e-22
5.176351214e-22
5.255598202e-22
5.332755816e-22
5.407156595e-22
5.47818802e-22
5.545273556e-22
5.607909372e-22
5.665670609e-22
5.718152258e-22
5.765193386e-22
5.806897931e-22
3.91432946e-20
3.017866661e-19
1.244008205e-15
5.853350309e-15
1.336106162e-14
5.239494017e-20
1.389803433e-19
2.004114197e-19
2.356542356e-19
2.451368216e-19
2.311541797e-19
1.981100378e-19
1.524345595e-19
1.020403658e-19
5.528202478e-20
1.955365074e-20
4.112772444e-22
4.203280578e-22
1.082483749e-20
3.386033095e-20
5.954682967e-20
8.044208147e-20
9.038005208e-20
8.548526095e-20
6.439846913e-20
2.807752945e-20
4.932336256e-22
5.013987533e-22
5.095432735e-22
5.176094704e-22
5.25533853e-22
5.332497615e-22
5.406906091e-22
5.477947951e-22
5.545047339e-22
5.607698323e-22
5.665472904e-22
5.717976358e-22
5.765047203e-22
5.806778726e-22
4.980669812e-20
3.174572216e-19
1.398634127e-15
6.105199282e-15
1.377839615e-14
5.290580108e-20
1.407941563e-19
2.038874149e-19
2.410299408e-19
2.524444679e-19
2.401394267e-19
2.081761478e-19
1.626441148e-19
1.112015181e-19
6.212734862e-20
2.298583986e-20
4.108004121e-22
4.199499477e-22
2.340164546e-21
2.278831657e-20
4.72022217e-20
6.812546848e-20
7.914249074e-20
7.600265209e-20
5.69518806e-20
2.262677725e-20
4.932105705e-22
5.013748756e-22
5.095184405e-22
5.175839244e-22
5.255079741e-22
5.332240212e-22
5.406656012e-22
5.477708245e-22
5.544821283e-22
5.607487262e-22
5.665275702e-22
5.717800932e-22
5.764901045e-22
5.806659876e-22
6.069485886e-20
3.334501202e-19
1.556935724e-15
6.363022098e-15
1.420561559e-14
5.340158627e-20
1.425494417e-19
2.07248427e-19
2.462342304e-19
2.595432705e-19
2.489196986e-19
2.181030921e-19
1.728535736e-19
1.205689985e-19
6.942504775e-20
2.710833305e-20
4.103238104e-22
4.195679771e-22
4.283908019e-22
1.248490322e-20
3.541029969e-20
5.612651468e-20
6.801460147e-20
6.647521598e-20
4.936926195e-20
1.700459617e-20
4.931874732e-22
5.013510869e-22
5.094937234e-22
5.175584831e-22
5.254821829e-22
5.331983588e-22
5.406406379e-22
5.477468893e-22
5.544595388e-22
5.607276221e-22
5.665078973e-22
5.717625955e-22
5.764754946e-22
5.806541412e-22
7.181234635e-20
3.497719045e-19
1.718997184e-15
6.626956917e-15
1.464294944e-14
5.388277192e-20
1.442486734e-19
2.104996025e-19
2.512740124e-19
2.66438864e-19
2.574943286e-19
2.278777452e-19
1.830319029e-19
1.300915408e-19
7.710668371e-20
3.18461617e-20
4.098482202e-22
4.191829221e-22
4.280959259e-22
2.940310689e-21
2.418249902e-20
4.447032415e-20
5.702715415e-20
5.693100321e-20
4.167221987e-20
1.122504562e-20
4.931642959e-22
5.013273691e-22
5.09469116e-22
5.175331457e-22
5.254564788e-22
5.331727729e-22
5.406157206e-22
5.477229888e-22
5.544369654e-22
5.60706523e-22
5.664882691e-22
5.717451407e-22
5.764608936e-22
5.806423365e-22
8.316380755e-20
3.664291949e-19
1.88490468e-15
6.897144976e-15
1.50906323e-14
5.434985129e-20
1.458942638e-19
2.136459147e-19
2.56156102e-19
2.731373422e-19
2.658643156e-19
2.374904925e-19
1.931537353e-19
1.397253808e-19
8.511200282e-20
3.713028656e-20
2.142311812e-21
4.18795496e-22
4.277960547e-22
4.364181868e-22
1.352568543e-20
3.317805468e-20
4.620797834e-20
4.739639366e-20
3.388192343e-20
5.302422375e-21
4.931409995e-22
5.013037028e-22
5.094446114e-22
5.175079112e-22
5.254308739e-22
5.331472631e-22
5.405908504e-22
5.476991226e-22
5.544144084e-22
5.606854311e-22
5.66468683e-22
5.717277269e-22
5.764463044e-22
5.806305763e-22
9.475396919e-20
3.834286942e-19
2.05474639e-15
7.173730654e-15
1.554890396e-14
5.480332531e-20
1.4748855e-19
2.166921461e-19
2.608871556e-19
2.796450708e-19
2.74031923e-19
2.469345515e-19
2.0319842e-19
1.494331114e-19
9.338760098e-20
4.289582503e-20
4.551423668e-21
4.184063423e-22
4.274917717e-22
4.361933393e-22
3.443091917e-21
2.226803103e-20
3.558085672e-20
3.789626286e-20
2.601899727e-20
4.849760974e-22
4.931175441e-22
5.012800674e-22
5.094202013e-22
5.174827775e-22
5.254053536e-22
5.331218282e-22
5.405660285e-22
5.476752903e-22
5.543918681e-22
5.606643485e-22
5.664491369e-22
5.717103525e-22
5.764317297e-22
5.806188637e-22
1.0658764e-19
4.007771945e-19
2.228612511e-15
7.456861545e-15
1.601800957e-14
5.524369434e-20
1.490337837e-19
2.196428733e-19
2.65473628e-19
2.859685472e-19
2.82000364e-19
2.562054237e-19
2.131492486e-19
1.591828062e-19
1.018863944e-19
4.908443793e-20
7.563681442e-21
4.180160588e-22
4.27183633e-22
4.359632246e-22
4.44421453e-22
1.175498437e-20
2.516689715e-20
2.845383912e-20
1.810339404e-20
4.849503081e-22
4.930938888e-22
5.012564413e-22
5.093958761e-22
5.174577417e-22
5.253799224e-22
5.330964674e-22
5.405412554e-22
5.476514916e-22
5.543693447e-22
5.606432768e-22
5.66429629e-22
5.716930159e-22
5.764171721e-22
5.806072014e-22
1.186697142e-19
4.184815837e-19
2.406595305e-15
7.746688524e-15
1.649819974e-14
5.567145318e-20
1.505321249e-19
2.225024614e-19
2.699217461e-19
2.921142967e-19
2.897735543e-19
2.653004515e-19
2.229928186e-19
1.689472899e-19
1.105670174e-19
5.564365874e-20
1.112201191e-20
4.176251924e-22
4.268721564e-22
4.357282565e-22
4.442538023e-22
1.64991089e-21
1.498540243e-20
1.909069979e-20
1.015423934e-20
4.849238317e-22
4.93069993e-22
5.012328017e-22
5.093716259e-22
5.174328004e-22
5.253545795e-22
5.3307118e-22
5.405165318e-22
5.476277263e-22
5.543468388e-22
5.606222175e-22
5.664101573e-22
5.71675716e-22
5.764026338e-22
5.805955923e-22
1.310051757e-19
4.365488537e-19
2.588789118e-15
8.043365823e-15
1.69897307e-14
5.608708649e-20
1.519856391e-19
2.252750635e-19
2.742374914e-19
2.98088796e-19
2.973559182e-19
2.742184584e-19
2.327185026e-19
1.787035102e-19
1.193932651e-19
6.252656391e-20
1.517256695e-20
4.172340306e-22
4.26557806e-22
4.354888326e-22
4.44081215e-22
4.524177706e-22
5.053433456e-21
9.826794344e-21
2.189847486e-21
4.8489661e-22
4.930458161e-22
5.012091252e-22
5.093474397e-22
5.174079497e-22
5.253293237e-22
5.330459653e-22
5.40491858e-22
5.476039943e-22
5.543243505e-22
5.606011719e-22
5.663907205e-22
5.716584515e-22
5.763881172e-22
5.805840394e-22
1.435991051e-19
4.549861151e-19
2.775290427e-15
8.347051105e-15
1.749286443e-14
5.649106623e-20
1.533962961e-19
2.279646241e-19
2.784265905e-19
3.038984184e-19
3.047522351e-19
2.829594552e-19
2.423179988e-19
1.884319745e-19
1.283335578e-19
6.969210079e-20
1.967573242e-20
4.168432791e-22
4.262410513e-22
4.352453322e-22
4.439039544e-22
4.522952335e-22
4.60510909e-22
6.804351951e-22
4.767440411e-22
4.848685865e-22
4.930213175e-22
5.011853875e-22
5.093233058e-22
5.17383185e-22
5.253041535e-22
5.330208224e-22
5.404672343e-22
5.475802955e-22
5.543018803e-22
5.605801408e-22
5.663713171e-22
5.716412216e-22
5.763736243e-22
5.805725453e-22
1.564566875e-19
4.738006203e-19
2.966197893e-15
8.657905544e-15
1.800786881e-14
5.688384969e-20
1.547659718e-19
2.30574883e-19
2.824945104e-19
3.095493975e-19
3.119675175e-19
2.915243965e-19
2.517849428e-19
1.981162105e-19
1.373601228e-19
7.710243098e-20
2.458531054e-20
4.164532031e-22
4.25922313e-22
4.34998133e-22
4.437222829e-22
4.521684451e-22
4.604259981e-22
4.685819516e-22
4.767057449e-22
4.848397077e-22
4.92996457e-22
5.011615638e-22
5.092992116e-22
5.173585012e-22
5.25279067e-22
5.329957506e-22
5.404426609e-22
5.475566299e-22
5.542794285e-22
5.60559125e-22
5.663519458e-22
5.716240253e-22
5.763591573e-22
5.805611132e-22
1.695832257e-19
4.92999811e-19
3.161612439e-15
8.976093918e-15
1.853501774e-14
5.726587839e-20
1.560964499e-19
2.331093834e-19
2.864464497e-19
3.150478075e-19
3.190069148e-19
2.999149823e-19
2.611145842e-19
2.077423317e-19
1.46448548e-19
8.472332229e-20
2.986003471e-20
4.160641461e-22
4.256019848e-22
4.347475829e-22
4.435364592e-22
4.520375521e-22
4.603376194e-22
4.685233618e-22
4.766658042e-22
4.848099231e-22
4.929711948e-22
5.011376289e-22
5.09275144e-22
5.173338926e-22
5.252540622e-22
5.329707489e-22
5.404181379e-22
5.475329978e-22
5.542569954e-22
5.60538125e-22
5.663326054e-22
5.71606862e-22
5.76344718e-22
5.805497458e-22
1.829841539e-19
5.125914078e-19
3.36163736e-15
9.301784712e-15
1.907459135e-14
5.763757758e-20
1.573894262e-19
2.355714867e-19
2.902873843e-19
3.203994811e-19
3.258756515e-19
3.081334984e-19
2.703035197e-19
2.172986809e-19
1.555774281e-19
9.252401871e-20
3.546256598e-20
4.156764184e-22
4.252804336e-22
4.34494017e-22
4.433467373e-22
4.519027056e-22
4.602458298e-22
4.684622072e-22
4.766241774e-22
4.84779185e-22
4.92945492e-22
5.011135574e-22
5.09251089e-22
5.17309353e-22
5.252291365e-22
5.329458165e-22
5.403936652e-22
5.475093987e-22
5.542345818e-22
5.605171415e-22
5.663132948e-22
5.715897309e-22
5.763303083e-22
5.80538446e-22
1.966650478e-19
5.325835877e-19
3.566378486e-15
9.635150247e-15
1.96268761e-14
5.799935566e-20
1.586465116e-19
2.379643769e-19
2.940220475e-19
3.256100498e-19
3.325789521e-19
3.161826828e-19
2.793494715e-19
2.267755317e-19
1.647280461e-19
1.004769586e-19
4.135880082e-20
4.15290293e-22
4.249580041e-22
4.342377488e-22
4.431533649e-22
4.517640594e-22
4.601506935e-22
4.683984866e-22
4.765808287e-22
4.847474485e-22
4.929193106e-22
5.010893234e-22
5.092270322e-22
5.172848756e-22
5.252042872e-22
5.329209522e-22
5.403692426e-22
5.474858324e-22
5.542121882e-22
5.604961748e-22
5.662940132e-22
5.715726316e-22
5.763159301e-22
5.805272169e-22
2.106315952e-19
5.529853329e-19
3.775944426e-15
9.976366844e-15
2.019216503e-14
5.835160439e-20
1.598692348e-19
2.402910667e-19
2.976549305e-19
3.306849421e-19
3.391220038e-19
3.240656205e-19
2.882511021e-19
2.361648301e-19
1.738840809e-19
1.08557517e-19
4.75177231e-20
4.149059976e-22
4.246348504e-22
4.339790605e-22
4.429565813e-22
4.516217688e-22
4.60052281e-22
4.683322057e-22
4.765357273e-22
4.847146719e-22
4.928926134e-22
5.010649012e-22
5.092029588e-22
5.172604532e-22
5.251795113e-22
5.328961547e-22
5.403448701e-22
5.474622989e-22
5.541898148e-22
5.604752253e-22
5.662747595e-22
5.715555634e-22
5.763015849e-22
5.805160612e-22
2.248894393e-19
5.359942191e-17
3.99044695e-15
1.032561503e-14
2.077075782e-14
5.86946986e-20
1.610590456e-19
2.425544069e-19
3.011902982e-19
3.356293739e-19
3.455099241e-19
3.317856559e-19
2.970078577e-19
2.454599668e-19
1.83031332e-19
1.167437592e-19
5.391183583e-20
1.035276097e-21
4.243114653e-22
4.337182526e-22
4.42756621e-22
4.514759902e-22
4.59950668e-22
4.682633768e-22
4.76488848e-22
4.846808165e-22
4.928653648e-22
5.01040265e-22
5.091788534e-22
5.17236078e-22
5.251548053e-22
5.328714228e-22
5.403205471e-22
5.474387982e-22
5.54167462e-22
5.604542933e-22
5.66255533e-22
5.715385262e-22
5.762872745e-22
1.112315872e-21
2.394442933e-19
1.905264945e-16
4.210001462e-15
1.068307971e-14
2.136296106e-14
5.902899663e-20
1.622173191e-19
2.447570961e-19
3.046322018e-19
3.404483448e-19
3.517477353e-19
3.393463226e-19
3.056198331e-19
2.54655572e-19
1.921574394e-19
1.250159754e-19
6.051535251e-20
5.260618038e-21
4.239880105e-22
4.33455593e-22
4.42553707e-22
4.513268792e-22
4.598459345e-22
4.681920181e-22
4.764401703e-22
4.846458466e-22
4.928375303e-22
5.010153891e-22
5.091547003e-22
5.17211742e-22
5.251301656e-22
5.328467549e-22
5.402962734e-22
5.4741533e-22
5.541451299e-22
5.604333791e-22
5.662363329e-22
5.715215194e-22
5.762730007e-22
1.139244025e-20
2.543022022e-19
3.307209125e-16
4.434726526e-15
1.104895015e-14
2.196908826e-14
5.935484047e-20
1.63345359e-19
2.469016893e-19
3.079844955e-19
3.451466355e-19
3.578403459e-19
3.467512846e-19
3.14087659e-19
2.637473396e-19
2.012516523e-19
1.333564513e-19
6.730440651e-20
9.78769271e-21
4.236647229e-22
4.331913326e-22
4.423480629e-22
4.511745919e-22
4.597381641e-22
4.681181537e-22
4.763896789e-22
4.846097299e-22
4.928090767e-22
5.009902482e-22
5.091304836e-22
5.171874367e-22
5.251055881e-22
5.328221494e-22
5.402720486e-22
5.473918943e-22
5.541228186e-22
5.604124827e-22
5.662171584e-22
5.715045428e-22
5.762587649e-22
2.189046495e-20
2.694692688e-19
4.742535049e-16
4.664742674e-15
1.142342002e-14
2.258946009e-14
5.967255661e-20
1.644444008e-19
2.489906012e-19
3.112508196e-19
3.497288392e-19
3.637925405e-19
3.540042898e-19
3.224124049e-19
2.727318767e-19
2.103046389e-19
1.417492892e-19
7.425718495e-20
1.459097248e-20
4.233418191e-22
4.329257106e-22
4.42139894e-22
4.510192821e-22
4.596274443e-22
4.680418118e-22
4.763373627e-22
4.845724367e-22
4.927799724e-22
5.009648173e-22
5.09106187e-22
5.171631531e-22
5.250810688e-22
5.327976045e-22
5.40247871e-22
5.473684917e-22
5.541005284e-22
5.603916044e-22
5.661980091e-22
5.714875962e-22
5.762445685e-22
3.261071574e-20
2.849516357e-19
6.211972637e-16
4.900172612e-15
1.180668734e-14
2.322440448e-14
5.998245633e-20
1.655156158e-19
2.510261172e-19
3.144346281e-19
3.541993491e-19
3.696089688e-19
3.611091309e-19
3.305954996e-19
2.816065778e-19
2.193083248e-19
1.501802513e-19
8.135377445e-20
1.964678719e-20
4.230194961e-22
4.326589553e-22
4.419294029e-22
4.50861101e-22
4.595138648e-22
4.679630247e-22
4.76283215e-22
4.845339409e-22
4.927501874e-22
5.009390716e-22
5.090817942e-22
5.17138882e-22
5.250566029e-22
5.327731181e-22
5.402237398e-22
5.473451223e-22
5.540782593e-22
5.603707442e-22
5.661788842e-22
5.714706794e-22
5.762304129e-22
4.355760242e-20
3.007554953e-19
7.716273067e-16
5.141141442e-15
1.219895454e-14
2.387425679e-14
6.028483652e-20
1.665601155e-19
2.530104039e-19
3.175392058e-19
3.585623591e-19
3.752941365e-19
3.680696136e-19
3.386386643e-19
2.90369516e-19
2.282557514e-19
1.586366089e-19
8.857601673e-20
2.493315479e-20
4.226979285e-22
4.323912413e-22
4.417167812e-22
4.50700197e-22
4.593975174e-22
4.678818288e-22
4.76227233e-22
4.844942189e-22
4.927196932e-22
5.009129871e-22
5.090572887e-22
5.171146139e-22
5.250321856e-22
5.327486875e-22
5.401996539e-22
5.47321786e-22
5.540560116e-22
5.603499021e-22
5.661597833e-22
5.714537922e-22