/*--------------------------------*- C++ -*----------------------------------*\
| =========                 |                                                 |
| \\      /  F ield         | OpenFOAM: The Open Source CFD Toolbox           |
|  \\    /   O peration     | Version:  v2006                                 |
|   \\  /    A nd           | Website:  www.openfoam.com                      |
|    \\/     M anipulation  |                                                 |
\*---------------------------------------------------------------------------*/
FoamFile
{
    version     2.0;
    format      ascii;
    class       volScalarField;
    location    "0.09";
    object      CH2O;
}
// * * * * * * * * * * * * * * * * * * * * * * * * * * * * * * * * * * * * * //

dimensions      [0 0 0 0 0 0 0];


internalField   nonuniform List<scalar> 
168000
(
5.580139472e-08
6.52644899e-08
7.398936714e-08
8.367525999e-08
9.322739806e-08
1.017617826e-07
1.105291575e-07
1.192622781e-07
1.254041099e-07
1.303790055e-07
1.347315046e-07
1.365472063e-07
1.364188695e-07
1.354352305e-07
1.316776433e-07
1.264466094e-07
1.200857929e-07
1.115069015e-07
1.02091092e-07
9.149375235e-08
8.004740222e-08
6.841343192e-08
6.713211246e-08
6.820459442e-08
6.92762008e-08
7.031259143e-08
7.134756873e-08
7.230783308e-08
7.325355288e-08
7.413206553e-08
7.494638217e-08
7.571586504e-08
7.639957922e-08
7.700522641e-08
7.754967974e-08
7.802783053e-08
7.921438176e-08
1.20629626e-07
9.669600294e-07
3.790645003e-06
5.48370443e-08
6.453333583e-08
7.024843631e-08
7.621951853e-08
8.320066411e-08
9.097498024e-08
9.965823278e-08
1.086739333e-07
1.165524113e-07
1.233213354e-07
1.289106946e-07
1.323161781e-07
1.336074661e-07
1.332191335e-07
1.303989329e-07
1.257106239e-07
1.194594293e-07
1.113364161e-07
1.019031652e-07
9.146663831e-08
8.005937464e-08
6.843568165e-08
6.712783038e-08
6.820173216e-08
6.927148694e-08
7.031080121e-08
7.134155235e-08
7.230626776e-08
7.324948429e-08
7.412872621e-08
7.494459102e-08
7.571243911e-08
7.639689202e-08
7.700365985e-08
7.754815655e-08
7.802612358e-08
8.082674037e-08
1.229228894e-07
1.056947291e-06
3.94066337e-06
5.344151171e-08
6.365061066e-08
6.813633822e-08
7.162668552e-08
7.618586322e-08
8.239627788e-08
9.025637198e-08
9.914311938e-08
1.079209979e-07
1.159801946e-07
1.228128877e-07
1.276456268e-07
1.302565951e-07
1.307413275e-07
1.288019674e-07
1.247181653e-07
1.187696513e-07
1.10991172e-07
1.017009297e-07
9.138094575e-08
8.005794245e-08
6.844638765e-08
6.712377444e-08
6.819863466e-08
6.926711279e-08
7.030853153e-08
7.133610146e-08
7.230428406e-08
7.324559733e-08
7.412543866e-08
7.494263332e-08
7.570912961e-08
7.639422975e-08
7.700204653e-08
7.754662411e-08
7.802445055e-08
8.246039681e-08
1.252667861e-07
1.149169373e-06
4.094041424e-06
5.244426451e-08
6.296071555e-08
6.705797864e-08
6.900259052e-08
7.151886968e-08
7.590437211e-08
8.246916659e-08
9.075774526e-08
9.979357601e-08
1.086662066e-07
1.165553104e-07
1.226453551e-07
1.264927777e-07
1.279676309e-07
1.269137888e-07
1.234912592e-07
1.179645287e-07
1.105279798e-07
1.014508752e-07
9.125201848e-08
8.003680875e-08
6.844698129e-08
6.711987492e-08
6.81953787e-08
6.926298064e-08
7.03059075e-08
7.133108623e-08
7.230197745e-08
7.324185185e-08
7.412219661e-08
7.49405357e-08
7.570591838e-08
7.639159253e-08
7.700039162e-08
7.75450829e-08
7.802280929e-08
8.411793653e-08
1.276614679e-07
1.243659393e-06
4.250896001e-06
5.176691595e-08
6.253805188e-08
6.665507542e-08
6.771276539e-08
6.863140647e-08
7.123105562e-08
7.626259151e-08
8.356999463e-08
9.235761044e-08
1.016038231e-07
1.10278132e-07
1.174300852e-07
1.224140579e-07
1.249095802e-07
1.247566339e-07
1.220441808e-07
1.170201111e-07
1.099540806e-07
1.011363571e-07
9.108113084e-08
7.998533766e-08
6.843726759e-08
6.711608544e-08
6.819201761e-08
6.925902048e-08
7.030302265e-08
7.132640709e-08
7.229942189e-08
7.323821688e-08
7.411899415e-08
7.493832058e-08
7.570279032e-08
7.638898e-08
7.699869979e-08
7.754353347e-08
7.802119789e-08
8.58015975e-08
1.301072679e-07
1.34045481e-06
4.411339816e-06
5.129417656e-08
6.23493277e-08
6.67033496e-08
6.732309897e-08
6.706436033e-08
6.806630412e-08
7.149892414e-08
7.75709496e-08
8.572290479e-08
9.495338607e-08
1.04114536e-07
1.121109868e-07
1.181070148e-07
1.2160057e-07
1.223540159e-07
1.203887205e-07
1.15926466e-07
1.092702419e-07
1.007484227e-07
9.086509189e-08
7.990303076e-08
6.841279879e-08
6.711237498e-08
6.818858824e-08
6.92551824e-08
7.029994678e-08
7.132198777e-08
7.229667462e-08
7.323466859e-08
7.411582583e-08
7.493600687e-08
7.569973291e-08
7.638639144e-08
7.699697522e-08
7.754197645e-08
7.801961462e-08
8.751334067e-08
1.326046683e-07
1.439596858e-06
4.575482525e-06
5.095847967e-08
6.233778817e-08
6.705093855e-08
6.753363911e-08
6.646241287e-08
6.611375395e-08
6.800210295e-08
7.270372949e-08
7.993767668e-08
8.882328254e-08
9.817796502e-08
1.067899877e-07
1.136517046e-07
1.180844243e-07
1.197323545e-07
1.185374913e-07
1.146812606e-07
1.084750264e-07
1.002819073e-07
9.060150481e-08
7.978756238e-08
6.837217438e-08
6.71087232e-08
6.818511606e-08
6.925143108e-08
7.02967319e-08
7.131776986e-08
7.229377993e-08
7.323118863e-08
7.411268665e-08
7.49336105e-08
7.569673574e-08
7.63838259e-08
7.699522168e-08
7.75404125e-08
7.801805797e-08
8.925490658e-08
1.351542752e-07
1.54113011e-06
4.743431612e-06
5.071966079e-08
6.245481815e-08
6.759849178e-08
6.815352448e-08
6.655019608e-08
6.511389824e-08
6.558302925e-08
6.887143827e-08
7.500264105e-08
8.327912893e-08
9.255778979e-08
1.015563943e-07
1.091224919e-07
1.144087657e-07
1.169209158e-07
1.165051226e-07
1.132868228e-07
1.075672499e-07
9.973352925e-08
9.02861829e-08
7.9636808e-08
6.831293919e-08
6.710511642e-08
6.818161864e-08
6.924774171e-08
7.02934167e-08
7.131370861e-08
7.229077214e-08
7.322776285e-08
7.41095722e-08
7.49311449e-08
7.569379014e-08
7.638128225e-08
7.699344253e-08
7.753884229e-08
7.801652659e-08
9.102786097e-08
1.37756798e-07
1.645102105e-06
4.915293149e-06
5.055120157e-08
6.266266848e-08
6.827690882e-08
6.904403818e-08
6.714505578e-08
6.485486398e-08
6.406229425e-08
6.596586735e-08
7.088778866e-08
7.835240792e-08
8.731922889e-08
9.648507401e-08
1.045866098e-07
1.106221395e-07
1.139509872e-07
1.143084125e-07
1.117487089e-07
1.06546946e-07
9.910128372e-08
8.991580604e-08
7.944881068e-08
6.823280886e-08
6.710154718e-08
6.817810821e-08
6.9244097e-08
7.029002993e-08
7.130976976e-08
7.228767782e-08
7.322438031e-08
7.410647862e-08
7.492862138e-08
7.569088888e-08
7.63787593e-08
7.699164081e-08
7.753726655e-08
7.801501928e-08
9.283363164e-08
1.404130338e-07
1.751563047e-06
5.091172417e-06
5.04346107e-08
6.293335475e-08
6.903843257e-08
7.011111797e-08
6.809069149e-08
6.514841341e-08
6.327736745e-08
6.387129734e-08
6.753807865e-08
7.404768848e-08
8.250539702e-08
9.163605381e-08
1.001033572e-07
1.067716146e-07
1.108549025e-07
1.119659969e-07
1.100749059e-07
1.054156639e-07
9.838419267e-08
8.948758932e-08
7.922086879e-08
6.812956375e-08
6.709801118e-08
6.817459337e-08
6.924048509e-08
7.028659295e-08
7.130592704e-08
7.228451763e-08
7.322103253e-08
7.410340257e-08
7.492604947e-08
7.568802589e-08
7.637625581e-08
7.698981923e-08
7.753568598e-08
7.801353499e-08
9.467353828e-08
1.431238549e-07
1.860565561e-06
5.271174429e-06
5.035667303e-08
6.32465226e-08
6.985005931e-08
7.129065764e-08
6.928476547e-08
6.588163022e-08
6.309268189e-08
6.247605548e-08
6.489002875e-08
7.035027758e-08
7.814053579e-08
8.705513164e-08
9.572364192e-08
1.029012436e-07
1.076649618e-07
1.094978356e-07
1.08275293e-07
1.041764724e-07
9.758222563e-08
8.899950739e-08
7.8952214e-08
6.800116394e-08
6.70945029e-08
6.817107997e-08
6.923689791e-08
7.02831216e-08
7.130216031e-08
7.228130756e-08
7.321771293e-08
7.410034119e-08
7.492343718e-08
7.56851961e-08
7.637377055e-08
7.698798023e-08
7.753410127e-08
7.801207278e-08
9.65488168e-08
1.458902011e-07
1.972164511e-06
5.455404377e-06
5.030780198e-08
6.358743201e-08
7.068872663e-08
7.253749133e-08
7.064804153e-08
6.69321674e-08
6.337593575e-08
6.167527366e-08
6.287388885e-08
6.723435929e-08
7.423358416e-08
8.27751044e-08
9.148984638e-08
9.90514517e-08
1.044121053e-07
1.069247345e-07
1.063612163e-07
1.028338355e-07
9.669624753e-08
8.845014884e-08
7.864086252e-08
6.7845855e-08
6.709102141e-08
6.816757199e-08
6.923333006e-08
7.027962762e-08
7.129845413e-08
7.227806007e-08
7.321441638e-08
7.409729208e-08
7.492079127e-08
7.568239525e-08
7.637130231e-08
7.698612601e-08
7.753251314e-08
7.801063186e-08
9.846063978e-08
1.487130757e-07
2.086416857e-06
5.643968013e-06
5.028095132e-08
6.394542212e-08
7.153831424e-08
7.38200418e-08
7.212376723e-08
6.822086609e-08
6.405198596e-08
6.137900586e-08
6.141917145e-08
6.465974047e-08
7.078073782e-08
7.881727069e-08
8.743598631e-08
9.525773562e-08
1.011260809e-07
1.042677602e-07
1.043450985e-07
1.013934311e-07
9.57279749e-08
8.783875634e-08
7.828550671e-08
6.766209613e-08
6.708756562e-08
6.816407188e-08
6.922977804e-08
7.027611976e-08
7.129479665e-08
7.227478483e-08
7.321113887e-08
7.40942532e-08
7.491811743e-08
7.567961975e-08
7.636884995e-08
7.698425851e-08
7.753092227e-08
7.800921152e-08
1.004101338e-07
1.515935485e-07
2.203381566e-06
5.836971971e-06
5.027087971e-08
6.431279021e-08
7.238756053e-08
7.511609529e-08
7.367004296e-08
6.96822461e-08
6.502601678e-08
6.149238709e-08
6.04574189e-08
6.25866087e-08
6.776948147e-08
7.519327846e-08
8.358827822e-08
9.155076174e-08
9.783455389e-08
1.015477835e-07
1.022400787e-07
9.986194844e-08
9.467991912e-08
8.716519988e-08
7.788512119e-08
6.744832912e-08
6.708413521e-08
6.816058531e-08
6.922623989e-08
7.02726045e-08
7.129117877e-08
7.227148937e-08
7.320787726e-08
7.409122289e-08
7.491542045e-08
7.567686655e-08
7.636641236e-08
7.69823795e-08
7.752932931e-08
7.800781117e-08
1.02398394e-07
1.545327708e-07
2.323119575e-06
6.034524054e-06
5.02736436e-08
6.468396997e-08
7.322865148e-08
7.641006975e-08
7.52562181e-08
7.126679865e-08
6.623591869e-08
6.19646458e-08
5.992826129e-08
6.097174611e-08
6.518236557e-08
7.190691562e-08
7.996588881e-08
8.795639943e-08
9.456266332e-08
9.878512182e-08
1.00059668e-07
9.8246882e-08
9.35553151e-08
8.642994443e-08
7.743901048e-08
6.720339565e-08
6.708072978e-08
6.815711013e-08
6.922271429e-08
7.026908668e-08
7.12875935e-08
7.226817957e-08
7.320462909e-08
7.408819976e-08
7.491270438e-08
7.567413308e-08
7.636398852e-08
7.698049056e-08
7.752773493e-08
7.800643029e-08
1.044264946e-07
1.575320106e-07
2.44569381e-06
6.23673349e-06
5.02862463e-08
6.505495118e-08
7.405622714e-08
7.769109058e-08
7.68598095e-08
7.293608108e-08
6.762755277e-08
6.272286674e-08
5.977379976e-08
5.977095075e-08
6.29938181e-08
6.895522613e-08
7.658173571e-08
8.449590581e-08
9.133308409e-08
9.599887147e-08
9.781749096e-08
9.655633637e-08
9.235803847e-08
8.563401011e-08
7.694682677e-08
6.692651881e-08
6.707734916e-08
6.815364897e-08
6.921920062e-08
7.02655699e-08
7.128403547e-08
7.226486e-08
7.320139241e-08
7.408518268e-08
7.490997262e-08
7.567141716e-08
7.636157745e-08
7.697859311e-08
7.752613975e-08
7.800506844e-08
1.064954887e-07
1.632389384e-07
2.571169309e-06
6.443711165e-06
5.030639065e-08
6.542286209e-08
7.486668547e-08
7.895165766e-08
7.846438441e-08
7.466049698e-08
6.915755822e-08
6.371439863e-08
5.992779933e-08
5.894087962e-08
6.117903284e-08
6.633059024e-08
7.344341935e-08
8.118621105e-08
8.816591955e-08
9.320666648e-08
9.55270512e-08
9.479884181e-08
9.109251419e-08
8.47789241e-08
7.640853898e-08
6.661680787e-08
6.707399316e-08
6.815020288e-08
6.921569866e-08
7.026205685e-08
7.128050056e-08
7.226153423e-08
7.319816578e-08
7.408217063e-08
7.490722807e-08
7.566871692e-08
7.635917826e-08
7.697668842e-08
7.752454437e-08
7.800372523e-08
1.086063835e-07
2.423718676e-07
2.699613435e-06
6.655569821e-06
5.033230133e-08
6.578566296e-08
7.565769352e-08
8.018670588e-08
8.005801462e-08
7.641739675e-08
7.079165964e-08
6.489892348e-08
6.036958739e-08
5.844461628e-08
5.971124287e-08
6.402165171e-08
7.055408013e-08
7.804023741e-08
8.507820985e-08
9.042507945e-08
9.320150685e-08
9.298318217e-08
8.976362097e-08
8.386667063e-08
7.582444161e-08
6.627371183e-08
6.707066153e-08
6.814677262e-08
6.921220836e-08
7.025854954e-08
7.12769856e-08
7.225820506e-08
7.319494801e-08
7.407916286e-08
7.490447314e-08
7.566603078e-08
7.635679014e-08
7.697477764e-08
7.752294937e-08
7.800240032e-08
1.107602209e-07
3.233960887e-07
2.831095777e-06
6.872424061e-06
5.036259777e-08
6.614193145e-08
7.642782771e-08
8.139292658e-08
8.163210082e-08
7.818935383e-08
7.25018259e-08
6.623843306e-08
6.104443009e-08
5.824424262e-08
5.8563022e-08
6.20160887e-08
6.791327916e-08
7.506733236e-08
8.208434258e-08
8.766917805e-08
9.085350403e-08
9.111823919e-08
8.837659493e-08
8.289963799e-08
7.519514207e-08
6.59884617e-08
6.706735387e-08
6.814335876e-08
6.920872935e-08
7.025504947e-08
7.127348816e-08
7.225487467e-08
7.319173815e-08
7.407615877e-08
7.490170986e-08
7.566335736e-08
7.635441231e-08
7.697286179e-08
7.752135529e-08
7.80010934e-08
1.129580307e-07
4.06352885e-07
2.965687202e-06
7.094390259e-06
5.039620017e-08
6.649070078e-08
7.717631954e-08
8.256828217e-08
8.318052491e-08
7.996300857e-08
7.426547002e-08
6.770160708e-08
6.191655906e-08
5.829643029e-08
5.770649284e-08
6.029585928e-08
6.551723758e-08
7.227366832e-08
7.919620868e-08
8.495243282e-08
8.84950567e-08
8.921285232e-08
8.69369352e-08
8.188056426e-08
7.452154054e-08
6.59853372e-08
6.706406967e-08
6.813996188e-08
6.920526416e-08
7.02515579e-08
7.127000637e-08
7.225154479e-08
7.318853542e-08
7.407315792e-08
7.489893996e-08
7.566069549e-08
7.635204409e-08
7.697094181e-08
7.751976269e-08
7.799980423e-08
1.152008335e-07
4.912848748e-07
3.103459913e-06
7.321586072e-06
5.043225969e-08
6.683134101e-08
7.790287098e-08
8.371165647e-08
8.469902898e-08
8.172818368e-08
7.60645184e-08
6.926274895e-08
6.295723539e-08
5.858596279e-08
5.711752259e-08
5.884568673e-08
6.336011952e-08
6.966272691e-08
7.642337849e-08
8.228668648e-08
8.613748781e-08
8.727568744e-08
8.545031422e-08
8.081248261e-08
7.380480262e-08
6.598223502e-08
6.706080831e-08
6.813658223e-08
6.92018108e-08
7.024807567e-08
7.126653882e-08
7.224821675e-08
7.318533922e-08
7.407015997e-08
7.489616488e-08
7.565804415e-08
7.634968485e-08
7.696901853e-08
7.751817206e-08
7.799853261e-08
1.174896443e-07
5.782359883e-07
3.244487637e-06
7.554129252e-06
5.047010623e-08
6.716347172e-08
7.860751987e-08
8.48226007e-08
8.618475008e-08
8.347717309e-08
7.788446706e-08
7.090017424e-08
6.41389954e-08
5.907590773e-08
5.677097812e-08
5.764838316e-08
6.143422885e-08
6.723570299e-08
7.377332337e-08
7.968237467e-08
8.37911471e-08
8.53151388e-08
8.392249726e-08
7.969866857e-08
7.304634544e-08
6.597915217e-08
6.705756865e-08
6.813321993e-08
6.919837039e-08
7.024460348e-08
7.12630844e-08
7.224489161e-08
7.318214906e-08
7.406716466e-08
7.489338585e-08
7.565540245e-08
7.6347334e-08
7.69670927e-08
7.751658392e-08
7.927285341e-08
1.198254761e-07
6.672514033e-07
3.388845451e-06
7.792142583e-06
5.050920905e-08
6.748689697e-08
7.929054049e-08
8.590114894e-08
8.763587153e-08
8.520419706e-08
7.971370364e-08
7.259575608e-08
6.543833193e-08
5.974111553e-08
5.664396309e-08
5.668655975e-08
5.973095903e-08
6.499191215e-08
7.125162828e-08
7.714861911e-08
8.146527388e-08
8.33393025e-08
8.235927331e-08
7.854258914e-08
7.224780802e-08
6.597608527e-08
6.705434967e-08
6.8129875e-08
6.919494322e-08
7.024114184e-08
7.125964228e-08
7.224157019e-08
7.317896453e-08
7.40641718e-08
7.48906039e-08
7.565276964e-08
7.634499103e-08
7.696516502e-08
7.751499875e-08
8.089444405e-08
1.222093449e-07
7.583775339e-07
3.536609976e-06
8.03575232e-06
5.054914686e-08
6.780155766e-08
7.995237444e-08
8.694767269e-08
8.905136566e-08
8.690498328e-08
8.154296946e-08
7.43344118e-08
6.683504047e-08
6.055817667e-08
5.670540666e-08
5.594258301e-08
5.824025915e-08
6.292904268e-08
6.886215873e-08
7.469301064e-08
7.916836295e-08
8.13558668e-08
8.076638839e-08
7.734785421e-08
7.141102378e-08
6.597303059e-08
6.705115e-08
6.81265473e-08
6.919152955e-08
7.023769116e-08
7.125621183e-08
7.223825315e-08
7.317578537e-08
7.406118123e-08
7.48878199e-08
7.565014505e-08
7.634265545e-08
7.69632361e-08
7.751341701e-08
8.255033751e-08
1.246422721e-07
8.516620085e-07
3.687859495e-06
8.285087349e-06
5.058958505e-08
6.810749561e-08
8.059357941e-08
8.796278282e-08
9.04307918e-08
8.857643894e-08
8.336491937e-08
7.610364961e-08
6.831208038e-08
6.150903292e-08
5.695262851e-08
5.540179935e-08
5.695158831e-08
6.104349401e-08
6.660725795e-08
7.232169492e-08
7.690817074e-08
7.937208803e-08
7.914949018e-08
7.611817107e-08
7.053799317e-08
6.596998407e-08
6.704796806e-08
6.812323657e-08
6.918812958e-08
7.023425176e-08
7.125279257e-08
7.223494101e-08
7.317261134e-08
7.405819285e-08
7.488503458e-08
7.564752807e-08
7.634032685e-08
7.696130652e-08
7.751183911e-08
8.424123791e-08
1.271252856e-07
9.471536575e-07
3.842673991e-06
8.540279254e-06
5.063025739e-08
6.84048252e-08
8.121478504e-08
8.894725874e-08
9.177414711e-08
9.021639137e-08
8.51737464e-08
7.789306476e-08
6.9854535e-08
6.257513687e-08
5.735802414e-08
5.514805845e-08
5.634283657e-08
5.933068246e-08
6.448796663e-08
7.003964753e-08
7.469155654e-08
7.739475249e-08
7.751408022e-08
7.485730232e-08
6.96308561e-08
6.596694139e-08
6.704480208e-08
6.81199424e-08
6.918474344e-08
7.023082388e-08
7.124938412e-08
7.223163416e-08
7.316944224e-08
7.405520662e-08
7.488224858e-08
7.56449182e-08
7.633800484e-08
7.695937679e-08
7.751026551e-08
8.596786152e-08
1.296594219e-07
1.04490251e-06
4.001135193e-06
8.801462403e-06
5.067095232e-08
6.869371283e-08
8.181666577e-08
8.990199049e-08
9.308175219e-08
9.182338561e-08
8.696488718e-08
7.969400337e-08
7.144952665e-08
6.374035105e-08
5.790513055e-08
5.508511287e-08
5.629292308e-08
5.77852087e-08
6.250421358e-08
6.78507639e-08
7.252452272e-08
7.54301581e-08
7.586547388e-08
7.356902765e-08
6.869186565e-08
6.596389794e-08
6.704165003e-08
6.811666424e-08
6.918137117e-08
7.022740766e-08
7.12459862e-08
7.222833293e-08
7.316627794e-08
7.405222251e-08
7.487946241e-08
7.564231498e-08
7.633568908e-08
7.695744739e-08
7.750869659e-08
8.773093662e-08
1.322457279e-07
1.144959799e-06
4.16332661e-06
9.068774016e-06
5.071150195e-08
6.897436147e-08
8.23999211e-08
9.082793574e-08
9.435416385e-08
9.339652698e-08
8.873478894e-08
8.149929069e-08
7.308599475e-08
6.499048292e-08
5.85783638e-08
5.502219772e-08
5.624249998e-08
5.740718181e-08
6.065500763e-08
6.575796157e-08
7.041225214e-08
7.348411458e-08
7.420876703e-08
7.225710912e-08
6.772336252e-08
6.596084891e-08
6.703850973e-08
6.81134014e-08
6.917801272e-08
7.022400303e-08
7.124259856e-08
7.222503758e-08
7.31631183e-08
7.404924051e-08
7.487667651e-08
7.563971801e-08
7.633337925e-08
7.695551876e-08
7.750713278e-08
8.953120389e-08
1.348852616e-07
1.247377964e-06
4.329333572e-06
9.342354248e-06
5.075177339e-08
6.924699798e-08
8.296525514e-08
9.172609418e-08
9.559210956e-08
9.493535763e-08
9.048072162e-08
8.330299979e-08
7.475447281e-08
6.631314136e-08
5.936434186e-08
5.495941609e-08
5.619166971e-08
5.736825588e-08
5.893870591e-08
6.376328235e-08
6.835913638e-08
7.15619663e-08
7.25488051e-08
7.092526023e-08
6.672775065e-08
6.595778932e-08
6.703537879e-08
6.811015303e-08
6.917466798e-08
7.022060988e-08
7.123922102e-08
7.222174829e-08
7.315996326e-08
7.404626065e-08
7.487389125e-08
7.563712693e-08
7.633107508e-08
7.695359132e-08
7.750557447e-08
9.136941656e-08
1.375790936e-07
1.352210665e-06
4.49924327e-06
9.622346257e-06
5.079166198e-08
6.951186488e-08
8.351336946e-08
9.259748085e-08
9.679643598e-08
9.643975913e-08
9.220062412e-08
8.510024915e-08
7.644685156e-08
6.769739479e-08
6.025072156e-08
5.520874449e-08
5.614052643e-08
5.732867053e-08
5.846685936e-08
6.18679697e-08
6.636888076e-08
6.966854835e-08
7.089014516e-08
6.957711945e-08
6.570747479e-08
6.595471402e-08
6.703225466e-08
6.810691823e-08
6.917133684e-08
7.021722983e-08
7.123585353e-08
7.221846524e-08
7.315681273e-08
7.404328295e-08
7.487110696e-08
7.563454141e-08
7.632877632e-08
7.695166543e-08
7.750402203e-08
9.324634084e-08
1.403283076e-07
1.45951279e-06
4.673144796e-06
9.908896282e-06
5.083108601e-08
6.976921401e-08
8.404495556e-08
9.344310927e-08
9.79680701e-08
9.790987516e-08
9.389297822e-08
8.688703057e-08
7.815617405e-08
6.913353326e-08
6.122588018e-08
5.558036836e-08
5.608915509e-08
5.72885028e-08
5.843717773e-08
6.007263296e-08
6.444469944e-08
6.780799315e-08
6.923708488e-08
6.821623183e-08
6.487688312e-08
6.595161773e-08
6.702913461e-08
6.810369591e-08
6.916801899e-08
7.021386096e-08
7.123249592e-08
7.221518855e-08
7.315366668e-08
7.404030745e-08
7.486832389e-08
7.563196118e-08
7.632648276e-08
7.694974146e-08
7.750247587e-08
9.516275624e-08
1.431340021e-07
1.569340469e-06
4.85112918e-06
1.020215372e-05
5.086998229e-08
7.001930142e-08
8.456068875e-08
9.426398006e-08
9.910798962e-08
9.934605053e-08
9.555670647e-08
8.866006814e-08
7.987647888e-08
7.061297682e-08
6.227935233e-08
5.606122201e-08
5.603763463e-08
5.724782609e-08
5.84068008e-08
5.952335306e-08
6.258918158e-08
6.598396977e-08
6.759363783e-08
6.684602714e-08
6.487347873e-08
6.594849504e-08
6.702601578e-08
6.810048479e-08
6.916471406e-08
7.021050385e-08
7.12291481e-08
7.221191831e-08
7.315052506e-08
7.403733419e-08
7.486554226e-08
7.562938598e-08
7.63241942e-08
7.694781974e-08
7.750093636e-08
9.711945612e-08
1.459972907e-07
1.681751094e-06
5.033289434e-06
1.05022712e-05
5.090830276e-08
7.026238346e-08
8.506122399e-08
9.506107269e-08
1.002172006e-07
1.007487829e-07
9.719108936e-08
9.041670227e-08
8.160266974e-08
7.212816985e-08
6.34017122e-08
5.664117297e-08
5.598603721e-08
5.720670873e-08
5.837578318e-08
5.950122186e-08
6.08042661e-08
6.419983571e-08
6.596353281e-08
6.546979295e-08
6.486998364e-08
6.594534061e-08
6.702289517e-08
6.809728357e-08
6.916142162e-08
7.020715839e-08
7.122580997e-08
7.22086546e-08
7.314738786e-08
7.403436322e-08
7.486276227e-08
7.562681557e-08
7.632191047e-08
7.694590057e-08
7.749940387e-08
9.911724845e-08
1.489193038e-07
1.796803337e-06
5.219720595e-06
1.080940467e-05
5.094601154e-08
7.049871409e-08
8.554719348e-08
9.583533966e-08
1.012967205e-07
1.021186847e-07
9.879569777e-08
9.215479265e-08
8.333040277e-08
7.367248317e-08
6.458451719e-08
5.731064611e-08
5.593440079e-08
5.716521203e-08
5.834417735e-08
5.947843899e-08
6.057892949e-08
6.245856053e-08
6.435021795e-08
6.409067756e-08
6.486639017e-08
6.594214907e-08
6.701976968e-08
6.809409081e-08
6.915814113e-08
7.020382442e-08
7.122248142e-08
7.220539747e-08
7.314425505e-08
7.40313946e-08
7.485998408e-08
7.562424976e-08
7.631963143e-08
7.694398426e-08
7.749787879e-08
1.011569568e-07
1.519011913e-07
1.914557174e-06
5.410519766e-06
1.112371345e-05
5.098308272e-08
7.072854266e-08
8.601920503e-08
9.658770245e-08
1.023475657e-07
1.034564524e-07
1.003703376e-07
9.387263594e-08
8.505598525e-08
7.524011948e-08
6.582037139e-08
5.80626176e-08
5.588281854e-08
5.712339793e-08
5.831203339e-08
5.94550392e-08
6.056275364e-08
6.164728702e-08
6.275685909e-08
6.379018734e-08
6.486269084e-08
6.593891507e-08
6.701663611e-08
6.809090495e-08
6.9154872e-08
7.020050175e-08
7.121916237e-08
7.220214695e-08
7.314112662e-08
7.402842835e-08
7.485720782e-08
7.562168835e-08
7.631735695e-08
7.694207109e-08
7.749636149e-08
1.032394218e-07
1.549441254e-07
2.035073916e-06
5.605786166e-06
1.144536036e-05
5.101949848e-08
7.095211256e-08
8.647784111e-08
9.731904856e-08
1.033707427e-07
1.047628425e-07
1.019150036e-07
9.55688943e-08
8.67762783e-08
7.682596655e-08
6.710244578e-08
5.888885698e-08
5.583132546e-08
5.708132198e-08
5.827940116e-08
5.943105714e-08
6.054601657e-08
6.163607812e-08
6.271272773e-08
6.378513194e-08
6.485887862e-08
6.593563328e-08
6.70134912e-08
6.808772433e-08
6.915161355e-08
7.019719014e-08
7.121585269e-08
7.219890307e-08
7.313800259e-08
7.402546454e-08
7.485443356e-08
7.561913119e-08
7.63150869e-08
7.694016133e-08
7.749485235e-08
1.053655031e-07
1.580493094e-07
2.158416261e-06
5.805621181e-06
1.177451174e-05
5.105524759e-08
7.116966025e-08
8.692365875e-08
9.803022821e-08
1.043672429e-07
1.060386516e-07
1.034298418e-07
9.724253592e-08
8.848861832e-08
7.84255179e-08
6.842455158e-08
5.978200651e-08
5.577996689e-08
5.703903615e-08
5.824632659e-08
5.940652697e-08
6.052873767e-08
6.162441144e-08
6.270499342e-08
6.377985946e-08
6.485494682e-08
6.593229848e-08
6.701033161e-08
6.808454721e-08
6.914836502e-08
7.019388931e-08
7.121255228e-08
7.219566584e-08
7.313488296e-08
7.40225032e-08
7.485166141e-08
7.56165781e-08
7.631282121e-08
7.693825523e-08
7.749335177e-08
1.075360816e-07
1.612179913e-07
2.284648362e-06
6.010128427e-06
1.211133761e-05
5.109032427e-08
7.138141483e-08
8.735719101e-08
9.87220615e-08
1.053380251e-07
1.072847041e-07
1.04915119e-07
9.889278564e-08
9.019075257e-08
8.003481007e-08
6.978111876e-08
6.073540229e-08
5.57287838e-08
5.699658889e-08
5.821285391e-08
5.938148219e-08
6.051093688e-08
6.161229449e-08
6.269692054e-08
6.37743644e-08
6.485088914e-08
6.592890551e-08
6.700715398e-08
6.808137176e-08
6.91451256e-08
7.019059893e-08
7.120926101e-08
7.219243525e-08
7.313176769e-08
7.401954443e-08
7.484889141e-08
7.561402896e-08
7.631055977e-08
7.693635304e-08
7.749186012e-08
1.097520613e-07
1.644514929e-07
2.413835932e-06
6.219413831e-06
1.245601173e-05
5.112472704e-08
7.158759746e-08
8.777894663e-08
9.939533335e-08
1.062840223e-07
1.085018362e-07
1.06371197e-07
1.005190839e-07
9.188078511e-08
8.165036587e-08
7.116714679e-08
6.174295096e-08
5.567781224e-08
5.695402567e-08
5.817902451e-08
5.935595552e-08
6.04926345e-08
6.159973576e-08
6.268850892e-08
6.376864203e-08
6.484669968e-08
6.592544935e-08
6.700395491e-08
6.807819608e-08
6.914189439e-08
7.018731863e-08
7.120597872e-08
7.218921128e-08
7.312865676e-08
7.40165883e-08
7.484612365e-08
7.561148363e-08
7.630830252e-08
7.6934455e-08
7.749037779e-08
1.120143643e-07
1.67751266e-07
2.546046404e-06
6.433585723e-06
1.280871167e-05
5.115845799e-08
7.178842111e-08
8.818941019e-08
1.000507924e-07
1.072061399e-07
1.096908884e-07
1.077985123e-07
1.021210524e-07
9.355712985e-08
8.32691424e-08
7.257815951e-08
6.27991044e-08
5.562708223e-08
5.691136685e-08
5.814487563e-08
5.932997854e-08
6.047385104e-08
6.158674454e-08
6.267975933e-08
6.376268829e-08
6.484237292e-08
6.592192512e-08
6.700073099e-08
6.80750182e-08
6.913867044e-08
7.018404801e-08
7.120270526e-08
7.218599391e-08
7.312555016e-08
7.401363484e-08
7.484335815e-08
7.5608942e-08
7.63060494e-08
7.693256133e-08
7.748890514e-08
1.143239052e-07
2.033914203e-07
2.681349183e-06
6.652754968e-06
1.316961896e-05
5.119152203e-08
7.19840903e-08
8.858904302e-08
1.006891532e-07
1.081052528e-07
1.108526983e-07
1.091975592e-07
1.036984649e-07
9.521846921e-08
8.48884818e-08
7.401016194e-08
6.389893975e-08
5.568797997e-08
5.686867749e-08
5.811044695e-08
5.930358223e-08
6.045460711e-08
6.157333083e-08
6.267067336e-08
6.375649986e-08
6.483790374e-08
6.591832809e-08
6.699747881e-08
6.80718361e-08
6.913545273e-08
7.018078663e-08
7.119944045e-08
7.218278309e-08
7.312244787e-08
7.401068409e-08
7.484059496e-08
7.560640395e-08
7.630380034e-08
7.693067225e-08
7.75737982e-08
1.166816103e-07
2.901513604e-07
2.8198159e-06
6.877035052e-06
1.353891913e-05
5.122392627e-08
7.217480122e-08
8.897828416e-08
1.013110972e-07
1.08982204e-07
1.119880948e-07
1.105688759e-07
1.05251222e-07
9.68637167e-08
8.650606097e-08
7.545955703e-08
6.50378337e-08
5.639607333e-08
5.682597893e-08
5.807577383e-08
5.927679599e-08
6.04349233e-08
6.155950519e-08
6.266125346e-08
6.375007403e-08
6.483328744e-08
6.591465371e-08
6.6994195e-08
6.80686477e-08
6.913224019e-08
7.017753399e-08
7.11961841e-08
7.217957877e-08
7.311934989e-08
7.400773608e-08
7.483783412e-08
7.560386938e-08
7.630155531e-08
7.692878799e-08
7.924164946e-08
1.190884588e-07
3.78968928e-07
2.961520064e-06
7.106542104e-06
1.39168018e-05
5.125567957e-08
7.236074178e-08
8.935755142e-08
1.01917276e-07
1.098378029e-07
1.130978939e-07
1.11913033e-07
1.067793296e-07
9.849198479e-08
8.811985006e-08
7.692310495e-08
6.621150122e-08
5.715900155e-08
5.678330245e-08
5.804088939e-08
5.924964936e-08
6.041482019e-08
6.154527865e-08
6.265150279e-08
6.374340877e-08
6.482851974e-08
6.591089762e-08
6.699087621e-08
6.806545091e-08
6.912903169e-08
7.017428958e-08
7.119293598e-08
7.21763809e-08
7.311625619e-08
7.400479082e-08
7.483507564e-08
7.560133821e-08
7.629931427e-08
7.692690875e-08
8.094491522e-08
1.2154544e-07
4.698883261e-07
3.106536362e-06
7.34139488e-06
1.430346075e-05
5.128679218e-08
7.254209165e-08
8.972724136e-08
1.025083064e-07
1.106728309e-07
1.141828961e-07
1.132306244e-07
1.082828815e-07
1.001025574e-07
8.972807825e-08
7.839789164e-08
6.741602082e-08
5.797223617e-08
5.674067662e-08
5.80058252e-08
5.922216944e-08
6.039431808e-08
6.153066277e-08
6.264142505e-08
6.373650262e-08
6.482359676e-08
6.590705563e-08
6.698751912e-08
6.806224357e-08
6.912582607e-08
7.017105283e-08
7.118969586e-08
7.217318928e-08
7.311316686e-08
7.400184833e-08
7.483231954e-08
7.559881034e-08
7.629707719e-08
7.692503472e-08
8.268429861e-08
1.240535492e-07
5.629551006e-07
3.254940794e-06
7.581714734e-06
1.469909402e-05
5.131727536e-08
7.271902258e-08
9.008773084e-08
1.030847759e-07
1.114880381e-07
1.152438837e-07
1.14522259e-07
1.097620436e-07
1.016948669e-07
9.132920474e-08
7.988130101e-08
6.864780763e-08
5.883157465e-08
5.669812746e-08
5.797061142e-08
5.919438296e-08
6.037343694e-08
6.151566939e-08
6.263102454e-08
6.372935469e-08
6.481851501e-08
6.590312377e-08
6.698412049e-08
6.805902353e-08
6.912262209e-08
7.016782314e-08
7.118646346e-08
7.217000376e-08
7.311008193e-08
7.399890864e-08
7.482956583e-08
7.559628571e-08
7.629484403e-08
7.692316607e-08
8.446051645e-08
1.266137901e-07
6.582161163e-07
3.40681081e-06
7.827625659e-06
1.510390396e-05
5.134714123e-08
7.289169882e-08
9.04393785e-08
1.036472451e-07
1.122841429e-07
1.162816184e-07
1.157885549e-07
1.112170415e-07
1.032684739e-07
9.292189332e-08
8.137098839e-08
6.990358812e-08
5.973311058e-08
5.665567802e-08
5.793527108e-08
5.916631525e-08
6.035219634e-08
6.150031062e-08
6.262030604e-08
6.372196464e-08
6.48132714e-08
6.58990983e-08
6.698067713e-08
6.805578861e-08
6.911941851e-08
7.016459987e-08
7.118323844e-08
7.216682424e-08
7.310700135e-08
7.399597177e-08
7.482681451e-08
7.559376425e-08
7.62926148e-08
7.692130298e-08