/*--------------------------------*- C++ -*----------------------------------*\
| =========                 |                                                 |
| \\      /  F ield         | OpenFOAM: The Open Source CFD Toolbox           |
|  \\    /   O peration     | Version:  v2006                                 |
|   \\  /    A nd           | Website:  www.openfoam.com                      |
|    \\/     M anipulation  |                                                 |
\*---------------------------------------------------------------------------*/
FoamFile
{
    version     2.0;
    format      ascii;
    class       volScalarField;
    location    "0.09";
    object      CH3;
}
// * * * * * * * * * * * * * * * * * * * * * * * * * * * * * * * * * * * * * //

dimensions      [0 0 0 0 0 0 0];


internalField   nonuniform List<scalar> 
168000
(
3.156805816e-10
3.355643787e-10
3.531015718e-10
3.717925732e-10
3.90220846e-10
4.071203086e-10
4.244764041e-10
4.419096925e-10
4.554453263e-10
4.67306756e-10
4.783497091e-10
4.855412381e-10
4.897975264e-10
4.928309637e-10
4.915278285e-10
4.879557259e-10
4.826335987e-10
4.737171936e-10
4.634834941e-10
4.512183746e-10
4.375387243e-10
4.233944938e-10
4.263121803e-10
4.330634875e-10
4.398092829e-10
4.463333942e-10
4.528486084e-10
4.588935023e-10
4.648468377e-10
4.703771021e-10
4.755032507e-10
4.803471692e-10
4.846511712e-10
4.88463739e-10
4.918910897e-10
4.949010637e-10
4.987846932e-10
5.717773507e-10
3.68677643e-09
1.432190747e-08
3.070854442e-10
3.291879265e-10
3.436573702e-10
3.577239412e-10
3.729395707e-10
3.891826969e-10
4.067609298e-10
4.248647728e-10
4.412586878e-10
4.560177698e-10
4.690499245e-10
4.787733261e-10
4.852875915e-10
4.892633248e-10
4.894595516e-10
4.867549889e-10
4.816004876e-10
4.73429721e-10
4.631537965e-10
4.511624629e-10
4.375376709e-10
4.234175256e-10
4.262852245e-10
4.330454695e-10
4.397796091e-10
4.463221247e-10
4.528107351e-10
4.588836485e-10
4.648212259e-10
4.70356081e-10
4.754919753e-10
4.803256029e-10
4.846342552e-10
4.884538775e-10
4.918815012e-10
4.948903184e-10
5.015582608e-10
5.75733324e-10
4.024474867e-09
1.488638603e-08
3.003642755e-10
3.236629713e-10
3.370880812e-10
3.481402872e-10
3.602662102e-10
3.745787266e-10
3.912351059e-10
4.09386787e-10
4.273516392e-10
4.442368972e-10
4.59283785e-10
4.712913641e-10
4.799095504e-10
4.852745424e-10
4.868783748e-10
4.851400226e-10
4.804665393e-10
4.728559879e-10
4.628034485e-10
4.510087024e-10
4.375160948e-10
4.234204734e-10
4.262596922e-10
4.330259706e-10
4.397520737e-10
4.46307837e-10
4.527764216e-10
4.588711611e-10
4.647967573e-10
4.703353858e-10
4.754796516e-10
4.803047695e-10
4.846174961e-10
4.884437216e-10
4.918718544e-10
4.948797867e-10
5.043686196e-10
5.797767173e-10
4.370587743e-09
1.546356153e-08
2.955801526e-10
3.193143592e-10
3.32548921e-10
3.417632193e-10
3.512530793e-10
3.631746171e-10
3.781593403e-10
3.956315295e-10
4.141771279e-10
4.324550966e-10
4.492355794e-10
4.632679962e-10
4.738637416e-10
4.808084843e-10
4.838274307e-10
4.831463538e-10
4.791469085e-10
4.720894627e-10
4.623768316e-10
4.507830362e-10
4.374631665e-10
4.234060899e-10
4.262351447e-10
4.330054743e-10
4.397260617e-10
4.462913186e-10
4.527448505e-10
4.588566409e-10
4.647731794e-10
4.70314977e-10
4.75466447e-10
4.802845547e-10
4.846008947e-10
4.884333039e-10
4.918621524e-10
4.948694549e-10
5.072202266e-10
5.839078022e-10
4.725240798e-09
1.605387606e-08
2.920382802e-10
3.160144794e-10
3.29452258e-10
3.376490587e-10
3.45068164e-10
3.545942639e-10
3.675095015e-10
3.836987023e-10
4.020386643e-10
4.210292869e-10
4.391270989e-10
4.548842934e-10
4.673052246e-10
4.758823915e-10
4.803419928e-10
4.807968485e-10
4.776023115e-10
4.711424497e-10
4.618462069e-10
4.504880381e-10
4.373610219e-10
4.233743241e-10
4.262112897e-10
4.329843161e-10
4.397011323e-10
4.462731584e-10
4.527153952e-10
4.588405536e-10
4.647502972e-10
4.702948174e-10
4.754525027e-10
4.802648635e-10
4.845844488e-10
4.884226538e-10
4.918523987e-10
4.948593111e-10
5.101169396e-10
5.881271627e-10
5.088576109e-09
1.665775644e-08
2.892925729e-10
3.135350918e-10
3.273892562e-10
3.35127792e-10
3.410242831e-10
3.48383295e-10
3.590937925e-10
3.7359063e-10
3.9111827e-10
4.102165115e-10
4.291700974e-10
4.463162897e-10
4.603710154e-10
4.705486606e-10
4.764593119e-10
4.781102656e-10
4.758162996e-10
4.700164816e-10
4.611966036e-10
4.501187883e-10
4.372086584e-10
4.233179849e-10
4.261879323e-10
4.329627281e-10
4.396769715e-10
4.462537957e-10
4.526875754e-10
4.588232594e-10
4.647279606e-10
4.702748727e-10
4.754379378e-10
4.80245617e-10
4.845681537e-10
4.884117976e-10
4.918425972e-10
4.948493443e-10
5.13062139e-10
5.9243564e-10
5.460749985e-09
1.727561819e-08
2.870957744e-10
3.116696017e-10
3.26064755e-10
3.337206901e-10
3.385795578e-10
3.44098014e-10
3.526547722e-10
3.652320639e-10
3.815008603e-10
4.001925272e-10
4.195458693e-10
4.377259006e-10
4.531880215e-10
4.648765508e-10
4.722212811e-10
4.751066312e-10
4.737847992e-10
4.687093546e-10
4.60419362e-10
4.496715483e-10
4.370021272e-10
4.23234879e-10
4.261649442e-10
4.329408707e-10
4.396533568e-10
4.462335579e-10
4.526610235e-10
4.588050373e-10
4.647060541e-10
4.702551115e-10
4.754228526e-10
4.802267497e-10
4.845520036e-10
4.88400759e-10
4.918327521e-10
4.948395452e-10
5.160588252e-10
5.968342892e-10
5.841931314e-09
1.790786887e-08
2.852989519e-10
3.102622906e-10
3.252746429e-10
3.331126098e-10
3.373068855e-10
3.41344405e-10
3.479096239e-10
3.584824446e-10
3.731958497e-10
3.910658227e-10
4.103981449e-10
4.292554814e-10
4.458743888e-10
4.589415631e-10
4.676743796e-10
4.718091906e-10
4.715113152e-10
4.672191782e-10
4.595089702e-10
4.491395766e-10
4.367378589e-10
4.231210277e-10
4.261422394e-10
4.329188543e-10
4.396301321e-10
4.462126886e-10
4.526354579e-10
4.587861031e-10
4.646844887e-10
4.702355059e-10
4.754073316e-10
4.802082071e-10
4.845359912e-10
4.883895592e-10
4.918228676e-10
4.948299051e-10
5.191096973e-10
6.013243433e-10
6.232300177e-09
1.855491091e-08
2.838034425e-10
3.091985042e-10
3.248717659e-10
3.330684929e-10
3.369186046e-10
3.397974576e-10
3.445866658e-10
3.531810278e-10
3.661632684e-10
3.828909069e-10
4.018327331e-10
4.210248381e-10
4.385371822e-10
4.528208507e-10
4.628683736e-10
4.682446752e-10
4.69004594e-10
4.655459773e-10
4.58462042e-10
4.485175019e-10
4.364125889e-10
4.229727107e-10
4.26119771e-10
4.328967561e-10
4.396071886e-10
4.461913688e-10
4.526106627e-10
4.587666243e-10
4.646631955e-10
4.702160318e-10
4.75391446e-10
4.801899435e-10
4.845201092e-10
4.883782173e-10
4.918129483e-10
4.948204165e-10
5.22217217e-10
6.059071866e-10
6.63204672e-09
1.9217144e-08
2.8254022e-10
3.083943767e-10
3.247505255e-10
3.334240682e-10
3.371652622e-10
3.391652384e-10
3.424375165e-10
3.491531745e-10
3.603226545e-10
3.75679485e-10
3.939205747e-10
4.131304853e-10
4.312710759e-10
4.465893747e-10
4.578547694e-10
4.64442784e-10
4.662773224e-10
4.636921981e-10
4.572768882e-10
4.478007977e-10
4.360218461e-10
4.227862981e-10
4.260975117e-10
4.3287463e-10
4.395844515e-10
4.461697329e-10
4.525864726e-10
4.587467308e-10
4.646421211e-10
4.701966679e-10
4.753752557e-10
4.801719209e-10
4.845043496e-10
4.883667504e-10
4.918029985e-10
4.948110728e-10
5.253836594e-10
6.105843335e-10
7.04137025e-09
1.989496697e-08
2.814594297e-10
3.077883333e-10
3.24834844e-10
3.340637198e-10
3.378805958e-10
3.392716397e-10
3.412538071e-10
3.462288467e-10
3.555791819e-10
3.694124139e-10
3.867027122e-10
4.056465205e-10
4.24157585e-10
4.403174298e-10
4.526850919e-10
4.604353681e-10
4.633452554e-10
4.616627285e-10
4.55953376e-10
4.469861593e-10
4.355643461e-10
4.225584448e-10
4.26075427e-10
4.328525131e-10
4.395618701e-10
4.461478806e-10
4.52562761e-10
4.587265233e-10
4.646212241e-10
4.701773965e-10
4.753588112e-10
4.801541073e-10
4.844887048e-10
4.883551739e-10
4.917930228e-10
4.948018682e-10
5.286111556e-10
6.153574143e-10
7.460478538e-09
2.058877958e-08
2.805242336e-10
3.073347316e-10
3.25069167e-10
3.349034513e-10
3.389341358e-10
3.39924018e-10
3.408303646e-10
3.442472472e-10
3.518271931e-10
3.640524927e-10
3.801958416e-10
3.98626489e-10
4.172648068e-10
4.3406966e-10
4.474087499e-10
4.562556713e-10
4.602265273e-10
4.594647046e-10
4.544928366e-10
4.460712719e-10
4.350368129e-10
4.222862702e-10
4.260535109e-10
4.328304302e-10
4.395394103e-10
4.46125886e-10
4.525394304e-10
4.587060802e-10
4.646004722e-10
4.701582022e-10
4.753421552e-10
4.801364759e-10
4.844731672e-10
4.883435014e-10
4.917830254e-10
4.947927976e-10
5.319017275e-10
6.202281693e-10
7.889587301e-09
2.129898385e-08
2.797068841e-10
3.069993918e-10
3.254126196e-10
3.358823951e-10
3.402307248e-10
3.409965839e-10
3.410508193e-10
3.430699783e-10
3.489590435e-10
3.595393513e-10
3.743963023e-10
3.921057028e-10
4.106476277e-10
4.279029454e-10
4.420733224e-10
4.519373911e-10
4.569410241e-10
4.571072235e-10
4.528979903e-10
4.450548801e-10
4.344370834e-10
4.219672407e-10
4.260317566e-10
4.328083969e-10
4.395170503e-10
4.461038039e-10
4.525164065e-10
4.586854625e-10
4.645798402e-10
4.701390724e-10
4.753253233e-10
4.80119004e-10
4.844577295e-10
4.883317455e-10
4.917730108e-10
4.947838565e-10
5.35257318e-10
6.251984539e-10
8.328919864e-09
2.202598538e-08
2.789861264e-10
3.067564623e-10
3.258348756e-10
3.369559904e-10
3.416988288e-10
3.423844774e-10
3.417667608e-10
3.425498148e-10
3.468695502e-10
3.558127386e-10
3.692864263e-10
3.861041227e-10
4.043485863e-10
4.218665448e-10
4.367231211e-10
4.475139492e-10
4.53509803e-10
4.546010192e-10
4.51172852e-10
4.439367468e-10
4.337634587e-10
4.215987902e-10
4.26010162e-10
4.327864488e-10
4.394947775e-10
4.460816752e-10
4.524936318e-10
4.586647175e-10
4.645593083e-10
4.701199964e-10
4.753083457e-10
4.801016725e-10
4.844423848e-10
4.883199171e-10
4.917629831e-10
4.947750412e-10
5.386798159e-10
6.302702637e-10
8.778707022e-09
2.277019436e-08
2.783454303e-10
3.06586187e-10
3.263132948e-10
3.380914752e-10
3.43285e-10
3.440076309e-10
3.428806286e-10
3.426085528e-10
3.454657453e-10
3.528066205e-10
3.64840501e-10
3.80629165e-10
3.983990332e-10
4.160021289e-10
4.313984705e-10
4.430179183e-10
4.499545382e-10
4.519581317e-10
4.493226143e-10
4.427176018e-10
4.330147812e-10
4.211790094e-10
4.259887248e-10
4.327645724e-10
4.394725837e-10
4.460595304e-10
4.524710624e-10
4.586438822e-10
4.64538861e-10
4.701009658e-10
4.752912479e-10
4.800844653e-10
4.844271266e-10
4.883080261e-10
4.917529464e-10
4.947663486e-10
5.421710745e-10
6.354457958e-10
9.239187099e-09
2.353202658e-08
2.777717663e-10
3.064733295e-10
3.268308757e-10
3.392646569e-10
3.449490824e-10
3.458032515e-10
3.443069528e-10
3.431323383e-10
3.446580471e-10
3.504530327e-10
3.610197368e-10
3.756774505e-10
3.928203781e-10
4.103440565e-10
4.261358061e-10
4.384799413e-10
4.462971055e-10
4.491915932e-10
4.47353513e-10
4.413990783e-10
4.321904629e-10
4.207066155e-10
4.259674436e-10
4.327427844e-10
4.394504651e-10
4.460373921e-10
4.524486645e-10
4.586229854e-10
4.64518486e-10
4.700819731e-10
4.752740514e-10
4.800673684e-10
4.844119489e-10
4.882960816e-10
4.917429047e-10
4.947577757e-10
5.457329105e-10
6.508639445e-10
9.71060641e-09
2.431190432e-08
2.772547401e-10
3.064060408e-10
3.273747927e-10
3.404576354e-10
3.466608853e-10
3.477224426e-10
3.459769127e-10
3.440388737e-10
3.443431264e-10
3.486850188e-10
3.577863304e-10
3.712380933e-10
3.876255523e-10
4.049198134e-10
4.209674945e-10
4.339283404e-10
4.425592047e-10
4.463151314e-10
4.452726782e-10
4.399836349e-10
4.312904344e-10
4.201801361e-10
4.259463175e-10
4.327210911e-10
4.394284201e-10
4.460152774e-10
4.524264122e-10
4.586020496e-10
4.644981742e-10
4.700630122e-10
4.752567744e-10
4.800503704e-10
4.843968459e-10
4.882840915e-10
4.917328617e-10
4.947493201e-10
5.49367061e-10
9.474095446e-10
1.019322005e-08
2.511025708e-08
2.767859668e-10
3.063750282e-10
3.279353471e-10
3.416571702e-10
3.48397731e-10
3.497272876e-10
3.478357853e-10
3.45265001e-10
3.444896312e-10
3.47445572e-10
3.550991888e-10
3.672941692e-10
3.828203573e-10
3.997505056e-10
4.159210269e-10
4.293897701e-10
4.387619978e-10
4.433428923e-10
4.430879798e-10
4.384744746e-10
4.303151594e-10
4.195986568e-10
4.259253448e-10
4.326994975e-10
4.394064486e-10
4.459931988e-10
4.524042854e-10
4.585810923e-10
4.644779183e-10
4.700440782e-10
4.75239432e-10
4.80033461e-10
4.843818126e-10
4.882720631e-10
4.917228211e-10
4.947409798e-10
5.530753224e-10
1.251065658e-09
1.068729171e-08
2.592752165e-08
2.763586171e-10
3.06372957e-10
3.285051836e-10
3.42853483e-10
3.501425741e-10
3.517881835e-10
3.498385555e-10
3.467509564e-10
3.450118578e-10
3.466758314e-10
3.529159898e-10
3.638271082e-10
3.784048561e-10
3.94851539e-10
4.110196741e-10
4.24888495e-10
4.349258398e-10
4.402891886e-10
4.408078712e-10
4.368754592e-10
4.292656133e-10
4.191128633e-10
4.25904523e-10
4.326780072e-10
4.393845481e-10
4.459711657e-10
4.523822689e-10
4.585601274e-10
4.644577121e-10
4.700251674e-10
4.752220371e-10
4.800166317e-10
4.843668441e-10
4.882600028e-10
4.917127864e-10
4.947327527e-10
5.568594701e-10
1.561988142e-09
1.119308999e-08
2.676414174e-08
2.759670775e-10
3.063939998e-10
3.290787222e-10
3.440393851e-10
3.518826321e-10
3.538820439e-10
3.519487076e-10
3.484473332e-10
3.458539079e-10
3.463080475e-10
3.51193522e-10
3.608091616e-10
3.743737473e-10
3.902332469e-10
4.062827295e-10
4.204462377e-10
4.31070085e-10
4.371682737e-10
4.384412362e-10
4.351910207e-10
4.28143251e-10
4.190931944e-10
4.258838489e-10
4.326566237e-10
4.393627346e-10
4.459491862e-10
4.523603509e-10
4.585391657e-10
4.644375508e-10
4.700062769e-10
4.752046005e-10
4.799998752e-10
4.843519361e-10
4.882479164e-10
4.917027609e-10
4.947246373e-10
5.607212646e-10
1.880337896e-09
1.171088862e-08
2.762056617e-08
2.756066955e-10
3.064334986e-10
3.29651735e-10
3.452096374e-10
3.53608371e-10
3.559909182e-10
3.541367981e-10
3.503134555e-10
3.469708279e-10
3.46319053e-10
3.498944074e-10
3.582168711e-10
3.707184046e-10
3.859016566e-10
4.017257837e-10
4.160821245e-10
4.272129923e-10
4.339941293e-10
4.359972438e-10
4.334260732e-10
4.269499613e-10
4.190736662e-10
4.258633185e-10
4.326353487e-10
4.393409956e-10
4.459272655e-10
4.523385225e-10
4.585182156e-10
4.644174307e-10
4.699874047e-10
4.751871313e-10
4.799831849e-10
4.843370846e-10
4.882358093e-10
4.916927479e-10
4.947166324e-10
5.646624571e-10
2.206280781e-09
1.224096717e-08
2.849724437e-08
2.75273585e-10
3.064877104e-10
3.302210291e-10
3.463604751e-10
3.553127396e-10
3.58100875e-10
3.56378999e-10
3.523148774e-10
3.483195312e-10
3.466509512e-10
3.489795356e-10
3.560236532e-10
3.674271878e-10
3.818591278e-10
3.97361074e-10
4.1181304e-10
4.233712646e-10
4.307803067e-10
4.334852178e-10
4.315859263e-10
4.256880449e-10
4.190542595e-10
4.258429247e-10
4.326141829e-10
4.393193381e-10
4.459054079e-10
4.523167769e-10
4.584972837e-10
4.643973485e-10
4.699685491e-10
4.751696372e-10
4.799665554e-10
4.843222859e-10
4.882236862e-10
4.916827505e-10
4.969039181e-10
5.686847948e-10
2.539987381e-09
1.278361038e-08
2.939464501e-08
2.74964477e-10
3.065536127e-10
3.307842064e-10
3.474892554e-10
3.569905882e-10
3.602011427e-10
3.586560474e-10
3.544226915e-10
3.498630655e-10
3.472644348e-10
3.484132496e-10
3.542025193e-10
3.644869541e-10
3.781049996e-10
3.931978201e-10
4.076537752e-10
4.195598238e-10
4.275398845e-10
4.309145249e-10
4.296762031e-10
4.243601655e-10
4.190349533e-10
4.258226611e-10
4.325931265e-10
4.39297764e-10
4.458836168e-10
4.522951086e-10
4.584763753e-10
4.643773018e-10
4.69949709e-10
4.751521247e-10
4.799499818e-10
4.843075368e-10
4.882115514e-10
4.916727718e-10
4.996888911e-10
5.727900315e-10
2.881632968e-09
1.333910896e-08
3.031325015e-08
2.746766036e-10
3.066287559e-10
3.313394866e-10
3.485941765e-10
3.586382352e-10
3.62283445e-10
3.60952412e-10
3.56612741e-10
3.515696028e-10
3.481228334e-10
3.481466804e-10
3.527259992e-10
3.618822101e-10
3.746359896e-10
3.892424866e-10
4.036166696e-10
4.157924056e-10
4.2428529e-10
4.282944665e-10
4.277027612e-10
4.229693052e-10
4.19015724e-10
4.258025191e-10
4.325721785e-10
4.392762748e-10
4.458618946e-10
4.522735139e-10
4.584554945e-10
4.643572889e-10
4.699308833e-10
4.751345993e-10
4.799334598e-10
4.842928343e-10
4.881994088e-10
4.916628146e-10
5.025329529e-10
5.769799295e-10
3.231397416e-09
1.390775993e-08
3.125355211e-08
2.744076071e-10
3.067111482e-10
3.318855719e-10
3.4967408e-10
3.602531236e-10
3.643414778e-10
3.632556072e-10
3.588649219e-10
3.534122427e-10
3.491978837e-10
3.481762259e-10
3.515713334e-10
3.595966403e-10
3.714467338e-10
3.854990955e-10
3.997117455e-10
4.120815688e-10
4.210282602e-10
4.256341889e-10
4.256716184e-10
4.215187196e-10
4.189965461e-10
4.257824887e-10
4.325513374e-10
4.392548719e-10
4.458402435e-10
4.522519895e-10
4.584346444e-10
4.643373082e-10
4.699120714e-10
4.751170657e-10
4.799169859e-10
4.842781757e-10
4.88187262e-10
4.916528818e-10
5.054373151e-10
5.812562636e-10
3.589465166e-09
1.448986688e-08
3.221605372e-08
2.74155467e-10
3.067991636e-10
3.324215324e-10
3.507283026e-10
3.618335632e-10
3.663704941e-10
3.65555608e-10
3.61162402e-10
3.55367385e-10
3.504604678e-10
3.48458418e-10
3.508721884e-10
3.583933537e-10
3.685302726e-10
3.819695751e-10
3.959471503e-10
4.084384346e-10
4.177797796e-10
4.229426055e-10
4.235888846e-10
4.200118932e-10
4.189773923e-10
4.257625587e-10
4.325306005e-10
4.39233556e-10
4.458186649e-10
4.522305332e-10
4.584138277e-10
4.643173587e-10
4.698932729e-10
4.750995277e-10
4.799005567e-10
4.842635586e-10
4.881751143e-10
4.916429759e-10
5.084032102e-10
5.856208233e-10
3.956025212e-09
1.508574008e-08
3.320126866e-08
2.73918443e-10
3.068914718e-10
3.329467263e-10
3.517565546e-10
3.633785311e-10
3.683669771e-10
3.678443882e-10
3.634911001e-10
3.574146064e-10
3.518852209e-10
3.489674769e-10
3.50475944e-10
3.580791468e-10
3.658783191e-10
3.786540639e-10
3.923292988e-10
4.048727501e-10
4.145500497e-10
4.202283323e-10
4.214606993e-10
4.184524959e-10
4.189582336e-10
4.257427165e-10
4.325099644e-10
4.392123275e-10
4.457971597e-10
4.522091432e-10
4.583930464e-10
4.642974393e-10
4.698744878e-10
4.750819887e-10
4.798841693e-10
4.842489808e-10
4.881629687e-10
4.916330995e-10
5.114318918e-10
5.900754161e-10
4.331271124e-09
1.569569665e-08
3.420972175e-08
2.73695028e-10
3.069869818e-10
3.334607382e-10
3.527588262e-10
3.648875164e-10
3.703283849e-10
3.701155553e-10
3.658392642e-10
3.595363195e-10
3.534498057e-10
3.496789572e-10
3.500798912e-10
3.577617318e-10
3.6509344e-10
3.755512159e-10
3.888630349e-10
4.013929473e-10
4.113484891e-10
4.174996332e-10
4.192931756e-10
4.168443417e-10
4.189390399e-10
4.257229482e-10
4.324894246e-10
4.39191186e-10
4.457757274e-10
4.521878179e-10
4.58372302e-10
4.642775493e-10
4.698557161e-10
4.750644514e-10
4.798678213e-10
4.842344403e-10
4.881508279e-10
4.916232553e-10
5.145246349e-10
5.946218693e-10
4.715401066e-09
1.632006069e-08
3.524194924e-08
2.734839111e-10
3.070847965e-10
3.339633215e-10
3.537353252e-10
3.663604013e-10
3.722529487e-10
3.72364054e-10
3.681971123e-10
3.617174284e-10
3.551346948e-10
3.505718662e-10
3.496846788e-10
3.574417537e-10
3.648484001e-10
3.726586309e-10
3.855517944e-10
3.98006186e-10
4.081837703e-10
4.147643696e-10
4.170923494e-10
4.151913487e-10
4.189197797e-10
4.257032389e-10
4.324689761e-10
4.391701307e-10
4.457543674e-10
4.521665562e-10
4.583515959e-10
4.642576882e-10
4.698369578e-10
4.750469181e-10
4.798515104e-10
4.842199355e-10
4.881386946e-10
4.916134456e-10
5.176827361e-10
5.99262032e-10
5.108617841e-09
1.695916348e-08
3.629849913e-08
2.732839462e-10
3.071841778e-10
3.344543653e-10
3.546864159e-10
3.677973674e-10
3.741395124e-10
3.745859235e-10
3.705565171e-10
3.639449616e-10
3.569226372e-10
3.516268212e-10
3.497859739e-10
3.571198051e-10
3.645992091e-10
3.717641431e-10
3.823977278e-10
3.947185233e-10
4.050637475e-10
4.120299386e-10
4.148641367e-10
4.134975027e-10
4.189004206e-10
4.256835723e-10
4.324486129e-10
4.391491611e-10
4.457330899e-10
4.521453577e-10
4.583309289e-10
4.642378555e-10
4.69818213e-10
4.750293909e-10
4.798352345e-10
4.842054647e-10
4.881265711e-10
4.91603673e-10
5.209075149e-10
6.039977764e-10
5.511128934e-09
1.761334358e-08
3.737993143e-08
2.730941279e-10
3.072845186e-10
3.349338648e-10
3.556125774e-10
3.691988218e-10
3.759874045e-10
3.767780976e-10
3.729107378e-10
3.662077538e-10
3.587982869e-10
3.528255454e-10
3.500825077e-10
3.56796421e-10
3.64346352e-10
3.715772964e-10
3.794019642e-10
3.915352301e-10
4.019951389e-10
4.093033202e-10
4.126143035e-10
4.121154417e-10
4.188809293e-10
4.256639315e-10
4.324283283e-10
4.391282751e-10
4.457118828e-10
4.521242215e-10
4.583103021e-10
4.64218051e-10
4.697994822e-10
4.750118714e-10
4.798189918e-10
4.841910267e-10
4.881144596e-10
4.915939399e-10
5.242003136e-10
6.088310001e-10
5.923146565e-09
1.828294705e-08
3.848681853e-08
2.729135705e-10
3.073853197e-10
3.354018962e-10
3.56514371e-10
3.705653402e-10
3.777963357e-10
3.789382426e-10
3.752541993e-10
3.684962019e-10
3.607480631e-10
3.541515679e-10
3.505537161e-10
3.56472098e-10
3.640902908e-10
3.713860726e-10
3.784148037e-10
3.884605707e-10
3.98983916e-10
4.065910367e-10
4.103484303e-10
4.120940109e-10
4.188612719e-10
4.256442984e-10
4.324081142e-10
4.391074705e-10
4.456907497e-10
4.521031468e-10
4.582897158e-10
4.641982745e-10
4.697807654e-10
4.749943609e-10
4.798027808e-10
4.841766201e-10
4.881023623e-10
4.915842486e-10
5.275624985e-10
6.137636275e-10
6.344887762e-09
1.896832755e-08
3.961974544e-08
2.727414906e-10
3.074861709e-10
3.358585972e-10
3.573924161e-10
3.718976228e-10
3.795663179e-10
3.810646248e-10
3.775823109e-10
3.708020622e-10
3.627599862e-10
3.555900406e-10
3.511836666e-10
3.561472907e-10
3.638314558e-10
3.711908157e-10
3.782754871e-10
3.854977604e-10
3.960355521e-10
4.038991514e-10
4.080718674e-10
4.120720092e-10
4.188414147e-10
4.256246541e-10
4.323879624e-10
4.390867444e-10
4.456696899e-10
4.520821332e-10
4.582691706e-10
4.641785256e-10
4.697620631e-10
4.749768608e-10
4.797866001e-10
4.84162244e-10
4.880902811e-10
4.915746015e-10
5.309954614e-10
6.187976122e-10
6.776574437e-09
1.966984655e-08
4.077931015e-08
2.725771929e-10
3.075867354e-10
3.363041518e-10
3.582473702e-10
3.731964592e-10
3.812975984e-10
3.831560022e-10
3.798913143e-10
3.731182756e-10
3.648235267e-10
3.571276519e-10
3.519572808e-10
3.558222378e-10
3.635702327e-10
3.70991856e-10
3.781320683e-10
3.850596901e-10
3.931548953e-10
4.012332748e-10
4.057897402e-10
4.120493882e-10
4.188213239e-10
4.25604979e-10
4.323678639e-10
4.390660937e-10
4.456487025e-10
4.520611799e-10
4.582486669e-10
4.641588045e-10
4.697433755e-10
4.74959372e-10
4.797704482e-10
4.841478974e-10
4.880782178e-10
4.915650011e-10
5.345006211e-10
6.239349413e-10
7.218433468e-09
2.03878735e-08
4.196612391e-08
2.724200584e-10
3.076867378e-10
3.367387786e-10
3.590799141e-10
3.744627018e-10
3.829906077e-10
3.852115355e-10
3.821781538e-10
3.754388092e-10
3.669294585e-10
3.587527327e-10
3.528635354e-10
3.55497526e-10
3.633070117e-10
3.707895088e-10
3.779847659e-10
3.849578626e-10
3.91785034e-10
3.98598562e-10
4.05274658e-10
4.120261008e-10
4.188009657e-10
4.255852531e-10
4.323478088e-10
4.390455144e-10
4.456277862e-10
4.520402863e-10
4.582282048e-10
4.64139111e-10
4.697247029e-10
4.749418953e-10
4.797543241e-10
4.841335794e-10
4.880661744e-10
4.915554496e-10
5.380794258e-10
6.291776416e-10
7.670696844e-09
2.112278598e-08
4.318081162e-08
2.722695337e-10
3.077859531e-10
3.37162721e-10
3.598907395e-10
3.756972454e-10
3.846459168e-10
3.872307138e-10
3.844403647e-10
3.777585049e-10
3.690696296e-10
3.604544977e-10
3.538894608e-10
3.551733754e-10
3.630421423e-10
3.705840879e-10
3.778337981e-10
3.848525023e-10
3.917144736e-10
3.984920163e-10
4.052428341e-10
4.120021027e-10
4.187803068e-10
4.255654558e-10
4.323277867e-10
4.390250023e-10
4.456069395e-10
4.520194518e-10
4.582077845e-10
4.641194451e-10
4.697060456e-10
4.749244313e-10
4.797382266e-10
4.841192895e-10
4.880541524e-10
4.915459496e-10
5.417333568e-10
6.345277929e-10
8.133601826e-09
2.187496998e-08
4.442401207e-08
2.721251233e-10
3.078841992e-10
3.375762396e-10
3.606805367e-10
3.769010131e-10
3.862642024e-10
3.892132929e-10
3.866759786e-10
3.800729561e-10
3.712368384e-10
3.622231629e-10
3.550234586e-10
3.548500717e-10
3.627759517e-10
3.703758825e-10
3.776793799e-10
3.847437311e-10
3.916410314e-10
3.984433285e-10
4.052096436e-10
4.119773519e-10
4.187593141e-10
4.255455661e-10
4.323077866e-10
4.390045528e-10
4.455861606e-10
4.519986756e-10
4.58187406e-10
4.640998069e-10
4.696874039e-10
4.749069805e-10
4.797221549e-10
4.841050268e-10
4.880421534e-10
4.915365033e-10
5.454639322e-10
6.39987553e-10
8.607391235e-09
2.264482004e-08
4.569637841e-08
2.719863817e-10
3.079813296e-10
3.379796084e-10
3.614500001e-10
3.78074925e-10
3.878462233e-10
3.911592459e-10
3.888834461e-10
3.823784078e-10
3.73424736e-10
3.640499136e-10
3.56255019e-10
3.545278725e-10
3.625087448e-10
3.701651709e-10
3.775217222e-10
3.846316745e-10
3.915647549e-10
3.983925095e-10
4.051750521e-10
4.119518088e-10
4.187379552e-10
4.255255628e-10
4.322877971e-10
4.389841605e-10
4.455654476e-10
4.51977957e-10
4.581670693e-10
4.640801962e-10
4.696687784e-10
4.748895433e-10
4.79706108e-10
4.84090791e-10
4.880301791e-10
4.915271133e-10
5.4927271e-10
6.45559207e-10
9.092313814e-09
2.343273967e-08
4.699857849e-08
2.718529074e-10
3.080772278e-10
3.383731093e-10
3.621998153e-10
3.792199032e-10
3.893927934e-10
3.930687212e-10
3.910615715e-10
3.846716713e-10
3.756277376e-10
3.659268277e-10
3.575745267e-10
3.542070049e-10
3.622408081e-10
3.699522138e-10
3.773610311e-10
3.845164605e-10
3.914856973e-10
3.983395581e-10
4.051390295e-10
4.11925436e-10
4.187161986e-10
4.255054246e-10
4.32267806e-10
4.3896382e-10
4.45544798e-10
4.519572949e-10
4.581467744e-10
4.640606128e-10
4.696501694e-10
4.748721202e-10
4.79690085e-10
4.840765816e-10
4.880182308e-10
4.91517782e-10
5.531612798e-10
6.512452633e-10
9.58862484e-09
2.423914162e-08
4.833129523e-08
2.717243379e-10
3.081718021e-10
3.387570269e-10
3.629306527e-10
3.803368654e-10
3.909047658e-10
3.949420081e-10
3.932094581e-10
3.86950051e-10
3.778409417e-10
3.678468059e-10
3.58973221e-10
3.53887658e-10
3.619722695e-10
3.697372455e-10
3.771975051e-10
3.84398218e-10
3.914039171e-10
3.982844792e-10
4.051015506e-10
4.118981988e-10
4.186940135e-10
4.254851299e-10
4.322478012e-10
4.389435251e-10
4.455242093e-10
4.519366883e-10
4.581265209e-10
4.640410566e-10
4.696315773e-10
4.748547113e-10
4.796740854e-10
4.840623981e-10
4.880063101e-10
4.915085117e-10
5.571312184e-10
7.805717687e-10
1.009658703e-08
2.506444844e-08
4.9695227e-08
2.716003444e-10
3.082649815e-10
3.391316465e-10
3.636431664e-10
3.814267172e-10
3.92383019e-10
3.967795096e-10
3.953264621e-10
3.892112792e-10
3.800600532e-10
3.698035042e-10
3.604433266e-10
3.53747237e-10
3.617035386e-10
3.695205159e-10
3.770313395e-10
3.842770769e-10
3.913194774e-10
3.982272827e-10
4.050625942e-10
4.118700652e-10
4.186713701e-10
4.254646573e-10
4.322277698e-10
4.389232695e-10
4.455036788e-10
4.519161363e-10
4.581063087e-10
4.640215277e-10
4.696130022e-10
4.748373169e-10
4.796581082e-10
4.840482402e-10
4.879944183e-10
4.916476641e-10
5.61184121e-10
1.105414354e-09
1.06164716e-08
2.590909281e-08
5.109108799e-08
2.714806285e-10
3.083567123e-10
3.394972516e-10
3.643379934e-10
3.824903461e-10
3.93828446e-10
3.985817183e-10
3.974121521e-10
3.91453458e-10
3.822813045e-10
3.717912036e-10
3.619775362e-10
3.546379161e-10
3.614347499e-10
3.693022475e-10
3.768627194e-10
3.841531667e-10
3.912324446e-10
3.981679842e-10
4.050221434e-10
4.118410055e-10
4.186482397e-10
4.254439857e-10
4.322076987e-10
4.389030465e-10
4.454832034e-10
4.518956374e-10
4.580861374e-10
4.640020258e-10
4.695944444e-10
4.748199373e-10
4.796421531e-10
4.840341077e-10
4.879825568e-10
4.945063821e-10
5.653216743e-10
1.437984889e-09
1.114855703e-08
2.677351759e-08
5.25196085e-08
2.713649184e-10
3.084469556e-10
3.398541225e-10
3.65015754e-10
3.835286169e-10
3.952419448e-10
4.003491975e-10
3.994662751e-10
3.936750082e-10
3.845013908e-10
3.738047461e-10
3.635690724e-10
3.556168872e-10
3.611661001e-10
3.690826489e-10
3.766918305e-10
3.84026617e-10
3.911428881e-10
3.981066034e-10
4.049801854e-10
4.118109927e-10
4.18624595e-10
4.254230937e-10
4.321875748e-10
4.388828489e-10
4.454627797e-10
4.518751904e-10
4.580660067e-10
4.639825509e-10
4.695759039e-10
4.748025726e-10
4.796262193e-10
4.840200002e-10
4.87970727e-10
4.974259628e-10
5.695455818e-10
1.778450165e-09
1.169312639e-08
2.765817584e-08
5.398153523e-08
2.71252966e-10
3.08535684e-10
3.402025332e-10
3.656770427e-10
3.845423768e-10
3.966244131e-10
4.02082565e-10
4.014887277e-10
3.958746263e-10
3.867174164e-10
3.75839486e-10
3.652117286e-10
3.566769942e-10
3.608977692e-10
3.688619188e-10
3.765188435e-10
3.838975556e-10
3.910508807e-10
3.980431637e-10
4.04936711e-10
4.117800023e-10
4.186004095e-10
4.254019608e-10
4.321673845e-10
4.388626694e-10
4.454424043e-10
4.518547938e-10
4.580459154e-10
4.639631034e-10
4.695573808e-10
4.747852229e-10
4.796103063e-10
4.840059177e-10
4.879589299e-10
5.00407615e-10
5.738575588e-10
2.12698205e-09
1.225046776e-08
2.856353067e-08
5.547763168e-08
2.711445446e-10
3.086228805e-10
3.405427518e-10
3.663224335e-10
3.85532449e-10
3.979767411e-10
4.037824798e-10
4.034795316e-10
3.980512482e-10
3.889268496e-10
3.778912459e-10
3.668998273e-10
3.578115934e-10
3.606299209e-10
3.686402469e-10
3.763439268e-10
3.837661081e-10
3.909564969e-10
3.979776922e-10
4.048917146e-10
4.117480125e-10
4.185756584e-10
4.253805663e-10
4.321471143e-10
4.388425002e-10
4.454220733e-10
4.518344457e-10
4.580258624e-10
4.639436836e-10
4.695388754e-10
4.747678882e-10
4.795944137e-10
4.8399186e-10
4.879471667e-10
5.034525711e-10
5.782593347e-10
2.483757406e-09
1.282087483e-08
2.949005543e-08
5.700867847e-08
2.710394462e-10
3.087085363e-10
3.408750401e-10
3.669524814e-10
3.864996294e-10
3.992998073e-10
4.054496307e-10
4.054388131e-10
4.002040173e-10
3.911274823e-10
3.799562756e-10
3.686281807e-10
3.590145066e-10
3.603627004e-10
3.684177784e-10
3.761672396e-10
3.836323979e-10
3.908598129e-10
3.979102189e-10
4.048451939e-10
4.117150039e-10
4.185503179e-10
4.253588902e-10
4.321267503e-10
4.388223336e-10
4.454017827e-10
4.518141441e-10
4.580058473e-10
4.639242913e-10
4.695203877e-10
4.747505685e-10
4.795785409e-10
4.839778269e-10