/*--------------------------------*- C++ -*----------------------------------*\
| =========                 |                                                 |
| \\      /  F ield         | OpenFOAM: The Open Source CFD Toolbox           |
|  \\    /   O peration     | Version:  v2006                                 |
|   \\  /    A nd           | Website:  www.openfoam.com                      |
|    \\/     M anipulation  |                                                 |
\*---------------------------------------------------------------------------*/
FoamFile
{
    version     2.0;
    format      ascii;
    class       volScalarField;
    location    "0.09";
    object      CH3OCH3;
}
// * * * * * * * * * * * * * * * * * * * * * * * * * * * * * * * * * * * * * //

dimensions      [0 0 0 0 0 0 0];


internalField   nonuniform List<scalar> 
168000
(
0.08376914526
0.08380765314
0.08383669807
0.08386271288
0.08388780157
0.08391285105
0.08393808183
0.08396376054
0.08399034754
0.08401782185
0.08404621175
0.08407570977
0.08410634668
0.08413808796
0.08417087391
0.08420479745
0.08423978816
0.08427549529
0.08431237608
0.08434949312
0.08438753798
0.08442558903
0.08446402561
0.08450203932
0.08454002199
0.08457675645
0.08461344082
0.08464747701
0.08468099768
0.08471213622
0.08474099936
0.08476827338
0.08479250736
0.08481397429
0.08483327223
0.08485022009
0.08486447521
0.08487634723
0.08488373004
0.08488299721
0.08371669439
0.08376928714
0.08381029413
0.08384504653
0.08387629556
0.08390555469
0.08393367646
0.08396129731
0.08398901018
0.08401713772
0.08404591188
0.08407557752
0.08410626754
0.08413801748
0.0841708132
0.0842047187
0.0842396665
0.08427542399
0.08431221168
0.08434940884
0.08438738261
0.08442548452
0.08446387384
0.08450193787
0.08453985491
0.084576693
0.08461322757
0.08464742153
0.08468085347
0.08471201786
0.08474093587
0.08476815195
0.08479241211
0.08481391876
0.08483321824
0.08485015959
0.08486443352
0.08487633996
0.08488343855
0.0848825559
0.08368294675
0.08373887146
0.08378628659
0.08382734276
0.0838638562
0.08389717967
0.08392831196
0.08395806572
0.08398716203
0.08401614522
0.08404542786
0.08407535384
0.08410615373
0.08413793945
0.08417075014
0.08420464172
0.08423955891
0.08427533976
0.08431206697
0.08434931135
0.08438723879
0.08442537232
0.08446373008
0.08450182808
0.08453969987
0.08457661255
0.08461303437
0.08464735122
0.0846807157
0.08471190134
0.08474086648
0.08476803464
0.08479231775
0.08481386158
0.08483316392
0.08485010029
0.08486439264
0.08487633311
0.08488314083
0.08488210637
0.08365894709
0.08371487592
0.08376536163
0.08381057632
0.08385123163
0.08388816778
0.08392221569
0.08395417684
0.08398482236
0.08401482567
0.0840447407
0.0840750196
0.08410599007
0.08413784496
0.0841706817
0.08420456598
0.08423946099
0.08427524968
0.08431193564
0.0843492064
0.08438710301
0.08442525538
0.08446359186
0.08450171267
0.08453955341
0.08457651954
0.0846128566
0.08464726946
0.08468058295
0.08471178642
0.08474079213
0.08476792082
0.08479222428
0.08481380292
0.08483310929
0.08485004212
0.08486435257
0.08487632675
0.08488283682
0.08488164836
0.083640484
0.08369554002
0.08374733752
0.08379515643
0.08383890802
0.0838788873
0.08391561635
0.0839497544
0.0839820344
0.08401317952
0.08404383819
0.08407455923
0.08410576302
0.08413772484
0.084170604
0.08420448996
0.08423936961
0.08427515741
0.0843118137
0.08434909754
0.0843869726
0.08442513575
0.08446345754
0.08450159354
0.08453941304
0.08457641729
0.08461269075
0.08464717888
0.08468045411
0.08471167291
0.08474071362
0.08476780995
0.08479213168
0.08481374296
0.08483305437
0.084849985
0.08486431332
0.08487632094
0.08488252641
0.08488118161
0.08362558076
0.08367957968
0.08373178792
0.08378116936
0.08382715976
0.0838696123
0.08390871737
0.08394492327
0.0839788558
0.08401122161
0.08404271585
0.08407396125
0.08410546089
0.08413757023
0.08417051253
0.08420441153
0.08423928233
0.08427506495
0.08431169863
0.08434898705
0.08438684616
0.08442501463
0.08446332603
0.08450147199
0.084539277
0.08457630827
0.08461253411
0.08464708151
0.08468032834
0.08471156061
0.08474063161
0.08476770158
0.08479203993
0.08481368183
0.08483299919
0.08484992888
0.08486427489
0.08487631575
0.08488220954
0.08488070588
0.08361318063
0.08366612725
0.08371828066
0.08376854596
0.08381611576
0.08386052959
0.08390168484
0.08393979983
0.08397535071
0.0840089769
0.0840413765
0.0840732185
0.08410507404
0.08413737296
0.08417040249
0.08420432807
0.08423919706
0.08427497323
0.08431158879
0.08434887632
0.0843867228
0.08442489292
0.08446319659
0.08450134892
0.08453914404
0.08457619432
0.08461238461
0.08464697891
0.08468020499
0.08471144935
0.08474054667
0.08476759535
0.08479194899
0.08481361968
0.08483294375
0.08484987371
0.08486423728
0.08487631123
0.08488188609
0.08488022095
0.08360263991
0.08365459174
0.08370644743
0.0837571584
0.08380581377
0.08385175614
0.08389464664
0.08393448662
0.08397158396
0.08400647665
0.08403982899
0.08407232796
0.08410459515
0.08413712574
0.08417026899
0.0842042367
0.08423911182
0.08427488249
0.08431148306
0.08434876624
0.08438660193
0.08442477121
0.08446306875
0.08450122495
0.08453901327
0.08457607681
0.08461224066
0.0846468723
0.08468008357
0.08471133895
0.08474045928
0.08476749094
0.08479185883
0.08481355661
0.0848328881
0.08484981943
0.08486420051
0.08487630745
0.08488155597
0.08487972659
0.0835935305
0.08364455832
0.08369599078
0.08374686326
0.08379624325
0.08384335841
0.08388769624
0.08392906943
0.08396761682
0.08400375525
0.0840380868
0.08407129041
0.08410401916
0.08413682237
0.08417010731
0.08420413435
0.0842390247
0.08427479247
0.08431138061
0.08434865733
0.08438648323
0.0844246499
0.08446294224
0.08450110053
0.08453888408
0.08457595677
0.08461210105
0.08464676262
0.08467996367
0.0847112293
0.08474036983
0.08476738811
0.08479176941
0.08481349275
0.08483283224
0.084849766
0.08486416456
0.08487630447
0.08488121905
0.08487922258
0.08358555175
0.08363572669
0.08368667459
0.08373752374
0.08378736365
0.0838353651
0.08388089847
0.08392361769
0.08396350494
0.08400084782
0.0840361666
0.08407010977
0.08410334324
0.08413645781
0.08416991303
0.08420401789
0.08423893373
0.08427470261
0.08431128075
0.08434854987
0.0843863665
0.08442452926
0.08446281691
0.08450097594
0.08453875606
0.08457583495
0.08461196484
0.08464665061
0.08467984501
0.08471112027
0.08474027867
0.08476728663
0.08479168067
0.08481342819
0.08483277622
0.08484971339
0.08486412945
0.08487630233
0.08488087523
0.08487870871
0.08357848468
0.08362787364
0.08367831164
0.08372901725
0.08377912427
0.08382778669
0.08387429669
0.08391818577
0.08395929677
0.0839977884
0.08403408693
0.08406879254
0.0841025666
0.08413602825
0.0841696822
0.08420388427
0.08423883692
0.08427461208
0.08431118285
0.08434844394
0.08438625156
0.08442440948
0.08446269256
0.08450085141
0.08453862891
0.0845757119
0.08461183133
0.08464653683
0.08467972735
0.08471101177
0.08474018608
0.08476718633
0.08479159258
0.08481336301
0.08483272005
0.08484966157
0.08486409517
0.0848763011
0.08488052439
0.08487818478
0.08357216533
0.08362082939
0.08367075275
0.08372123704
0.08377147026
0.0838206143
0.08386791502
0.08391281478
0.08395503351
0.0839946087
0.08403186713
0.08406734711
0.08410169025
0.08413553111
0.08416941134
0.08420373055
0.0842387323
0.08427451993
0.08431108629
0.08434833953
0.08438613832
0.08442429067
0.08446256916
0.08450072707
0.08453850245
0.08457558806
0.08461169997
0.08464642172
0.08467961051
0.08471090369
0.0847400923
0.08476708705
0.0847915051
0.08481329728
0.08483266376
0.08484961049
0.08486406175
0.08487630083
0.0848801664
0.08487765058
0.08356646813
0.08361446234
0.08366387805
0.08371409146
0.08376434792
0.0838138326
0.08386177002
0.08390753563
0.08395074949
0.08399133782
0.08402952655
0.08406578319
0.08410071674
0.0841349649
0.0841690976
0.08420355403
0.0842386179
0.08427442506
0.08431099043
0.08434823652
0.08438602669
0.08442417291
0.08446244667
0.08450060301
0.08453837655
0.08457546373
0.08461157033
0.08464630563
0.08467949434
0.08471079598
0.08473999753
0.08476698868
0.08479141817
0.08481323109
0.08483260737
0.08484956015
0.08486402918
0.08487630158
0.08487980114
0.08487710591
0.0835612951
0.08360866876
0.08365759038
0.08370750236
0.08375770675
0.083807421
0.08385586517
0.08390236833
0.08394647244
0.08398800136
0.08402708386
0.0840641113
0.08409964982
0.08413432918
0.08416873874
0.08420335225
0.08423849178
0.08427432632
0.0843108946
0.0843481347
0.08438591655
0.08442405626
0.08446232508
0.08450047943
0.08453825114
0.08457533913
0.0846114421
0.08464618883
0.08467937873
0.08471068857
0.08473990193
0.08476689109
0.08479133177
0.08481316449
0.08483255091
0.08484951052
0.08486399747
0.08487630341
0.08487942846
0.08487655057
0.0835565685
0.0836033657
0.08365181029
0.08370140316
0.08375150052
0.08380135684
0.08385019988
0.08389732999
0.083942225
0.0839846218
0.08402455663
0.0840623423
0.0840984942
0.08413362442
0.08416833309
0.08420312303
0.08423835213
0.08427422251
0.08431079812
0.08434803382
0.08438580781
0.08442394073
0.08446220438
0.08450035626
0.08453812618
0.08457521444
0.08461131502
0.08464607151
0.0846792636
0.08471058142
0.08473980566
0.08476679421
0.08479124586
0.08481309754
0.0848324944
0.08484946157
0.08486396664
0.08487630635
0.08487904824
0.08487598436
0.08355222577
0.08359848596
0.08364647223
0.08369573708
0.08374568746
0.0837956169
0.08384476908
0.08389242872
0.08393802479
0.08398121845
0.08402196124
0.0840604871
0.08409725531
0.08413285187
0.08416787961
0.08420286454
0.08423819721
0.08427411242
0.08431070024
0.08434793357
0.08438570031
0.08442382631
0.08446208455
0.08450023358
0.08453800164
0.08457508979
0.08461118891
0.08464595385
0.08467914888
0.08471047448
0.08473970884
0.08476669794
0.0847911604
0.08481303028
0.08483243786
0.0848494133
0.08486393669
0.08487630078
0.08487866032
0.08487540708
0.08354821598
0.08359397447
0.08364152165
0.08369045559
0.08374023019
0.08379017835
0.08383956512
0.08388766952
0.08393388333
0.08397780745
0.08401931243
0.08405855636
0.08409593899
0.08413201348
0.0841673778
0.08420257521
0.08423802542
0.08427399484
0.08431060022
0.08434783358
0.08438559392
0.08442371299
0.0844619656
0.08450011143
0.08453787751
0.08457496527
0.08461106361
0.08464583597
0.08467903451
0.08471036772
0.08473961156
0.08476660223
0.08479107536
0.08481296277
0.08483238131
0.08484936569
0.08486390764
0.08487602795
0.08487826457
0.08487481852
0.08354449712
0.08358978565
0.08363691282
0.08368551706
0.08373509541
0.08378501937
0.08383457882
0.08388305486
0.08392981359
0.08397440286
0.08401662357
0.0840565603
0.08409455138
0.0841311117
0.08416682766
0.08420225383
0.08423783533
0.08427386861
0.0843104973
0.08434773346
0.08438548845
0.08442360072
0.08446184751
0.08449998985
0.0845377538
0.08457484096
0.08461093903
0.08464571797
0.08467892046
0.08471026111
0.08473951391
0.08476650702
0.08479099072
0.08481289504
0.08483232478
0.08484931873
0.08486387947
0.08487574957
0.08487786082
0.0848742185
0.08354103428
0.0835858814
0.08363260713
0.08368088564
0.08373025349
0.08378011943
0.08382980012
0.08387858449
0.08392582153
0.0839710161
0.08401390646
0.08405450851
0.0840930987
0.08413014942
0.08416622962
0.08420189952
0.08423762565
0.0842737326
0.08431039069
0.0843476328
0.08438538372
0.08442348936
0.08446173027
0.08449986885
0.08453763049
0.0845747169
0.08461081506
0.08464559992
0.08467880668
0.08471015463
0.08473941597
0.08476641226
0.08479090644
0.08481282714
0.08483226828
0.08484927241
0.08486385221
0.08487546554
0.08487744893
0.08487360681
0.08353779812
0.08358222964
0.0836285717
0.08367653031
0.08372567814
0.08377545942
0.08382521855
0.08387425652
0.08392191217
0.08396765529
0.08401117141
0.08405241008
0.08409158716
0.08412912982
0.08416558447
0.08420151167
0.08423739526
0.08427358576
0.08431027964
0.08434753114
0.08438527949
0.08442337861
0.08446161386
0.08449974844
0.08453750767
0.08457459314
0.08461069165
0.0846454819
0.08467869317
0.08471004826
0.08473931779
0.08476631792
0.0847908225
0.08481275909
0.08483221183
0.08484922671
0.08486382585
0.08487517577
0.08487702874
0.08487298326
0.08353476381
0.0835788031
0.08362477841
0.08367242416
0.08372134599
0.08377102169
0.08382082365
0.08387006795
0.08391808902
0.08396432967
0.08400842766
0.08405027329
0.08409002284
0.08412805631
0.08416489337
0.08420108996
0.08423714325
0.0842734271
0.08431016339
0.08434742802
0.08438517554
0.08442326866
0.08446149827
0.08449962865
0.08453738527
0.08457446972
0.08461056874
0.08464536394
0.08467857988
0.084709942
0.08473921943
0.08476622394
0.08479073887
0.08481269092
0.08483215545
0.08484918164
0.0848638004
0.08487488018
0.0848766001
0.08487234767
0.08353191019
0.08357557848
0.08362120303
0.08366854369
0.08371723624
0.08376679001
0.08381660515
0.08386601493
0.08391435399
0.08396104444
0.08400568308
0.08404810574
0.08408841159
0.08412693242
0.08416415771
0.08420063436
0.08423686886
0.0842732557
0.08431004119
0.08434732297
0.08438507161
0.08442315939
0.08446138344
0.08449950948
0.08453726332
0.08457434665
0.0846104463
0.08464524608
0.0846784668
0.08470983584
0.08473912092
0.08476613031
0.08479065555
0.08481262266
0.08483209916
0.08484913601
0.08486377587
0.08487457866
0.08487616285
0.08487169987
0.08352921907
0.08357253573
0.08361782458
0.08366486835
0.08371333035
0.08376274953
0.08381255313
0.08386209307
0.08391070785
0.08395780431
0.08400294455
0.08404591434
0.08408675899
0.08412576175
0.08416337914
0.08420014505
0.08423657147
0.08427307075
0.08430991235
0.0843472155
0.08438496744
0.08442305068
0.08446126934
0.08449939092
0.08453714185
0.08457422395
0.0846103243
0.08464512835
0.08467835393
0.08470972976
0.08473902232
0.08476603699
0.0847905725
0.08481255433
0.08483204297
0.08484909068
0.08486375227
0.08487427112
0.08487571684
0.08487103964
0.08352667477
0.08356965747
0.08361462479
0.08366138006
0.08370961179
0.08375888662
0.08380865811
0.08385829766
0.08390715049
0.08395461273
0.08400021659
0.08404370515
0.08408507032
0.08412454788
0.08416255944
0.08419962242
0.08423625064
0.08427287153
0.08430977617
0.08434710514
0.08438486274
0.08442294241
0.08446115593
0.08449927297
0.08453702085
0.08457410164
0.08461020271
0.08464501078
0.08467824124
0.08470962376
0.08473892364
0.08476594396
0.08479048972
0.08481248596
0.08483198691
0.08484904592
0.08486372963
0.08487395744
0.0848752619
0.08487036678
0.08352426363
0.08356692858
0.08361158768
0.08365806287
0.08370606575
0.08375518887
0.0838049111
0.0838546238
0.08390368118
0.08395147258
0.08399750586
0.08404148391
0.08408335059
0.08412329438
0.08416170056
0.08419906706
0.08423590609
0.08427265739
0.08430963202
0.0843469914
0.08438475722
0.08442283443
0.08446104315
0.08449915562
0.08453690034
0.08457397973
0.08461008151
0.08464489338
0.08467812874
0.08470951783
0.08473882492
0.0847658512
0.08479040718
0.08481241757
0.08483193098
0.08484900175
0.08486370795
0.08487363753
0.08487479788
0.0848696811
0.08352197374
0.08356433583
0.0836086992
0.08365490264
0.08370267897
0.08375164491
0.08380130362
0.08385106656
0.08390029864
0.08394838575
0.08399481565
0.08403925549
0.08408160394
0.08412200471
0.0841608045
0.08419847967
0.08423553767
0.0842724278
0.0843094793
0.08434687382
0.08438465059
0.08442272658
0.08446093093
0.08449903886
0.08453678032
0.08457385823
0.0846099607
0.08464477617
0.08467801641
0.08470941199
0.08473872617
0.0847657587
0.08479032488
0.08481234917
0.0848318752
0.08484895816
0.08486368725
0.08487331127
0.08487432461
0.08486898238
0.08351979462
0.08356186758
0.08360594693
0.0836518868
0.08369943951
0.08374824435
0.08379782771
0.08384762103
0.08389700124
0.08394535353
0.0839921494
0.08403702441
0.08407983477
0.08412068224
0.08415987334
0.08419786112
0.08423514539
0.0842721823
0.08430931747
0.08434675194
0.08438454253
0.08442261871
0.08446081921
0.08449892267
0.08453666079
0.08457373715
0.08460984027
0.08464465916
0.08467790426
0.08470930622
0.08473862741
0.08476566643
0.0847902428
0.08481228078
0.08483181959
0.08484891515
0.08486366755
0.08487297855
0.08487384193
0.08486827042
0.08351771705
0.08355951356
0.08360331989
0.08364900415
0.08369633663
0.08374497771
0.08379447589
0.08384428237
0.08389378703
0.08394237667
0.08398950986
0.08403479441
0.08407804755
0.08411932924
0.08415890916
0.08419721237
0.08423472933
0.08427192052
0.08430914601
0.08434662532
0.08438443276
0.08442251063
0.0844607079
0.08449880702
0.08453654175
0.08457361647
0.08460972019
0.08464454236
0.08467779227
0.08470920052
0.08473852867
0.08476557438
0.08479016093
0.08481221242
0.08483176417
0.08484887273
0.08486364887
0.08487263925
0.08487334967
0.08486754503
0.08351573286
0.08355726464
0.08360080827
0.08364624465
0.08369336063
0.0837418363
0.08379124118
0.08384104588
0.08389065389
0.08393945551
0.08398689934
0.08403256914
0.08407624589
0.08411794952
0.08415791408
0.08419653446
0.08423428973
0.08427164221
0.08430896447
0.08434649353
0.08438432096
0.08442240219
0.08446059693
0.08449869188
0.0845364232
0.0845734962
0.08460960048
0.08464442577
0.08467768044
0.0847090949
0.08473842995
0.08476548254
0.08479007926
0.0848121441
0.08483170893
0.0848488309
0.08486363124
0.08487229325
0.08487284767
0.08486680599
0.08351383476
0.0835551127
0.08359840335
0.08364359929
0.08369050273
0.08373881214
0.08378811708
0.08383790702
0.08388759955
0.08393659003
0.08398431972
0.08403035142
0.08407443313
0.08411654644
0.0841568891
0.08419582851
0.08423382687
0.08427134716
0.08430877245
0.08434635617
0.08438420684
0.08442229319
0.08446048619
0.08449857722
0.08453630513
0.0845733764
0.08460948112
0.08464430941
0.08467756877
0.08470898936
0.08473833126
0.08476539089
0.08478999778
0.08481207584
0.08483165391
0.08484878967
0.08486361468
0.08487194043
0.08487233575
0.0848660531
0.08351201627
0.08355305049
0.08359609728
0.08364105997
0.08368775496
0.08373589795
0.08378509749
0.08383486142
0.08388462167
0.08393377996
0.08398177245
0.0840281439
0.0840726123
0.08411512271
0.08415583704
0.08419509569
0.08423334117
0.08427103526
0.0843085696
0.08434621286
0.08438408989
0.08442218344
0.0844603756
0.08449846301
0.08453618753
0.08457325699
0.08460936211
0.08464419326
0.08467745726
0.08470888389
0.08473823261
0.08476529944
0.08478991649
0.08481200765
0.0848315991
0.08484874904
0.08486359921
0.08487158067
0.08487181374
0.08486528617
0.08351027157
0.0835510715
0.08359388302
0.08363861937
0.08368511008
0.08373308703
0.08378217674
0.0838319049
0.08388171786
0.08393102476
0.08397925864
0.08402594881
0.08407078617
0.08411368094
0.08415476034
0.0841943361
0.0842328331
0.08427070645
0.0843083556
0.08434606325
0.08438396922
0.08442207276
0.08446026506
0.08449834919
0.08453607039
0.084573138
0.08460924345
0.08464407735
0.0846773459
0.08470877851
0.08473813402
0.08476520816
0.08478983537
0.08481193953
0.08483154454
0.08484870903
0.08486358486
0.08487121383
0.08487128148
0.08486450498
0.08350859542
0.08354916986
0.08359175422
0.08363627084
0.08368256151
0.0837303732
0.08377934955
0.08382903345
0.08387888573
0.08392832373
0.08397677911
0.08402376811
0.08406895732
0.08411222355
0.08415366094
0.08419355167
0.08423230319
0.08427036073
0.08430813019
0.084345907
0.08438384534
0.08442196095
0.08446015445
0.08449823573
0.08453595369
0.08457301942
0.08460912513
0.08464396167
0.08467723471
0.0847086732
0.08473803548
0.08476511705
0.08478975442
0.08481187151
0.08483149022
0.08484866964
0.08486357167
0.08487083979
0.08487073877
0.08486370933
0.08350698312
0.0835473403
0.08358970512
0.08363400838
0.0836801032
0.08372775079
0.08377661099
0.08382624328
0.08387612289
0.08392567603
0.08397433444
0.08402160335
0.08406712709
0.08411075271
0.08415254068
0.08419274414
0.0842317506
0.08426999819
0.08430789318
0.08434574381
0.08438371797
0.08442184783
0.08446004367
0.08449812256
0.08453583741
0.08457290125
0.08460900715
0.08464384622
0.08467712366
0.08470856798
0.08473793701
0.08476502611
0.08478967364
0.08481180359
0.08483143616
0.0848486309
0.08486355965
0.08487045841
0.08487018545
0.08486289901
0.08350543039
0.08354557802
0.08358773052
0.08363182649
0.08367772967
0.08372521457
0.08377395644
0.08382353076
0.08387342698
0.0839230807
0.083971925
0.08401945608
0.08406529878
0.08410927063
0.08415140135
0.08419191475
0.08423117725
0.08426961811
0.08430764439
0.08434557238
0.08438358685
0.0844217332
0.0844599326
0.08449800964
0.08453572154
0.08457278348
0.08460888951
0.08464373101
0.08467701278
0.08470846284
0.08473783861
0.08476493532
0.08478959302
0.08481173577
0.08483138238
0.08484859279
0.08486354885
0.08487006955
0.08486962135
0.08486207384
0.08350393336
0.08354387868
0.08358582567
0.08362972018
0.08367543585
0.0837227597
0.08377138162
0.08382089247
0.0838707957
0.08392053671
0.083969551
0.08401732748
0.08406347362
0.08410777926
0.08415024471
0.08419106471
0.08423058401
0.08426922082
0.08430738225
0.08434539319
0.08438345173
0.08442161688
0.08445982113
0.0844978969
0.08453560604
0.0845726661
0.08460877219
0.08464361603
0.08467690205
0.08470835779
0.08473774028
0.08476484468
0.08478951256
0.08481166808
0.08483132889
0.08484855536
0.0848635393
0.08486967309
0.08486904626
0.08486123359
0.08350248851
0.08354223832
0.08358398626
0.08362768489
0.0836732171
0.08372038173
0.08376888252
0.08381832513
0.0838682268
0.08391804295
0.08396721249
0.08401521855
0.08406165324
0.08410628046
0.0841490724
0.08419019525
0.08422997157
0.0842688073
0.08430710811
0.08434520631
0.08438331237
0.08442149868
0.08445970914
0.08449778429
0.0845354909
0.0845725491
0.08460865521
0.08464350129
0.08467679147
0.08470825283
0.08473764202
0.08476475419
0.08478943226
0.08481160052
0.0848312757
0.0848485186
0.08486353102
0.08486926888
0.08486846003
0.08486037808
0.08350109264
0.08354065334
0.08358220832
0.08362571641
0.08367106917
0.08371807652
0.0837664554
0.08381582567
0.08386571808
0.0839155983
0.08396490939
0.08401313013
0.08405983908
0.08410477593
0.08414788597
0.08418930755
0.08422934063
0.08426837782
0.08430682197
0.08434501154
0.08438316854
0.08442137841
0.08445959651
0.08449767174
0.08453537608
0.08457243247
0.08460853856
0.08464338678
0.08467668106
0.08470814796
0.08473754384
0.08476466384
0.0847893521
0.0848115331
0.08483122283
0.08484848254
0.08486352407
0.08486885677
0.08486786245
0.0848595071
0.0834997428
0.08353912043
0.08358048824
0.08362381091
0.08366898811
0.08371584023
0.08376409674
0.08381339117
0.08386326743
0.08391320157
0.08396264151
0.08401106287
0.08405803241
0.0841032673
0.0841466869
0.08418840276
0.08422869191
0.08426793268
0.08430652382
0.08434480872
0.08438302005
0.08442125591
0.08445948312
0.08449755918
0.08453526155
0.08457231621
0.08460842222
0.08464327251
0.08467657079
0.08470804318
0.08473744573
0.08476457362
0.08478927209
0.08481146582
0.08483117029
0.08484844719
0.08486351847
0.08486843661
0.08486725335
0.08485862045
0.0834984363
0.08353763656
0.0835788227
0.08362196484
0.08366697028
0.08371366931
0.08376180327
0.08381101884
0.08386087279
0.08391085159
0.08396040857
0.08400901732
0.0840562343
0.08410175527
0.08414547651
0.08418748202
0.08422802613
0.08426747221
0.08430621369
0.08434459769
0.08438286669
0.084421131
0.08445936885
0.08449744654
0.08453514728
0.08457220028
0.08460830619
0.08464315847
0.08467646068
0.08470793849
0.08473734771
0.08476448353
0.08478919223
0.0848113987
0.08483111809
0.08484841258
0.08486339615
0.08486800825
0.08486663254
0.08485771793
0.08349717068
0.08353619897
0.08357720865
0.08362017495
0.08366501234
0.08371156044
0.08375957193
0.08380870608
0.08385853218
0.08390854716
0.08395821022
0.08400699391
0.08405444573
0.08410024216
0.0841442562
0.08418654641
0.08422734404
0.08426699677
0.08430589164
0.08434437834
0.08438270828
0.0844210035
0.08445925358
0.08449733375
0.08453503323
0.08457208468
0.08460819047
0.08464304467
0.08467635072
0.0847078339
0.08473724977
0.08476439357
0.08478911252
0.08481133175
0.08483106617
0.08484837871
0.08486308837
0.08486757153
0.08486599983
0.08485679934
0.08349594367
0.08353480508
0.08357564325
0.08361843821
0.08366311117
0.08370951055
0.08375739984
0.0838064504
0.08385624371
0.0839062871
0.08395604605
0.08400499295
0.08405266706
0.08409872873
0.08414302722
0.08418559698
0.08422664636
0.08426650672
0.08430555776
0.08434415058
0.08438254466
0.08442087326
0.08445913718
0.08449722074
0.08453491936
0.08457196939
0.08460807505
0.08464293109
0.08467624091
0.08470772941
0.08473715191
0.08476430374
0.08478903294
0.08481126496
0.08483101316
0.08484834559
0.08486277462
0.08486712629
0.08486535503
0.08485586449
0.08349475317
0.08353345253
0.08357412393
0.08361675185
0.08366126387
0.08370751677
0.0837552843
0.08380424945
0.08385400553
0.08390407022
0.08395391561
0.08400301467
0.08405089961
0.08409721608
0.08414179076
0.08418463478
0.08422593381
0.08426600247
0.08430521215
0.08434391433
0.08438237567
0.08442074013
0.08445901955
0.08449710743
0.08453480564
0.0845718544
0.08460795992
0.08464281774
0.08467613126
0.08470762502
0.08473705414
0.08476421402
0.08478895351
0.08481119835
0.08483096049
0.08484831324
0.08486245481
0.08486667236
0.08486469794
0.08485491318
0.08349359724
0.08353213915
0.08357264826
0.08361511328
0.08365946776
0.08370557642
0.08375322279
0.083802101
0.08385181589
0.08390189537
0.0839518184
0.08400105923
0.08404914408
0.08409570522
0.08414054792
0.08418366077
0.08422520712
0.08426548441
0.08430485495
0.08434366955
0.08438220118
0.08442060395
0.08445890056
0.08449699375
0.08453469202
0.08457173967
0.08460784508
0.08464270462
0.08467602176
0.08470752072
0.08473695645
0.08476412442
0.08478887422
0.08481113193
0.08483090817
0.08484828166
0.08486212883
0.08486620959
0.08486402837
0.08485394522
0.08349247409
0.0835308629
0.08357121402
0.0836135201
0.08365772034
0.08370368699
0.08375121291
0.08380000294
0.08384967309
0.08389976139
0.08394975388
0.0839991267
0.08404740104
0.08409419708
0.08413929978
0.08418267589
0.084224467
0.08426495298
0.08430448631
0.08434341619
0.08438202105
0.08442046459
0.0844587801
0.08449687962
0.08453457845
0.0845716252
0.08460773051
0.08464259171
0.08467591241
0.08470741653
0.08473685885
0.08476403494
0.08478879506
0.08481106569
0.08483085622
0.08484825087
0.08486179656
0.08486573781
0.08486334614
0.08485296042
0.08349138207
0.08352962193
0.08356981914
0.08361197007
0.08365601928
0.08370184615
0.08374925244
0.08379795328
0.08384757552
0.08389766716
0.0839477215
0.0839972171
0.08404567101
0.08409269248
0.08413804716
0.08418168104
0.08422371413
0.08426440859
0.08430410639
0.08434315425
0.0843818352
0.08442032191
0.08445865805
0.08449676496
0.0845344649
0.08457151095
0.0846076162
0.08464247901
0.08467580322
0.08470731243
0.08473676133
0.08476394556
0.08478871605
0.08481099966
0.08483080464
0.08484822088
0.0848614579
0.08486525687
0.08486265103
0.08485195858
0.08349031963
0.08352841448
0.08356846169
0.08361046113
0.08365436242
0.08370005171
0.08374733928
0.08379595013
0.08384552162
0.08389561159
0.08394572069
0.08399533038
0.0840439544
0.08409119216
0.0841367909
0.08418067708
0.0842229492
0.08426385169
0.0843037154
0.08434288374
0.08438164351
0.08442017578
0.0844585343
0.08449664969
0.08453435132
0.0845713969
0.08460750212
0.08464236652
0.08467569419
0.08470720844
0.08473666389
0.0847638563
0.08478863717
0.08481093382
0.08483075345
0.08484819172
0.08486111272
0.08486476658
0.08486194286
0.08485093953
0.08348928534
0.08352723895
0.08356713988
0.08360899133
0.08365274771
0.08369830161
0.08374547143
0.08379399167
0.08384350989
0.08389359358
0.08394375085
0.08399346647
0.08404225158
0.08408969683
0.08413553212
0.08417966486
0.08422217287
0.0842632827
0.08430331352
0.08434260467
0.0843814459
0.0844200261
0.08445840876
0.08449653374
0.08453423766
0.08457128304
0.08460738832
0.08464225424
0.0846755853
0.08470710454
0.08473656654
0.08476376715
0.08478855844
0.0848108682
0.08483070266
0.08484816341
0.08486076091
0.0848642668
0.08486122142
0.08484990308
0.08348827785
0.08352609381
0.08356585204
0.08360755887
0.08365117326
0.08369659393
0.08374364703
0.08379207622
0.08384153892
0.08389161211
0.08394181141
0.08399162524
0.08404056287
0.08408820711
0.08413427145
0.08417864517
0.08422138579
0.08426270207
0.08430290098
0.08434231708
0.08438124231
0.08441987274
0.0844582813
0.08449641704
0.08453412387
0.08457116933
0.08460727473
0.08464214215
0.08467547657
0.08470700074
0.08473646928
0.0847636781
0.08478847984
0.08481080279
0.08483065227
0.08484813596
0.08486040234
0.08486375734
0.08486048653
0.08484884904
0.08348729593
0.08352497766
0.0835645966
0.08360616206
0.08364963728
0.08369492684
0.08374186432
0.08379020215
0.08383960732
0.08388966614
0.08393990174
0.08398980654
0.08403888851
0.08408672357
0.08413300964
0.08417761875
0.08422058857
0.08426211021
0.08430247801
0.08434202103
0.08438103268
0.08441971561
0.08445815184
0.08449629949
0.08453400991
0.08457105574
0.08460716135
0.08464203026
0.08467536799
0.08470689705
0.0847363721
0.08476358915
0.08478840138
0.08481073761
0.08483060231
0.08484810941
0.08486003689
0.08486323804
0.08485973797
0.08484777724
0.08348633841
0.08352388918
0.08356337212
0.08360479932
0.08364813811
0.08369329865
0.08374012163
0.08378836792
0.0838377138
0.08388775468
0.08393802126
0.08398801018
0.08403722871
0.0840852467
0.08413174737
0.08417658631
0.08421978187
0.08426150758
0.08430204483
0.08434171658
0.08438081696
0.0844195546
0.08445802027
0.08449618104
0.08453389572
0.08457094225
0.08460704817
0.08464191855
0.08467525955
0.08470679345
0.084736275
0.08476350031
0.08478832306
0.08481067266
0.08483055278
0.08484808378
0.08485966444
0.08486270872
0.08485897556
0.08484668751
0.0834854042
0.08352282715
0.08356217722
0.08360346915
0.08364667417
0.08369170776
0.08373841739
0.08378657208
0.0838358571
0.08388587678
0.08393616935
0.08398623595
0.08403558363
0.08408377697
0.08413048527
0.08417554853
0.08421896629
0.08426089459
0.08430160168
0.0843414038
0.08438059511
0.08441938965
0.08445788651
0.0844960616
0.08453378126
0.08457082883
0.08460693518
0.08464180704
0.08467515125
0.08470668996
0.08473617799
0.08476341157
0.08478824488
0.08481060794
0.08483050371
0.08484805909
0.08485928485
0.08486216922
0.08485819909
0.08484557967
0.08348449227
0.0835217904
0.08356101062
0.08360217017
0.083645244
0.08369015264
0.0837367501
0.08378481324
0.08383403601
0.08388403149
0.08393434542
0.08398448362
0.0840339534
0.08408231478
0.08412922393
0.08417450611
0.08421814238
0.08426027167