/*--------------------------------*- C++ -*----------------------------------*\
| =========                 |                                                 |
| \\      /  F ield         | OpenFOAM: The Open Source CFD Toolbox           |
|  \\    /   O peration     | Version:  v2006                                 |
|   \\  /    A nd           | Website:  www.openfoam.com                      |
|    \\/     M anipulation  |                                                 |
\*---------------------------------------------------------------------------*/
FoamFile
{
    version     2.0;
    format      ascii;
    class       volScalarField;
    location    "0.09";
    object      CH3OCH2;
}
// * * * * * * * * * * * * * * * * * * * * * * * * * * * * * * * * * * * * * //

dimensions      [0 0 0 0 0 0 0];


internalField   nonuniform List<scalar> 
168000
(
2.031175672e-10
2.562272779e-10
3.057954884e-10
3.613848542e-10
4.163744235e-10
4.654543036e-10
5.160217716e-10
5.664778843e-10
6.015652902e-10
6.297261924e-10
6.541868721e-10
6.634709963e-10
6.610634999e-10
6.534457832e-10
6.290638313e-10
5.9565714e-10
5.552519934e-10
5.012553012e-10
4.419184456e-10
3.751806044e-10
3.029690261e-10
2.293413378e-10
2.184976181e-10
2.22006614e-10
2.255127453e-10
2.28903656e-10
2.322899425e-10
2.354317798e-10
2.385260295e-10
2.414003877e-10
2.440647065e-10
2.465823361e-10
2.488193437e-10
2.508009282e-10
2.525822958e-10
2.541467316e-10
2.603329751e-10
5.166500167e-10
5.675816469e-09
2.288864811e-08
2.011796987e-10
2.545703991e-10
2.854768348e-10
3.184251118e-10
3.576884622e-10
4.018954096e-10
4.516908203e-10
5.036224064e-10
5.48905498e-10
5.876600835e-10
6.194298531e-10
6.381659381e-10
6.442236015e-10
6.401518409e-10
6.213821721e-10
5.912312416e-10
5.514824771e-10
5.002300832e-10
4.407923691e-10
3.750222165e-10
3.030533294e-10
2.294849102e-10
2.184836078e-10
2.219972492e-10
2.254973223e-10
2.288977987e-10
2.322702579e-10
2.354266583e-10
2.385127177e-10
2.41389462e-10
2.440588462e-10
2.46571127e-10
2.488105517e-10
2.507958026e-10
2.525773121e-10
2.541411467e-10
2.70347973e-10
5.308978509e-10
6.224064067e-09
2.380323603e-08
1.953760328e-10
2.514676315e-10
2.746472238e-10
2.924605655e-10
3.169648787e-10
3.515489692e-10
3.961753377e-10
4.47120635e-10
4.975954954e-10
5.439237259e-10
5.830295731e-10
6.102368894e-10
6.241536274e-10
6.252880227e-10
6.117879799e-10
5.852613604e-10
5.473297658e-10
4.98150125e-10
4.39578408e-10
3.745096913e-10
3.030553717e-10
2.295588613e-10
2.184703373e-10
2.219871146e-10
2.254830107e-10
2.288903727e-10
2.322524234e-10
2.354201679e-10
2.385000002e-10
2.413787057e-10
2.440524409e-10
2.465602988e-10
2.488018411e-10
2.507905241e-10
2.525722982e-10
2.541356728e-10
2.804951112e-10
5.454602181e-10
6.785930036e-09
2.473832074e-08
1.912258117e-10
2.490582851e-10
2.697177246e-10
2.781001057e-10
2.901952423e-10
3.136574783e-10
3.503254751e-10
3.974914851e-10
4.493273189e-10
5.003732844e-10
5.456884949e-10
5.803422791e-10
6.016126183e-10
6.08649763e-10
6.004439725e-10
5.77880133e-10
5.424809971e-10
4.953581348e-10
4.380742248e-10
3.73735634e-10
3.029371782e-10
2.295716678e-10
2.184575787e-10
2.219764616e-10
2.25469491e-10
2.288817872e-10
2.322360143e-10
2.35412621e-10
2.384877455e-10
2.413680982e-10
2.440455778e-10
2.465497922e-10
2.487932125e-10
2.507851095e-10
2.525672556e-10
2.541303029e-10
2.907904435e-10
5.603380574e-10
7.361616464e-09
2.569461582e-08
1.885621699e-10
2.478994469e-10
2.685728161e-10
2.715415381e-10
2.739601975e-10
2.865932726e-10
3.139198533e-10
3.550377941e-10
4.052169882e-10
4.583494792e-10
5.082458201e-10
5.491698882e-10
5.771889835e-10
5.9030688e-10
5.874840448e-10
5.691735974e-10
5.367919502e-10
4.918976253e-10
4.361793793e-10
3.727075224e-10
3.026343675e-10
2.295219826e-10
2.184451801e-10
2.219654647e-10
2.254565339e-10
2.288723484e-10
2.322207049e-10
2.354042597e-10
2.384758525e-10
2.413576202e-10
2.440383303e-10
2.465395576e-10
2.487846647e-10
2.507795741e-10
2.525621861e-10
2.541250306e-10
3.012478659e-10
5.75533434e-10
7.951351905e-09
2.66728098e-08
1.868464156e-10
2.478815574e-10
2.699129433e-10
2.702005577e-10
2.655075347e-10
2.684873497e-10
2.861205856e-10
3.196966393e-10
3.659156526e-10
4.188092256e-10
4.714985079e-10
5.173860849e-10
5.514024083e-10
5.704603726e-10
5.730498116e-10
5.592128718e-10
5.302028917e-10
4.877731135e-10
4.33839876e-10
3.714058575e-10
3.021440192e-10
2.293826562e-10
2.184330401e-10
2.219542443e-10
2.254439763e-10
2.288622847e-10
2.322062456e-10
2.35395271e-10
2.38464243e-10
2.413472539e-10
2.440307601e-10
2.465295543e-10
2.487761954e-10
2.507739316e-10
2.525570918e-10
2.541198504e-10
3.118795547e-10
5.910493407e-10
8.555387951e-09
2.767357264e-08
1.857562813e-10
2.487296377e-10
2.728703546e-10
2.723036513e-10
2.627154208e-10
2.57559924e-10
2.658640785e-10
2.911189211e-10
3.317059818e-10
3.823982764e-10
4.361249758e-10
4.856017079e-10
5.247334323e-10
5.493738202e-10
5.573003876e-10
5.480740584e-10
5.226998942e-10
4.829758677e-10
4.31024581e-10
3.698160169e-10
3.01452083e-10
2.291450989e-10
2.18421092e-10
2.219428839e-10
2.254317026e-10
2.288517661e-10
2.321924452e-10
2.353858e-10
2.384528571e-10
2.41336983e-10
2.440229196e-10
2.46519748e-10
2.487678013e-10
2.507681942e-10
2.525519747e-10
2.541147573e-10
3.226963172e-10
6.068895407e-10
9.173996551e-09
2.869756118e-08
1.851015613e-10
2.501983809e-10
2.768844879e-10
2.767297733e-10
2.639461369e-10
2.522573036e-10
2.52012526e-10
2.687178084e-10
3.025867278e-10
3.495062329e-10
4.026592163e-10
4.543518018e-10
4.97628393e-10
5.27333581e-10
5.404120171e-10
5.358454211e-10
5.142971251e-10
4.774987283e-10
4.277137204e-10
3.679125651e-10
3.005457034e-10
2.287943314e-10
2.184092912e-10
2.219314408e-10
2.254196315e-10
2.288409192e-10
2.321791574e-10
2.35375959e-10
2.384416485e-10
2.41326793e-10
2.440148525e-10
2.465101105e-10
2.487594789e-10
2.507623731e-10
2.525468373e-10
2.541097468e-10
3.337078756e-10
6.230584386e-10
9.807467752e-09
2.974542374e-08
1.847570625e-10
2.520946757e-10
2.815691202e-10
2.826692316e-10
2.681167188e-10
2.513141532e-10
2.434891525e-10
2.518402263e-10
2.783732669e-10
3.203183365e-10
3.714903601e-10
4.240847129e-10
4.704907719e-10
5.04631512e-10
5.225731023e-10
5.226282977e-10
5.050282219e-10
4.713419225e-10
4.238952257e-10
3.656753459e-10
2.994130265e-10
2.283164282e-10
2.183976132e-10
2.219199553e-10
2.254077066e-10
2.288298383e-10
2.321662701e-10
2.353658349e-10
2.384305813e-10
2.413166713e-10
2.44006596e-10
2.46500618e-10
2.487512242e-10
2.507564782e-10
2.525416817e-10
2.541048151e-10
3.449230954e-10
6.39560984e-10
1.045610786e-08
3.081780393e-08
1.84635741e-10
2.542751058e-10
2.866599333e-10
2.89576644e-10
2.743044278e-10
2.536100997e-10
2.393206571e-10
2.397898677e-10
2.587319816e-10
2.948588139e-10
3.428749995e-10
3.951596874e-10
4.436763649e-10
4.815505606e-10
5.039783292e-10
5.085350986e-10
4.949414804e-10
4.645148532e-10
4.195632319e-10
3.630874646e-10
2.980376662e-10
2.276978674e-10
2.183860439e-10
2.219084552e-10
2.25395889e-10
2.28818593e-10
2.321536973e-10
2.353554952e-10
2.384196279e-10
2.41306607e-10
2.439981811e-10
2.464912507e-10
2.487430331e-10
2.507505183e-10
2.525365103e-10
2.540999587e-10
3.563501708e-10
6.564025953e-10
1.112023799e-08
3.191534386e-08
1.846757443e-10
2.566358435e-10
2.919762454e-10
2.9708297e-10
2.819074217e-10
2.584734215e-10
2.386964308e-10
2.318960347e-10
2.432793932e-10
2.730367687e-10
3.169565961e-10
3.678505468e-10
4.174905292e-10
4.583555071e-10
4.848221714e-10
4.936862099e-10
4.84096614e-10
4.570361184e-10
4.147176037e-10
3.60136643e-10
2.964149728e-10
2.269262283e-10
2.183745654e-10
2.218969599e-10
2.253841523e-10
2.288072352e-10
2.321413732e-10
2.353449924e-10
2.384087667e-10
2.412965906e-10
2.43989634e-10
2.464819921e-10
2.487349017e-10
2.507445014e-10
2.525313254e-10
2.540951746e-10
3.679967757e-10
6.735891091e-10
1.180019289e-08
3.303868682e-08
1.848326043e-10
2.591023583e-10
2.973932881e-10
3.049300568e-10
2.904614913e-10
2.651793557e-10
2.408278147e-10
2.275300103e-10
2.315953015e-10
2.5469493e-10
2.937869235e-10
3.423530689e-10
3.92187377e-10
4.352892886e-10
4.652909081e-10
4.782071124e-10
4.72562182e-10
4.489327541e-10
4.093636226e-10
3.568143327e-10
2.945329118e-10
2.259908315e-10
2.183631745e-10
2.218854823e-10
2.253724788e-10
2.287958035e-10
2.321292471e-10
2.353343671e-10
2.383979809e-10
2.412866144e-10
2.43980977e-10
2.464728281e-10
2.487268261e-10
2.507384346e-10
2.525261293e-10
2.540904602e-10
3.798701909e-10
6.911267572e-10
1.249632014e-08
3.418847966e-08
1.850740183e-10
2.616214213e-10
3.028250799e-10
3.129389112e-10
2.996356098e-10
2.732599286e-10
2.452662776e-10
2.261530377e-10
2.23255806e-10
2.395904091e-10
2.73341465e-10
3.187940211e-10
3.679707316e-10
4.125651846e-10
4.455636234e-10
4.622248494e-10
4.604132414e-10
4.402391364e-10
4.035117247e-10
3.531159572e-10
2.923835544e-10
2.248823005e-10
2.183518676e-10
2.218740305e-10
2.253608572e-10
2.287843263e-10
2.321172804e-10
2.35323651e-10
2.383872574e-10
2.412766716e-10
2.439722286e-10
2.464637471e-10
2.487188023e-10
2.507323244e-10
2.525209242e-10
2.54085813e-10
3.919774112e-10
7.090221859e-10
1.320897959e-08
3.536537475e-08
1.85376299e-10
2.641552176e-10
3.082125945e-10
3.209847986e-10
3.091864895e-10
2.82329062e-10
2.514484901e-10
2.271985923e-10
2.178498233e-10
2.274828142e-10
2.555435957e-10
2.972422629e-10
3.449975388e-10
3.903674044e-10
4.258068484e-10
4.458652781e-10
4.477291681e-10
4.309957569e-10
3.971771571e-10
3.490407475e-10
2.899606857e-10
2.235911557e-10
2.183406439e-10
2.21862623e-10
2.253492809e-10
2.287728249e-10
2.321054433e-10
2.353128688e-10
2.383765859e-10
2.412667569e-10
2.439634046e-10
2.464547391e-10
2.487108269e-10
2.507261766e-10
2.525157123e-10
2.540812313e-10
4.043252364e-10
7.272825465e-10
1.393854312e-08
3.657003172e-08
1.857219181e-10
2.666770066e-10
3.13515795e-10
3.289812149e-10
3.189370766e-10
2.920956612e-10
2.590057236e-10
2.303625255e-10
2.150150296e-10
2.18111732e-10
2.402872166e-10
2.777195056e-10
3.233823748e-10
3.688512858e-10
4.0617189e-10
4.292509088e-10
4.345915804e-10
4.212479756e-10
3.903795476e-10
3.445915455e-10
2.872600953e-10
2.221103524e-10
2.183295018e-10
2.218512527e-10
2.253377457e-10
2.287613152e-10
2.320937128e-10
2.353020396e-10
2.383659584e-10
2.412568657e-10
2.43954518e-10
2.464457956e-10
2.487028964e-10
2.507199963e-10
2.525104957e-10
2.540767133e-10
4.169203364e-10
7.459157169e-10
1.468539476e-08
3.780311904e-08
1.86097809e-10
2.69168062e-10
3.18708053e-10
3.36868646e-10
3.287582523e-10
3.023343536e-10
2.676172215e-10
2.352104249e-10
2.144044588e-10
2.112112149e-10
2.274177814e-10
2.602070349e-10
3.03202263e-10
3.481444065e-10
3.867952017e-10
4.124968852e-10
4.210827783e-10
4.110448398e-10
3.831424033e-10
3.397745617e-10
2.842796851e-10
2.204351682e-10
2.18318441e-10
2.218399284e-10
2.253262495e-10
2.287498088e-10
2.320820715e-10
2.352911785e-10
2.383553685e-10
2.412469943e-10
2.439455801e-10
2.464369095e-10
2.486950078e-10
2.507137881e-10
2.525052765e-10
2.540722575e-10
4.297692499e-10
7.810300444e-10
1.544993148e-08
3.906531546e-08
1.864941729e-10
2.716154729e-10
3.237722581e-10
3.446068137e-10
3.385562919e-10
3.128721841e-10
2.770265603e-10
2.414287198e-10
2.156223742e-10
2.065207914e-10
2.167854203e-10
2.446581957e-10
2.845022782e-10
3.283483016e-10
3.677977338e-10
3.957095311e-10
4.072843262e-10
4.004379691e-10
3.754925568e-10
3.345990834e-10
2.810192818e-10
2.185601895e-10
2.183074606e-10
2.218286533e-10
2.253147916e-10
2.287383146e-10
2.320705058e-10
2.352802971e-10
2.383448114e-10
2.412371393e-10
2.439366003e-10
2.464280747e-10
2.48687158e-10
2.507075563e-10
2.525000567e-10
2.540678627e-10
4.428782302e-10
1.262869906e-09
1.623256444e-08
4.03573112e-08
1.869036243e-10
2.740105324e-10
3.286981024e-10
3.521692338e-10
3.482637317e-10
3.235772688e-10
2.87031442e-10
2.487774736e-10
2.185439402e-10
2.038185544e-10
2.082286802e-10
2.31003972e-10
2.673007037e-10
3.095403865e-10
3.492819827e-10
3.789887567e-10
3.932756986e-10
3.89480515e-10
3.674595884e-10
3.290771706e-10
2.774806905e-10
2.164820709e-10
2.1829656e-10
2.2181743e-10
2.253033719e-10
2.287268393e-10
2.320590054e-10
2.352694045e-10
2.383342834e-10
2.412272983e-10
2.439275866e-10
2.464192861e-10
2.486793445e-10
2.507013045e-10
2.524948381e-10
2.540635278e-10
4.56253748e-10
1.756226741e-09
1.703371843e-08
4.167980802e-08
1.873205837e-10
2.763476176e-10
3.334800907e-10
3.595393014e-10
3.578324445e-10
3.34348539e-10
2.974667609e-10
2.570308966e-10
2.228426771e-10
2.028769719e-10
2.015823256e-10
2.191695875e-10
2.51594328e-10
2.917765637e-10
3.313344585e-10
3.624253898e-10
3.791332737e-10
3.782262186e-10
3.59075242e-10
3.232233348e-10
2.736676182e-10
2.147557687e-10
2.182857379e-10
2.218062604e-10
2.252919891e-10
2.287153876e-10
2.320475623e-10
2.35258508e-10
2.383237812e-10
2.412174694e-10
2.439185456e-10
2.464105391e-10
2.486715646e-10
2.506950361e-10
2.524896225e-10
2.540592518e-10
4.699021972e-10
2.261352097e-09
1.785382605e-08
4.303351865e-08
1.877408306e-10
2.786233474e-10
3.381161429e-10
3.667075029e-10
3.672286583e-10
3.451088666e-10
3.081997731e-10
2.660031721e-10
2.283050846e-10
2.034367158e-10
1.966785995e-10
2.09046097e-10
2.373598974e-10
2.750936307e-10
3.140266235e-10
3.46100619e-10
3.649296074e-10
3.667285632e-10
3.503728531e-10
3.170542095e-10
2.695855507e-10
2.147455458e-10
2.182749925e-10
2.217951463e-10
2.252806515e-10
2.287039637e-10
2.320361704e-10
2.352476131e-10
2.383133024e-10
2.412076511e-10
2.439094829e-10
2.464018298e-10
2.486638161e-10
2.506887543e-10
2.524844117e-10
2.540550338e-10
4.838299152e-10
2.778505669e-09
1.869332813e-08
4.441916387e-08
1.881611733e-10
2.808359679e-10
3.426065873e-10
3.736694171e-10
3.764293183e-10
3.557998146e-10
3.191245186e-10
2.755420559e-10
2.347596978e-10
2.054058277e-10
1.933722198e-10
2.005411413e-10
2.245618175e-10
2.595121961e-10
2.974159537e-10
3.300858104e-10
3.507330768e-10
3.550399803e-10
3.413868064e-10
3.105882184e-10
2.652415873e-10
2.14735396e-10
2.182643218e-10
2.217840886e-10
2.252693527e-10
2.286925704e-10
2.320248251e-10
2.352367243e-10
2.383028449e-10
2.411978423e-10
2.439004033e-10
2.46393155e-10
2.48656097e-10
2.506824616e-10
2.524792075e-10
2.540508733e-10
4.980432056e-10
3.307955153e-09
1.95526748e-08
4.583746529e-08
1.885792039e-10
2.829849046e-10
3.469534311e-10
3.804242691e-10
3.854193686e-10
3.663774248e-10
3.301561908e-10
2.855192637e-10
2.420428975e-10
2.08563531e-10
1.915121116e-10
1.935509987e-10
2.131533472e-10
2.450391121e-10
2.815472744e-10
3.144438341e-10
3.366061789e-10
3.432112562e-10
3.321520474e-10
3.038452549e-10
2.606443555e-10
2.147253094e-10
2.182537222e-10
2.217730877e-10
2.252580962e-10
2.286812099e-10
2.320135228e-10
2.35225845e-10
2.382924072e-10
2.411880421e-10
2.438913107e-10
2.463845118e-10
2.486484054e-10
2.506761606e-10
2.524740113e-10
2.619616647e-10
5.12548357e-10
3.849975864e-09
2.043232453e-08
4.728917538e-08
1.889931157e-10
2.850704311e-10
3.511598254e-10
3.86973887e-10
3.9418972e-10
3.768089966e-10
3.412270917e-10
2.958277236e-10
2.50014769e-10
2.127593329e-10
1.909606852e-10
1.87970821e-10
2.030822996e-10
2.316699293e-10
2.66454041e-10
2.992296259e-10
3.226047034e-10
3.312913712e-10
3.227036642e-10
2.968463741e-10
2.558038316e-10
2.147152749e-10
2.182431902e-10
2.217621436e-10
2.25246883e-10
2.286698839e-10
2.320022607e-10
2.352149778e-10
2.382819879e-10
2.411782499e-10
2.438822086e-10
2.463758977e-10
2.486407396e-10
2.506698535e-10
2.524688249e-10
2.720271653e-10
5.273516795e-10
4.404850663e-09
2.133274522e-08
4.877506803e-08
1.894015645e-10
2.870934294e-10
3.552297001e-10
3.933218809e-10
4.027357568e-10
3.870706147e-10
3.52283427e-10
3.06378493e-10
2.585551766e-10
2.178532939e-10
1.915318778e-10
1.836943862e-10
1.942878543e-10
2.193904162e-10
2.521593472e-10
2.844888836e-10
3.087799375e-10
3.193268365e-10
3.130764835e-10
2.896134973e-10
2.50731173e-10
2.147052805e-10
2.182327213e-10
2.217512559e-10
2.25235714e-10
2.286585939e-10
2.319910368e-10
2.35204125e-10
2.382715862e-10
2.411684652e-10
2.438730998e-10
2.463673104e-10
2.486330979e-10
2.506635424e-10
2.524636496e-10
2.823054222e-10
5.424595135e-10
4.972869823e-09
2.2254415e-08
5.029593338e-08
1.898035662e-10
2.890552121e-10
3.591674941e-10
3.994730952e-10
4.110561659e-10
3.971452177e-10
3.632826879e-10
3.170980403e-10
2.675628973e-10
2.237374416e-10
1.932087702e-10
1.80633329e-10
1.867062775e-10
2.081785968e-10
2.386771144e-10
2.702585851e-10
2.951787016e-10
3.073615479e-10
3.033047345e-10
2.821691362e-10
2.45438552e-10
2.146953127e-10
2.182223105e-10
2.217404237e-10
2.252245898e-10
2.286473407e-10
2.319798495e-10
2.351932881e-10
2.382612012e-10
2.411586877e-10
2.438639867e-10
2.463587481e-10
2.486254791e-10
2.506572291e-10
2.52458487e-10
2.92800804e-10
5.578782424e-10
5.554330959e-09
2.319782242e-08
5.185257833e-08
1.901984127e-10
2.90957381e-10
3.629779238e-10
4.05433217e-10
4.191520765e-10
4.07021073e-10
3.741914209e-10
3.27925236e-10
2.769494238e-10
2.303010472e-10
1.95826187e-10
1.792876367e-10
1.83196767e-10
1.980065921e-10
2.260134162e-10
2.565686448e-10
2.818423934e-10
2.954365554e-10
2.9342176e-10
2.745361377e-10
2.399389886e-10
2.146853575e-10
2.182119519e-10
2.217296457e-10
2.252135109e-10
2.286361252e-10
2.319686976e-10
2.351824686e-10
2.382508324e-10
2.411489172e-10
2.438548713e-10
2.46350209e-10
2.486178819e-10
2.506509153e-10
2.524533384e-10
3.035177547e-10
5.736143023e-10
6.149539004e-09
2.416346674e-08
5.344582702e-08
1.905856118e-10
2.928017289e-10
3.666658451e-10
4.112084556e-10
4.27026402e-10
4.166905895e-10
3.849834807e-10
3.388093437e-10
2.866384346e-10
2.374478336e-10
1.992854217e-10
1.790816885e-10
1.830334577e-10
1.888416302e-10
2.141676282e-10
2.434424571e-10
2.688072304e-10
2.835899522e-10
2.834597735e-10
2.667374517e-10
2.342461902e-10
2.146753998e-10
2.182016389e-10
2.2171892e-10
2.252024773e-10
2.286249478e-10
2.319575801e-10
2.351716675e-10
2.382404793e-10
2.411391537e-10
2.438457554e-10
2.463416916e-10
2.48610305e-10
2.506446026e-10
2.524482052e-10
3.144607923e-10
5.896741931e-10
6.75880625e-09
2.515185816e-08
5.507652129e-08
1.90964838e-10
2.945901648e-10
3.702361552e-10
4.168053078e-10
4.346833405e-10
4.261493948e-10
3.956386498e-10
3.497083964e-10
2.965644561e-10
2.450931901e-10
2.034931135e-10
1.788758398e-10
1.828684811e-10
1.866791409e-10
2.03133586e-10
2.308975137e-10
2.561044766e-10
2.718568751e-10
2.73449657e-10
2.587959201e-10
2.283743964e-10
2.146654239e-10
2.181913643e-10
2.217082445e-10
2.25191489e-10
2.286138084e-10
2.319464963e-10
2.351608856e-10
2.382301415e-10
2.41129397e-10
2.438366403e-10
2.463331948e-10
2.486027476e-10
2.506382924e-10
2.524430886e-10
3.256345122e-10
6.060644842e-10
7.38245236e-09
2.616351806e-08
5.674552117e-08
1.913358955e-10
2.963246553e-10
3.736936882e-10
4.222304216e-10
4.421280011e-10
4.35395615e-10
4.061415262e-10
3.605878166e-10
3.066715233e-10
2.531633004e-10
2.08369107e-10
1.78670428e-10
1.827021723e-10
1.865517812e-10
1.92901199e-10
2.189460208e-10
2.437606126e-10
2.602696429e-10
2.634207741e-10
2.507340899e-10
2.223382311e-10
2.146554134e-10
2.181811204e-10
2.216976164e-10
2.251805455e-10
2.286027065e-10
2.319354455e-10
2.351501236e-10
2.382198186e-10
2.411196474e-10
2.438275274e-10
2.463247171e-10
2.485952087e-10
2.506319861e-10
2.524379901e-10
3.370435872e-10
6.227918229e-10
8.020804445e-09
2.719897926e-08
5.845370536e-08
1.916986884e-10
2.98007187e-10
3.770431853e-10
4.27490452e-10
4.49366112e-10
4.44429306e-10
4.164806151e-10
3.714192096e-10
3.169117598e-10
2.615930949e-10
2.138395152e-10
1.803275391e-10
1.825348393e-10
1.86422264e-10
1.901462428e-10
2.075953663e-10
2.317979702e-10
2.488574901e-10
2.534007395e-10
2.425740514e-10
2.161525656e-10
2.146453515e-10
2.181708987e-10
2.216870326e-10
2.251696465e-10
2.285916475e-10
2.319244276e-10
2.35139382e-10
2.382095106e-10
2.411099048e-10
2.438184176e-10
2.463162577e-10
2.485876875e-10
2.506256849e-10
2.524329107e-10
3.486927707e-10
6.398629393e-10
8.674197133e-09
2.825878623e-08
6.020197169e-08
1.920531998e-10
2.996397398e-10
3.80289261e-10
4.325919727e-10
4.564038006e-10
4.532520046e-10
4.266475846e-10
3.821793396e-10
3.272441523e-10
2.703248249e-10
2.198348176e-10
1.827134242e-10
1.823667602e-10
1.862908414e-10
1.900491291e-10
1.968491105e-10
2.202359078e-10
2.376454014e-10
2.434155951e-10
2.343373278e-10
2.111188546e-10
2.146352209e-10
2.181606904e-10
2.216764896e-10
2.25158791e-10
2.285806251e-10
2.31913442e-10
2.351286611e-10
2.381992172e-10
2.411001694e-10
2.438093118e-10
2.463078156e-10
2.485801834e-10
2.5061939e-10
2.524278519e-10
3.605868984e-10
6.572846531e-10
9.34297264e-09
2.934349541e-08
6.199123762e-08
1.923994725e-10
3.012242649e-10
3.834363762e-10
4.375414181e-10
4.632474283e-10
4.61866374e-10
4.366366643e-10
3.928492905e-10
3.376336109e-10
2.793075068e-10
2.262924509e-10
1.857497058e-10
1.821981932e-10
1.861577535e-10
1.899497405e-10
1.936029277e-10
2.090900057e-10
2.266555559e-10
2.334896593e-10
2.26044741e-10
2.111077159e-10
2.146250039e-10
2.18150486e-10
2.216659834e-10
2.251479778e-10
2.285696411e-10
2.319024885e-10
2.351179614e-10
2.381889383e-10
2.410904414e-10
2.438002108e-10
2.462993899e-10
2.485726955e-10
2.506131024e-10
2.524228149e-10
3.727308922e-10
6.750638795e-10
1.00274809e-08
3.045367539e-08
6.382244075e-08
1.927375958e-10
3.02762669e-10
3.864888214e-10
4.423450427e-10
4.699034653e-10
4.702759251e-10
4.464441576e-10
4.034137768e-10
3.480501893e-10
2.884962847e-10
2.331560992e-10
1.893755711e-10
1.820293743e-10
1.860232238e-10
1.898482556e-10
1.935305178e-10
1.983719147e-10
2.159082437e-10
2.236455238e-10
2.177162501e-10
2.110962805e-10
2.146146831e-10
2.181402759e-10
2.216555095e-10
2.251372055e-10
2.285586953e-10
2.318915666e-10
2.35107283e-10
2.381786739e-10
2.410807208e-10
2.437911151e-10
2.4629098e-10
2.485652235e-10
2.506068232e-10
2.524178008e-10
3.851297642e-10
6.932076386e-10
1.072807967e-08
3.158990722e-08
6.569653924e-08
1.930676938e-10
3.042568041e-10
3.894507088e-10
4.470088937e-10
4.763783979e-10
4.784847963e-10
4.560680451e-10
4.138605677e-10
3.584684104e-10
2.978518407e-10
2.403753503e-10
1.935335895e-10
1.818604279e-10
1.85887453e-10
1.897448461e-10
1.934559758e-10
1.970566114e-10
2.054214047e-10
2.13904078e-10
2.093709679e-10
2.110845232e-10
2.146042409e-10
2.181300497e-10
2.216450632e-10
2.251264722e-10
2.285477871e-10
2.318806761e-10
2.350966262e-10
2.381684238e-10
2.410710079e-10
2.437820253e-10
2.46282585e-10
2.485577669e-10
2.506005533e-10
2.52412811e-10
3.977886236e-10
7.117230689e-10
1.144513467e-08
3.275278467e-08
6.761451242e-08
1.933899166e-10
3.057084599e-10
3.92325968e-10
4.515387928e-10
4.826786607e-10
4.864975786e-10
4.655076593e-10
4.241799987e-10
3.688666609e-10
3.073398252e-10
2.479060645e-10
1.98181583e-10
1.816916587e-10
1.857506437e-10
1.896396761e-10
1.933794152e-10
1.970036865e-10
2.005521129e-10
2.042844988e-10
2.075633531e-10
2.110724196e-10
2.145936597e-10
2.181197972e-10
2.216346396e-10
2.251157761e-10
2.285369158e-10
2.318698167e-10
2.35085991e-10
2.381581881e-10
2.410613028e-10
2.437729418e-10
2.462742045e-10
2.485503251e-10
2.505942937e-10
2.524078466e-10
4.107126849e-10
7.306174516e-10
1.217901982e-08
3.394291453e-08
6.957736126e-08
1.937044335e-10
3.071193601e-10
3.951183457e-10
4.559403238e-10
4.888105891e-10
4.943191753e-10
4.747634151e-10
4.343645483e-10
3.792266117e-10
3.1692998e-10
2.557075136e-10
2.032702226e-10
1.815231813e-10
1.856129777e-10
1.895329084e-10
1.933009497e-10
1.969489254e-10
2.005154391e-10
2.04038071e-10
2.075468126e-10
2.110599466e-10
2.145829222e-10
2.181095075e-10
2.216242331e-10
2.25105115e-10
2.285260808e-10
2.318589879e-10
2.350753775e-10
2.381479667e-10
2.410516057e-10
2.437638648e-10
2.462658378e-10
2.485428979e-10
2.505880452e-10
2.52402909e-10
4.239072807e-10
7.498982571e-10
1.293011748e-08
3.516091695e-08
7.158610887e-08
1.940114274e-10
3.084911601e-10
3.978314086e-10
4.602188178e-10
4.947803923e-10
5.019546911e-10
4.838365891e-10
4.44408486e-10
3.895327482e-10
3.265956616e-10
2.637428124e-10
2.087554233e-10
1.81355144e-10
1.854746249e-10
1.894246935e-10
1.932206907e-10
1.968923915e-10
2.004772675e-10
2.040127655e-10
2.075295619e-10
2.110470824e-10
2.145720113e-10
2.180991699e-10
2.21613838e-10
2.250944863e-10
2.285152809e-10
2.318481895e-10
2.350647858e-10
2.381377598e-10
2.410419167e-10
2.437547948e-10
2.462574845e-10
2.485354849e-10
2.505818088e-10
2.523979993e-10
4.373778763e-10
7.69573236e-10
1.369881896e-08
3.64074258e-08
7.364180117e-08
1.943110906e-10
3.098254478e-10
4.004685556e-10
4.643793985e-10
5.00594057e-10
5.0940936e-10
4.92729142e-10
4.543075804e-10
3.997719875e-10
3.363134651e-10
2.71978786e-10
2.145972726e-10
1.811876808e-10
1.85335744e-10
1.893151761e-10
1.93138748e-10
1.9683415e-10
2.004376227e-10
2.039863523e-10
2.075115829e-10
2.110338063e-10
2.1456091e-10
2.180887731e-10
2.216034485e-10
2.250838874e-10
2.285045153e-10
2.318374209e-10
2.350542158e-10
2.381275671e-10
2.41032236e-10
2.437457318e-10
2.462491441e-10
2.485280858e-10
2.505755851e-10
2.523931188e-10
4.511300786e-10
7.896505968e-10
1.448552507e-08
3.76830892e-08
7.574550748e-08
1.946036214e-10
3.111237432e-10
4.03033019e-10
4.684269562e-10
5.062573873e-10
5.166884576e-10
5.014435687e-10
4.640588565e-10
4.099333553e-10
3.460628833e-10
2.803856724e-10
2.207592911e-10
1.810209097e-10
1.851964837e-10
1.892044915e-10
1.930552287e-10
1.967742675e-10
2.003965325e-10
2.039588308e-10
2.074928602e-10
2.11020099e-10
2.14549602e-10
2.180783063e-10
2.215930581e-10
2.250733154e-10
2.284937827e-10
2.318266818e-10
2.350436675e-10
2.381173886e-10
2.41022564e-10
2.437366761e-10
2.462408162e-10
2.485207004e-10
2.50569375e-10
2.523882689e-10
4.651696077e-10
8.101393556e-10
1.529064717e-08
3.898857006e-08
7.789832105e-08
1.948892214e-10
3.123874986e-10
4.055278679e-10
4.723661442e-10
5.11775999e-10
5.237972567e-10
5.099827804e-10
4.736603938e-10
4.200077072e-10
3.558259953e-10
2.889368502e-10
2.272082788e-10
1.808549289e-10
1.850569106e-10
1.890927616e-10
1.92970236e-10
1.967128109e-10
2.003540272e-10
2.039302035e-10
2.074733805e-10
2.110059425e-10
2.145380712e-10
2.180677581e-10
2.215826606e-10
2.250627671e-10
2.284830817e-10
2.318159715e-10
2.350331407e-10
2.381072243e-10
2.410129008e-10
2.437276278e-10
2.462325004e-10
2.485133285e-10
2.505631792e-10
2.523834506e-10
4.795021386e-10
1.027256027e-09
1.611460867e-08
4.032454693e-08
8.010135977e-08
1.951680928e-10
3.136181e-10
4.079560156e-10
4.762013932e-10
5.171553051e-10
5.307409881e-10
5.183500062e-10
4.831111529e-10
4.299874822e-10
3.655871716e-10
2.976085776e-10
2.339147868e-10
1.813553454e-10
1.849172376e-10
1.889801162e-10
1.928838713e-10
1.966498477e-10
2.003101396e-10
2.039004756e-10
2.074531329e-10
2.1099132e-10
2.145263023e-10
2.180571175e-10
2.215722492e-10
2.250522393e-10
2.28472411e-10
2.318052896e-10
2.350226354e-10
2.380970741e-10
2.410032463e-10
2.437185871e-10
2.462241963e-10
2.4850597e-10
2.505569984e-10
2.529140527e-10
4.941334159e-10
1.55517509e-09
1.695784659e-08
4.169171454e-08
8.235576668e-08
1.954404369e-10
3.148168691e-10
4.103202279e-10
4.799369218e-10
5.224005089e-10
5.375248092e-10
5.265487135e-10
4.924108281e-10
4.398664809e-10
3.753327735e-10
3.063794947e-10
2.40851174e-10
1.857224181e-10
1.847775345e-10
1.888666711e-10
1.927962309e-10
1.965854453e-10
2.002649042e-10
2.038696551e-10
2.074321085e-10
2.109762162e-10
2.145142803e-10
2.180463733e-10
2.215618173e-10
2.250417283e-10
2.284617688e-10
2.317946353e-10
2.350121514e-10
2.38086938e-10
2.409936009e-10
2.43709554e-10
2.462159035e-10
2.484986246e-10
2.505508334e-10
2.632586171e-10
5.090695173e-10
2.095615272e-09
1.78208094e-08
4.309078387e-08
8.466271043e-08
1.957064526e-10
3.159850652e-10
4.126231302e-10
4.835767536e-10
5.275165975e-10
5.44153781e-10
5.345825412e-10
5.015597224e-10
4.496396739e-10
3.850509049e-10
3.15230379e-10
2.479918353e-10
1.904155143e-10
1.846379036e-10
1.887525346e-10
1.927074113e-10
1.96519671e-10
2.002183572e-10
2.038377524e-10
2.074103008e-10
2.10960617e-10
2.145019909e-10
2.180355148e-10
2.215513579e-10
2.250312306e-10
2.284511536e-10
2.31784008e-10
2.350016885e-10
2.380768159e-10
2.409839645e-10
2.437005287e-10
2.462076219e-10
2.484912923e-10
2.505446849e-10
2.738226631e-10
5.24316579e-10
2.648845745e-09
1.870395286e-08
4.452248217e-08
8.702338576e-08
1.959663355e-10
3.171238869e-10
4.148672098e-10
4.871246946e-10
5.325083751e-10
5.506328545e-10
5.424552463e-10
5.105586408e-10
4.593030397e-10
3.94731208e-10
3.241439555e-10
2.553133503e-10
1.954074508e-10
1.844984384e-10
1.8863781e-10
1.926175012e-10
1.964525913e-10
2.001705363e-10
2.038047796e-10
2.07387705e-10
2.109445098e-10
2.144894205e-10
2.180245309e-10
2.21540864e-10
2.250207423e-10
2.284405635e-10
2.317734068e-10
2.34991246e-10
2.38066708e-10
2.409743371e-10
2.436915112e-10
2.461993512e-10
2.484839729e-10
2.505385533e-10
2.846105484e-10
5.398807771e-10
3.215143868e-09
1.960774076e-08
4.598755271e-08
8.943901417e-08
1.962202771e-10
3.182344754e-10
4.170548257e-10
4.905843634e-10
5.373804463e-10
5.569668556e-10
5.501706595e-10
5.19408802e-10
4.688534267e-10
4.0436469e-10
3.331047303e-10
2.627943198e-10
2.006730088e-10
1.843592241e-10
1.885225959e-10
1.925265881e-10
1.963842714e-10
2.001214803e-10
2.037707507e-10
2.073643181e-10
2.109278831e-10
2.144765561e-10
2.180134111e-10
2.215303285e-10
2.250102594e-10
2.284299964e-10
2.317628309e-10
2.349808235e-10
2.380566146e-10
2.409647189e-10
2.436825014e-10
2.46191091e-10
2.484766663e-10
2.505324394e-10
2.956267151e-10
5.557683381e-10
3.794795045e-09
2.053264577e-08
4.74867551e-08
9.191084437e-08
1.964684644e-10
3.193179175e-10
4.191882188e-10
4.939592071e-10
5.421372146e-10
5.631604741e-10
5.577326485e-10
5.281117641e-10
4.782884353e-10
4.139435709e-10
3.420988306e-10
2.704152144e-10
2.061887553e-10
1.842203361e-10
1.884069678e-10
1.924347549e-10
1.963147754e-10
2.000712287e-10
2.037356815e-10
2.073401389e-10
2.109107268e-10
2.144633854e-10
2.180021449e-10
2.215197443e-10
2.249997778e-10
2.284194504e-10
2.317522791e-10
2.349704206e-10
2.380465354e-10
2.409551099e-10
2.436734995e-10
2.461828411e-10
2.484693726e-10
2.505263436e-10
3.068756851e-10