/*--------------------------------*- C++ -*----------------------------------*\
| =========                 |                                                 |
| \\      /  F ield         | OpenFOAM: The Open Source CFD Toolbox           |
|  \\    /   O peration     | Version:  v2006                                 |
|   \\  /    A nd           | Website:  www.openfoam.com                      |
|    \\/     M anipulation  |                                                 |
\*---------------------------------------------------------------------------*/
FoamFile
{
    version     2.0;
    format      ascii;
    class       volScalarField;
    location    "0.09";
    object      CH3O;
}
// * * * * * * * * * * * * * * * * * * * * * * * * * * * * * * * * * * * * * //

dimensions      [0 0 0 0 0 0 0];


internalField   nonuniform List<scalar> 
168000
(
6.315076692e-12
1.193770376e-11
1.727930433e-11
2.335512974e-11
2.939832947e-11
3.479672059e-11
4.038758698e-11
4.598790206e-11
4.984759981e-11
5.292448136e-11
5.55845347e-11
5.649922154e-11
5.605813939e-11
5.500254277e-11
5.198245251e-11
4.788325726e-11
4.293220675e-11
3.634885839e-11
2.908601249e-11
2.090040805e-11
1.200557229e-11
2.88562491e-12
1.193714845e-12
1.213031127e-12
1.232331639e-12
1.250997887e-12
1.269638679e-12
1.28693383e-12
1.303967021e-12
1.319789756e-12
1.334456269e-12
1.348315288e-12
1.360629542e-12
1.371537746e-12
1.381343799e-12
1.389955688e-12
1.996763839e-12
3.345049298e-11
2.078758544e-09
9.109964888e-09
6.585843707e-12
1.209021957e-11
1.521064185e-11
1.863697262e-11
2.282875991e-11
2.762111674e-11
3.308350603e-11
3.882045834e-11
4.382303709e-11
4.809743664e-11
5.158448591e-11
5.357886645e-11
5.410943606e-11
5.345996542e-11
5.108869713e-11
4.736709096e-11
4.249167482e-11
3.622898095e-11
2.895467386e-11
2.088242886e-11
1.201704763e-11
2.903777522e-12
1.193637721e-12
1.212979575e-12
1.232246739e-12
1.250965643e-12
1.269530319e-12
1.286905637e-12
1.303893742e-12
1.319729612e-12
1.334424008e-12
1.348253584e-12
1.360581144e-12
1.371509531e-12
1.381316365e-12
1.389924944e-12
3.230101854e-12
3.52061103e-11
2.301864003e-09
9.483146702e-09
6.250842932e-12
1.200962576e-11
1.419785683e-11
1.585265614e-11
1.831526426e-11
2.196481937e-11
2.679698177e-11
3.238757848e-11
3.795797125e-11
4.308114491e-11
4.739657398e-11
5.035621956e-11
5.178709841e-11
5.173524427e-11
4.997235662e-11
4.667068428e-11
4.200619052e-11
3.598533247e-11
2.881282739e-11
2.082271693e-11
1.201866119e-11
2.91373016e-12
1.19356467e-12
1.212923787e-12
1.232167957e-12
1.250924765e-12
1.269432144e-12
1.286869909e-12
1.303823735e-12
1.319670401e-12
1.334388749e-12
1.348193977e-12
1.360533194e-12
1.371480474e-12
1.381288764e-12
1.389894811e-12
4.479690736e-12
3.700047818e-11
2.530534607e-09
9.864734122e-09
6.011188622e-12
1.195039761e-11
1.382467972e-11
1.437686443e-11
1.539214576e-11
1.773631971e-11
2.162311588e-11
2.674834951e-11
3.244673453e-11
3.808930999e-11
4.310201691e-11
4.690749491e-11
4.917910269e-11
4.980469725e-11
4.86523934e-11
4.580952729e-11
4.143915291e-11
3.565811097e-11
2.8636688e-11
2.073216626e-11
1.200594498e-11
2.916460592e-12
1.193494437e-12
1.212865144e-12
1.232093533e-12
1.250877504e-12
1.269341816e-12
1.286828365e-12
1.303756276e-12
1.319612009e-12
1.334350969e-12
1.34813614e-12
1.360485696e-12
1.371450668e-12
1.381261006e-12
1.389865251e-12
5.747506803e-12
3.883371195e-11
2.764853752e-09
1.025501992e-08
5.886155557e-12
1.198994792e-11
1.385169355e-11
1.377175382e-11
1.366344666e-11
1.474505404e-11
1.753396308e-11
2.19364968e-11
2.741725634e-11
3.327626584e-11
3.879774909e-11
4.331229933e-11
4.635368193e-11
4.767649771e-11
4.71444219e-11
4.479367625e-11
4.077369874e-11
3.525240162e-11
2.84144565e-11
2.061163033e-11
1.197129332e-11
2.911787579e-12
1.193426185e-12
1.212804608e-12
1.232022207e-12
1.250825545e-12
1.26925754e-12
1.286782337e-12
1.303690807e-12
1.31955433e-12
1.334311073e-12
1.348079801e-12
1.360438642e-12
1.371420197e-12
1.381233099e-12
1.389836228e-12
7.035260755e-12
4.070606575e-11
3.004915635e-09
1.065428684e-08
5.833589042e-12
1.212685542e-11
1.413522607e-11
1.37421997e-11
1.281192339e-11
1.277389803e-11
1.443107375e-11
1.794348535e-11
2.294383425e-11
2.875207111e-11
3.457577946e-11
3.964775798e-11
4.337111861e-11
4.537405066e-11
4.546496133e-11
4.363145035e-11
4.000285267e-11
3.476872201e-11
2.813979356e-11
2.045878588e-11
1.191437387e-11
2.896470598e-12
1.193359357e-12
1.212742843e-12
1.231953081e-12
1.250770146e-12
1.269177945e-12
1.286732857e-12
1.303626899e-12
1.319497266e-12
1.334269401e-12
1.348024735e-12
1.36039202e-12
1.371389136e-12
1.381205056e-12
1.389807712e-12
8.344451536e-12
4.261790808e-11
3.250823869e-09
1.106281015e-08
5.827249935e-12
1.23378052e-11
1.458111548e-11
1.408747018e-11
1.2594218e-11
1.161708313e-11
1.219049139e-11
1.472785492e-11
1.905826089e-11
2.459085371e-11
3.051438392e-11
3.598456196e-11
4.0287163e-11
4.292802835e-11
4.363257308e-11
4.233175439e-11
3.912500047e-11
3.420604158e-11
2.780904606e-11
2.027189372e-11
1.183353051e-11
2.869479187e-12
1.193293585e-12
1.212680306e-12
1.231885516e-12
1.250712243e-12
1.269101977e-12
1.286680721e-12
1.303564222e-12
1.319440727e-12
1.33422624e-12
1.347970753e-12
1.360345812e-12
1.371357553e-12
1.381176888e-12
1.389779676e-12
9.676409627e-12
4.45697024e-11
3.502690387e-09
1.148085994e-08
5.851892836e-12
1.260054826e-11
1.51295751e-11
1.468176768e-11
1.282353676e-11
1.109570246e-11
1.068026121e-11
1.222097028e-11
1.575961514e-11
2.083715222e-11
2.667511525e-11
3.238461705e-11
3.715359897e-11
4.037174869e-11
4.166781637e-11
4.090491609e-11
3.81418168e-11
3.356351958e-11
2.741989492e-11
2.004794138e-11
1.172724543e-11
2.829026464e-12
1.193228624e-12
1.212617314e-12
1.231819067e-12
1.250652534e-12
1.26902883e-12
1.286626548e-12
1.303502521e-12
1.319384633e-12
1.334181833e-12
1.347917701e-12
1.360299999e-12
1.371325509e-12
1.381148607e-12
1.389752094e-12
1.103233186e-11
4.656199132e-11
3.760634532e-09
1.190870293e-08
5.897560154e-12
1.289721222e-11
1.573996904e-11
1.543501683e-11
1.337685766e-11
1.106454776e-11
9.775912554e-12
1.034675115e-11
1.302587793e-11
1.751190141e-11
2.310275374e-11
2.889977704e-11
3.401723668e-11
3.773916666e-11
3.959266833e-11
3.936279196e-11
3.705725623e-11
3.284118626e-11
2.697092654e-11
1.978454355e-11
1.159411748e-11
2.773452839e-12
1.193164339e-12
1.212554089e-12
1.231753423e-12
1.250591536e-12
1.268957888e-12
1.286570817e-12
1.303441599e-12
1.319328915e-12
1.334136382e-12
1.347865447e-12
1.360254559e-12
1.371293059e-12
1.381120227e-12
1.389724946e-12
1.241330964e-11
4.85953846e-11
4.024782308e-09
1.234660404e-08
5.957378403e-12
1.321450673e-11
1.638488165e-11
1.628709607e-11
1.415001512e-11
1.139566965e-11
9.365275061e-12
9.02438739e-12
1.081795701e-11
1.461745285e-11
1.982673556e-11
2.557156263e-11
3.09193485e-11
3.506319914e-11
3.74298389e-11
3.771853317e-11
3.587699029e-11
3.204015201e-11
2.646145689e-11
1.947970246e-11
1.143220698e-11
2.701148077e-12
1.193100653e-12
1.212490784e-12
1.23168837e-12
1.250529633e-12
1.268888678e-12
1.286513899e-12
1.303381303e-12
1.319273513e-12
1.33409006e-12
1.347813882e-12
1.360209469e-12
1.37126025e-12
1.381091759e-12
1.389698213e-12
1.382035172e-11
5.067054985e-11
4.295265787e-09
1.27948277e-08
6.026526542e-12
1.354289454e-11
1.70458697e-11
1.719772083e-11
1.507541939e-11
1.201238898e-11
9.355121884e-12
8.176230087e-12
9.091096236e-12
1.214288638e-11
1.686340224e-11
2.243158586e-11
2.789534666e-11
3.237464793e-11
3.520201323e-11
3.59862234e-11
3.460802817e-11
3.116260894e-11
2.589147646e-11
1.913196744e-11
1.124096513e-11
2.610633906e-12
1.193037466e-12
1.212427504e-12
1.231623762e-12
1.250467111e-12
1.268820836e-12
1.286456083e-12
1.303321514e-12
1.319218375e-12
1.33404301e-12
1.347762915e-12
1.360164707e-12
1.371227129e-12
1.381063218e-12
1.389671878e-12
1.525440279e-11
5.278820628e-11
4.572222648e-09
1.325363895e-08
6.101607564e-12
1.387563548e-11
1.77104211e-11
1.813899135e-11
1.61012234e-11
1.283249876e-11
9.655153692e-12
7.72966511e-12
7.7964209e-12
1.006964139e-11
1.421848684e-11
1.950240547e-11
2.497468776e-11
2.970177021e-11
3.293092168e-11
3.41805419e-11
3.325841564e-11
3.02117415e-11
2.526161381e-11
1.874032966e-11
1.101896717e-11
2.500639718e-12
1.192974761e-12
1.212364323e-12
1.231559502e-12
1.250404181e-12
1.268754085e-12
1.286397593e-12
1.30326214e-12
1.319163458e-12
1.333995355e-12
1.347712469e-12
1.360120252e-12
1.371193732e-12
1.381034614e-12
1.389645925e-12
1.671635914e-11
5.494912184e-11
4.855795834e-09
1.372330441e-08
6.18021906e-12
1.420802255e-11
1.837009828e-11
1.909178684e-11
1.719068201e-11
1.380306328e-11
1.021390541e-11
7.622547122e-12
6.884737508e-12
8.369341313e-12
1.188890457e-11
1.679857537e-11
2.218098292e-11
2.706937039e-11
3.063745423e-11
3.231635054e-11
3.183695993e-11
2.919159728e-11
2.457310483e-11
1.830425043e-11
1.076527498e-11
2.370050342e-12
1.19291252e-12
1.212301283e-12
1.231495527e-12
1.250341002e-12
1.26868821e-12
1.286338603e-12
1.30320311e-12
1.319108725e-12
1.333947197e-12
1.34766248e-12
1.360076083e-12
1.371160097e-12
1.381005961e-12
1.389620344e-12
1.820708187e-11
5.715411558e-11
5.14613333e-09
1.420409305e-08
6.260657834e-12
1.453681327e-11
1.901926589e-11
2.004296003e-11
1.831696233e-11
1.488058255e-11
1.096719073e-11
7.789809518e-12
6.308434773e-12
7.01392333e-12
9.865552855e-12
1.432793326e-11
1.95323935e-11
2.44988668e-11
2.834103578e-11
3.040837225e-11
3.035297446e-11
2.810694288e-11
2.382775245e-11
1.782364169e-11
1.047915369e-11
2.217738653e-12
1.192850735e-12
1.212238487e-12
1.231431802e-12
1.250277689e-12
1.268623049e-12
1.28627925e-12
1.303144366e-12
1.319054147e-12
1.333898623e-12
1.347612893e-12
1.36003218e-12
1.371126255e-12
1.380977271e-12
1.389595122e-12
1.972740804e-11
5.940406891e-11
5.443388073e-09
1.469627695e-08
6.341714377e-12
1.485980799e-11
1.965424182e-11
2.098354216e-11
1.946067888e-11
1.603238979e-11
1.187303927e-11
8.196358796e-12
6.025578372e-12
5.973068778e-12
8.135929531e-12
1.209285014e-11
1.70421547e-11
2.200831399e-11
2.605931431e-11
2.847093809e-11
2.881603543e-11
2.696311733e-11
2.302787601e-11
1.729884258e-11
1.016010615e-11
2.042867432e-12
1.192789401e-12
1.212175896e-12
1.231368303e-12
1.25021433e-12
1.268558476e-12
1.286219637e-12
1.303085863e-12
1.318999698e-12
1.333849704e-12
1.347563661e-12
1.359988525e-12
1.371092233e-12
1.380948555e-12
1.389570252e-12
2.127815874e-11
6.169995277e-11
5.747717991e-09
1.520013193e-08
6.422531348e-12
1.517555337e-11
2.02727065e-11
2.190749171e-11
2.060781142e-11
1.723330044e-11
1.289505232e-11
8.792475789e-12
5.996097867e-12
5.215875394e-12
6.681963689e-12
1.009101402e-11
1.471913573e-11
1.961253172e-11
2.380820306e-11
2.651751763e-11
2.723579889e-11
2.576589314e-11
2.217625211e-11
1.67305908e-11
9.807885731e-12
1.844875835e-12
1.192728513e-12
1.212113558e-12
1.231305019e-12
1.25015099e-12
1.268494393e-12
1.286159849e-12
1.303027568e-12
1.318945357e-12
1.333800503e-12
1.347514745e-12
1.359945099e-12
1.371058059e-12
1.380919824e-12
1.389545724e-12
2.286013889e-11
7.077880536e-11
6.059286303e-09
1.571593812e-08
6.502504633e-12
1.54831301e-11
2.087329453e-11
2.281083644e-11
2.174828257e-11
1.846407683e-11
1.400421101e-11
9.542290857e-12
6.174487999e-12
4.71212543e-12
5.486134527e-12
8.316877601e-12
1.256849155e-11
1.732330463e-11
2.160180417e-11
2.456054891e-11
2.562183436e-11
2.452134527e-11
2.127604944e-11
1.611998795e-11
9.422474183e-12
1.623121019e-12
1.192668069e-12
1.212051491e-12
1.231241946e-12
1.250087717e-12
1.268430726e-12
1.286099949e-12
1.302969454e-12
1.318891108e-12
1.333751071e-12
1.347466112e-12
1.359901888e-12
1.371023754e-12
1.38089109e-12
1.389521531e-12
2.447411834e-11
2.666516286e-10
6.378262038e-09
1.624398049e-08
6.581212878e-12
1.578199762e-11
2.145531195e-11
2.36910748e-11
2.287492629e-11
1.971012584e-11
1.517768762e-11
1.041838762e-11
6.546171163e-12
4.436064932e-12
4.529606606e-12
6.762308352e-12
1.059226304e-11
1.514960623e-11
1.945206541e-11
2.261171845e-11
2.39834661e-11
2.323572867e-11
2.033076062e-11
1.546846364e-11
9.004087959e-12
1.377206271e-12
1.192608063e-12
1.211989709e-12
1.231179083e-12
1.250024548e-12
1.268367419e-12
1.286039988e-12
1.302911499e-12
1.318836936e-12
1.333701452e-12
1.347417732e-12
1.359858876e-12
1.370989339e-12
1.380862363e-12
1.389497669e-12
2.612089376e-11
4.67226188e-10
6.704819961e-09
1.678454885e-08
6.658368234e-12
1.607188781e-11
2.201853047e-11
2.454674781e-11
2.39827088e-11
2.096032837e-11
1.639690796e-11
1.139503581e-11
7.073698803e-12
4.361352337e-12
3.793132816e-12
5.418508403e-12
8.789993258e-12
1.309790267e-11
1.736906708e-11
2.068164944e-11
2.232965497e-11
2.191536758e-11
1.934413334e-11
1.477773745e-11
8.55316911e-12
1.173116754e-12
1.19254849e-12
1.211928223e-12
1.231116423e-12
1.249961509e-12
1.268304427e-12
1.285980005e-12
1.302853687e-12
1.31878283e-12
1.333651684e-12
1.347369581e-12
1.359816049e-12
1.370954833e-12
1.380833652e-12
1.38947413e-12
2.780125236e-11
6.726056891e-10
7.039138094e-09
1.733793766e-08
6.73378036e-12
1.635272514e-11
2.256304445e-11
2.537713597e-11
2.506817042e-11
2.22062555e-11
1.764698749e-11
1.245110172e-11
7.732556952e-12
4.458076025e-12
3.257203258e-12
4.272743587e-12
7.158898782e-12
1.117243347e-11
1.536113139e-11
1.877983663e-11
2.066891313e-11
2.056655579e-11
1.832010295e-11
1.404977992e-11
8.070370768e-12
1.173060479e-12
1.192489338e-12
1.211867042e-12
1.231054012e-12
1.249898623e-12
1.268241717e-12
1.285920031e-12
1.302796003e-12
1.318728782e-12
1.333601795e-12
1.347321639e-12
1.359773396e-12
1.370920253e-12
1.380804968e-12
1.389450911e-12
2.95159744e-11
8.828966786e-10
7.381397871e-09
1.790444477e-08
6.807330221e-12
1.662456916e-11
2.308916879e-11
2.618204351e-11
2.612901948e-11
2.344157153e-11
1.891608773e-11
1.35693055e-11
8.503071507e-12
4.715481159e-12
2.904911636e-12
3.314198591e-12
5.694763711e-12
9.375551349e-12
1.343494626e-11
1.691462467e-11
1.900926205e-11
1.919546327e-11
1.726272844e-11
1.328677332e-11
7.556537453e-12
1.173004607e-12
1.192430599e-12
1.211806172e-12
1.230991814e-12
1.249835905e-12
1.268179264e-12
1.28586009e-12
1.302738437e-12
1.318674786e-12
1.333551814e-12
1.347273886e-12
1.359730904e-12
1.370885613e-12
1.380776319e-12
1.389428008e-12
3.126583591e-11
1.09820899e-09
7.731784609e-09
1.84843685e-08
6.878950941e-12
1.688757298e-11
2.35973659e-11
2.696164331e-11
2.71638301e-11
2.466155641e-11
2.019477077e-11
1.473511908e-11
9.36650978e-12
5.108149446e-12
2.718714954e-12
2.530757443e-12
4.392080354e-12
7.708006075e-12
1.159572118e-11
1.509336285e-11
1.73580332e-11
1.780806639e-11
1.617613489e-11
1.24910738e-11
7.012695045e-12
1.172949082e-12
1.19237225e-12
1.211745614e-12
1.230929849e-12
1.249773368e-12
1.268117047e-12
1.285800202e-12
1.302680979e-12
1.318620838e-12
1.333501761e-12
1.347226307e-12
1.359688563e-12
1.370850927e-12
1.380747716e-12
2.362645451e-12
3.305161113e-11
1.318655588e-09
8.090487075e-09
1.90780199e-08
6.948613794e-12
1.71419532e-11
2.408819269e-11
2.771636587e-11
2.81718172e-11
2.586274158e-11
2.147553569e-11
1.593644501e-11
1.030687605e-11
5.618729332e-12
2.682642757e-12
1.910185679e-12
3.24471093e-12
6.169230701e-12
9.847336821e-12
1.332247041e-11
1.572177131e-11
1.641012882e-11
1.506446411e-11
1.16651748e-11
6.440029377e-12
1.172893845e-12
1.192314273e-12
1.211685369e-12
1.230868123e-12
1.249711021e-12
1.268055051e-12
1.285740381e-12
1.302623623e-12
1.318566934e-12
1.333451656e-12
1.347178888e-12
1.359646364e-12
1.370816208e-12
1.380719166e-12
3.600798614e-12
3.487407694e-11
1.544352544e-09
8.45769798e-09
1.968571898e-08
7.016317858e-12
1.738796848e-11
2.456226516e-11
2.844681241e-11
2.915267191e-11
2.704263123e-11
2.275245196e-11
1.716325925e-11
1.131045688e-11
6.231110143e-12
2.775205697e-12
1.440104456e-12
2.245520877e-12
4.757519317e-12
8.192462979e-12
1.160728478e-11
1.410649208e-11
1.50071236e-11
1.393182695e-11
1.081167226e-11
5.839866445e-12
1.172838827e-12
1.192256644e-12
1.211625434e-12
1.23080664e-12
1.249648871e-12
1.267993266e-12
1.285680638e-12
1.302566364e-12
1.318513072e-12
1.333401514e-12
1.347131617e-12
1.359604299e-12
1.370781466e-12
1.380690677e-12
4.865098059e-12
3.673401394e-11
1.775418984e-09
8.833614262e-09
2.030779256e-08
7.082082502e-12
1.762590395e-11
2.502023281e-11
2.915369771e-11
3.010643305e-11
2.819948507e-11
2.402086045e-11
1.840729699e-11
1.236571522e-11
6.932858044e-12
2.994304479e-12
1.110200281e-12
1.38704134e-12
3.47026472e-12
6.632697667e-12
9.952122219e-12
1.251768622e-11
1.360421586e-11
1.278226374e-11
9.933231895e-12
5.213652636e-12
1.172783957e-12
1.192199335e-12
1.211565805e-12
1.230745404e-12
1.249586925e-12
1.267931682e-12
1.285620983e-12
1.302509197e-12
1.318459249e-12
1.333351348e-12
1.347084483e-12
1.359562359e-12
1.370746713e-12
1.380662258e-12
6.156080876e-12
3.863220802e-11
2.011977062e-09
9.218437206e-09
2.094457446e-08
7.145941342e-12
1.785605903e-11
2.546275637e-11
2.983780974e-11
3.103339318e-11
2.933214736e-11
2.527711964e-11
1.966170723e-11
1.346258049e-11
7.711251e-12
3.320885198e-12
9.778721771e-13
9.993911136e-13
2.304173244e-12
5.168721913e-12
8.360471244e-12
1.096020761e-11
1.220623569e-11
1.161971008e-11
9.03255901e-12
4.562934873e-12
1.172729156e-12
1.192142313e-12
1.211506475e-12
1.230684417e-12
1.249525186e-12
1.267870293e-12
1.285561424e-12
1.302452119e-12
1.318405464e-12
1.33330117e-12
1.347037477e-12
1.359520537e-12
1.370711957e-12
1.380633916e-12
7.474293402e-12
4.05694516e-11
2.25415195e-09
9.612372547e-09
2.159640574e-08
7.207938065e-12
1.807873917e-11
2.58904954e-11
3.04999768e-11
3.193402712e-11
3.043991414e-11
2.651840697e-11
2.092082165e-11
1.459238387e-11
8.555238666e-12
3.743528503e-12
9.767384754e-13
9.984921306e-13
1.255382994e-12
3.800434268e-12
6.835056312e-12
9.438301727e-12
1.081766498e-11
1.044796824e-11
8.11237103e-12
3.88934164e-12
1.172674341e-12
1.192085542e-12
1.211447432e-12
1.23062368e-12
1.249463657e-12
1.267809094e-12
1.285501967e-12
1.302395127e-12
1.318351718e-12
1.333250989e-12
1.346990591e-12
1.359478828e-12
1.370677207e-12
1.380605658e-12
8.820291103e-12
4.254654493e-11
2.502071864e-09
1.001563057e-08
2.226363489e-08
7.268123144e-12
1.829424999e-11
2.630409984e-11
3.11410437e-11
3.280893805e-11
3.152243047e-11
2.774256226e-11
2.217996812e-11
1.574770242e-11
9.455120778e-12
4.251446497e-12
9.756053218e-13
9.97583969e-13
1.018560847e-12
2.52708614e-12
5.377910116e-12
7.955632126e-12
9.442637454e-12
9.270683255e-12
7.175372576e-12
3.194564529e-12
1.172619425e-12
1.192028983e-12
1.211388666e-12
1.230563191e-12
1.249402337e-12
1.26774808e-12
1.285442615e-12
1.30233822e-12
1.318298009e-12
1.333200812e-12
1.346943817e-12
1.359437227e-12
1.370642471e-12
1.380577493e-12
1.019463887e-11
4.456429684e-11
2.755868063e-09
1.042842621e-08
2.294661801e-08
7.326551394e-12
1.850289245e-11
2.670420039e-11
3.176185868e-11
3.365881733e-11
3.257961031e-11
2.894796178e-11
2.343531226e-11
1.692220357e-11
1.040244427e-11
4.835379731e-12
9.74474573e-13
9.966684741e-13
1.017859759e-12
1.347470137e-12
3.990445944e-12
6.515300569e-12
8.084954791e-12
8.091320856e-12
6.224233265e-12
2.480340699e-12
1.17256432e-12
1.191972592e-12
1.21133016e-12
1.23050295e-12
1.249341223e-12
1.267687248e-12
1.285383372e-12
1.302281395e-12
1.31824434e-12
1.333150648e-12
1.34689715e-12
1.359395727e-12
1.370607756e-12
1.380549426e-12
1.159791119e-11
4.662352579e-11
3.015674888e-09
1.085097918e-08
2.364571904e-08
7.383280178e-12
1.870496043e-11
2.709140687e-11
3.236325901e-11
3.448441349e-11
3.361157363e-11
3.01334156e-11
2.468371945e-11
1.811048129e-11
1.138976692e-11
5.486801037e-12
1.187404514e-12
9.957473415e-13
1.017146794e-12
1.037646511e-12
2.673512535e-12
5.119921286e-12
6.748055413e-12
6.913140348e-12
5.261568651e-12
1.748436649e-12
1.172508931e-12
1.191916324e-12
1.211271899e-12
1.230442953e-12
1.249280346e-12
1.267626596e-12
1.285324241e-12
1.302224651e-12
1.318190709e-12
1.3331005e-12
1.346850582e-12
1.359354324e-12
1.370573069e-12
1.380521466e-12
1.303069237e-11
4.872506042e-11
3.281629789e-09
1.128351402e-08
2.436130991e-08
7.438368179e-12
1.890073892e-11
2.746630596e-11
3.294606273e-11
3.528650895e-11
3.461859681e-11
3.129808371e-11
2.592263772e-11
1.930791474e-11
1.241049249e-11
6.197696573e-12
1.48391943e-12
9.948221016e-13
1.01642334e-12
1.03711192e-12
1.427509832e-12
3.771758519e-12
5.434877761e-12
5.739215191e-12
4.289927026e-12
1.15309631e-12
1.172453164e-12
1.191860129e-12
1.211213862e-12
1.230383196e-12
1.24921967e-12
1.267566123e-12
1.285265225e-12
1.302167988e-12
1.318137118e-12
1.333050375e-12
1.34680411e-12
1.359313015e-12
1.370538417e-12
1.380493618e-12
1.44935769e-11
5.086974041e-11
3.553873362e-09
1.172626027e-08
2.509377082e-08
7.491874344e-12
1.909050274e-11
2.782945931e-11
3.351106342e-11
3.606590274e-11
3.560107376e-11
3.244140829e-11
2.7150002e-11
2.051055993e-11
1.345880534e-11
6.960860652e-12
1.854940657e-12
9.938941757e-13
1.015690719e-12
1.036564807e-12
1.056674831e-12
2.472632548e-12
4.148029815e-12
4.572415337e-12
3.311773663e-12
1.153034994e-12
1.172396922e-12
1.191803956e-12
1.211156027e-12
1.230323671e-12
1.249159205e-12
1.267505826e-12
1.285206326e-12
1.302111405e-12
1.318083567e-12
1.333000275e-12
1.346757729e-12
1.359271796e-12
1.370503805e-12
1.38046589e-12
1.598716979e-11
5.305841729e-11
3.832549393e-09
1.217945254e-08
2.584349037e-08
7.543857214e-12
1.927451567e-11
2.818140276e-11
3.405902675e-11
3.682339761e-11
3.655948538e-11
3.356305903e-11
2.836415561e-11
2.17150597e-11
1.4529596e-11
7.769812905e-12
2.293418821e-12
9.929648636e-13
1.014950162e-12
1.036006154e-12
1.05627623e-12
1.223902214e-12
2.889896561e-12
3.415406772e-12
2.329471653e-12
1.152972045e-12
1.172340108e-12
1.191747752e-12
1.21109837e-12
1.230264372e-12
1.249098951e-12
1.267445704e-12
1.285147544e-12
1.302054902e-12
1.318030057e-12
1.332950205e-12
1.346711434e-12
1.359230664e-12
1.370469239e-12
1.380438289e-12
1.751208721e-11
5.529195545e-11
4.117804914e-09
1.264333062e-08
2.661086582e-08
7.594374327e-12
1.945303014e-11
2.852264632e-11
3.459068843e-11
3.755979056e-11
3.749437558e-11
3.466288869e-11
2.956378465e-11
2.291856618e-11
1.561839247e-11
8.618757565e-12
2.792702824e-12
9.920348493e-13
1.014202772e-12
1.035436907e-12
1.055865892e-12
1.075686631e-12
1.662586014e-12
2.270654361e-12
1.345283851e-12
1.152907323e-12
1.172282626e-12
1.191691459e-12
1.211040866e-12
1.230205287e-12
1.249038903e-12
1.267385754e-12
1.28508888e-12
1.301998477e-12
1.31797659e-12
1.332900168e-12
1.346665221e-12
1.359189617e-12
1.370434725e-12
1.380410821e-12
1.90689572e-11
5.757123395e-11
4.409790256e-09
1.311813961e-08
2.739630326e-08
7.643481876e-12
1.962628701e-11
2.885367441e-11
3.510675293e-11
3.827586605e-11
3.840633229e-11
3.574089673e-11
3.074786254e-11
2.411867106e-11
1.672129396e-11
9.502623989e-12
3.347899819e-12
9.911058106e-13
1.013449666e-12
1.034857968e-12
1.055444442e-12
1.07539529e-12
1.094928628e-12
1.140420716e-12
1.133524025e-12
1.152840695e-12
1.172224379e-12
1.191635021e-12
1.210983486e-12
1.230146408e-12
1.248979059e-12
1.267325975e-12
1.285030336e-12
1.301942132e-12
1.317923165e-12
1.332850165e-12
1.346619088e-12
1.359148652e-12
1.370400267e-12
1.380383493e-12
2.065842078e-11
5.989714939e-11
4.708659145e-09
1.360413004e-08
2.820021788e-08
7.691234431e-12
1.979451571e-11
2.91749465e-11
3.560789291e-11
3.897239147e-11
3.929597239e-11
3.679719932e-11
3.1915602e-11
2.531333919e-11
1.783486989e-11
1.041673852e-11
3.953303629e-12
9.901783779e-13
1.012691843e-12
1.034270234e-12
1.055012506e-12
1.075093842e-12
1.094726747e-12
1.114118092e-12
1.133432973e-12
1.152772034e-12
1.172165271e-12
1.191578379e-12
1.210926201e-12
1.23008772e-12
1.248919415e-12
1.267266365e-12
1.284971911e-12
1.301885865e-12
1.317869785e-12
1.332800199e-12
1.346573032e-12
1.359107766e-12
1.370365871e-12
1.380356312e-12
2.228113348e-11
6.227062176e-11
5.014568808e-09
1.410155801e-08
2.902303414e-08
7.737684785e-12
1.995793454e-11
2.948689794e-11
3.609474806e-11
3.965011473e-11
4.016392981e-11
3.783200477e-11
3.306641514e-11
2.65008547e-11
1.895610472e-11
1.135687288e-11
4.60381715e-12
9.892533678e-13
1.011930241e-12
1.033674534e-12
1.054570697e-12
1.074782635e-12
1.09451662e-12
1.11397879e-12
1.133338012e-12
1.152701219e-12
1.172105208e-12
1.191521472e-12
1.210868978e-12
1.230029212e-12
1.248859964e-12
1.267206922e-12
1.284913605e-12
1.301829678e-12
1.317816449e-12
1.33275027e-12
1.346527048e-12
1.359066959e-12
1.37033154e-12
1.380329286e-12
2.393776713e-11
6.469260552e-11
5.327680166e-09
1.461068533e-08
2.986518606e-08
7.782883875e-12
2.011675109e-11
2.97899418e-11
3.656793075e-11
4.030975409e-11
4.101084791e-11
3.884559385e-11
3.419988052e-11
2.767977714e-11
2.008235433e-11
1.231922816e-11
5.294828392e-12
9.883315182e-13
1.01116573e-12
1.033071664e-12
1.05411962e-12
1.074462028e-12
1.094298384e-12
1.113833391e-12
1.133239041e-12
1.152628137e-12
1.172044098e-12
1.19146424e-12
1.210811786e-12
1.229970867e-12
1.248800701e-12
1.267147643e-12
1.28485542e-12
1.301773569e-12
1.317763159e-12
1.33270038e-12
1.346481136e-12
1.359026229e-12
1.37029728e-12
1.38030242e-12
2.562901098e-11
6.71641116e-11
5.648158069e-09
1.513177977e-08
3.072711747e-08
7.826880692e-12
2.02711626e-11
3.008446943e-11
3.702802358e-11
4.09520031e-11
4.183737017e-11
3.983830327e-11
3.531571574e-11
2.884890456e-11
2.121130659e-11
1.330039999e-11
6.022124984e-12
9.874134785e-13
1.010399132e-12
1.032462368e-12
1.053659864e-12
1.074132387e-12
1.094072191e-12
1.113681891e-12
1.133135976e-12
1.152552681e-12
1.17198185e-12
1.191406622e-12
1.210754589e-12
1.22991267e-12
1.248741621e-12
1.267088526e-12
1.284797353e-12
1.301717539e-12
1.317709916e-12
1.33265053e-12
1.346435293e-12
1.358985574e-12
1.370263095e-12
1.380275722e-12
2.735556821e-11
6.968625041e-11
5.976171702e-09
1.566511526e-08
3.160928223e-08
7.869722288e-12
2.042135632e-11
3.037085116e-11
3.747557939e-11
4.157753037e-11
4.264413556e-11
4.081051263e-11
3.641375459e-11
3.000724152e-11
2.23409453e-11
1.429734668e-11
6.781875884e-12
9.864997894e-13
1.009630811e-12
1.031847319e-12
1.053191997e-12
1.073794081e-12
1.093838208e-12
1.113524304e-12
1.133028745e-12
1.152474753e-12
1.171918376e-12
1.191348557e-12
1.210697353e-12
1.229854604e-12
1.248682714e-12
1.267029569e-12
1.284739406e-12
1.301661587e-12
1.317656722e-12
1.332600721e-12
1.346389516e-12
1.358944993e-12
1.370228989e-12
1.380249198e-12
2.911813645e-11
1.543480021e-10
6.311895176e-09
1.621097225e-08
3.251214452e-08
7.911453737e-12
2.056750988e-11
3.064943748e-11
3.791112321e-11
4.218697841e-11
4.343177456e-11
4.176263369e-11
3.749392768e-11
3.11539711e-11
2.34695162e-11
1.530735885e-11
7.570684723e-12
1.062269883e-12
1.008861941e-12
1.03122723e-12
1.052716578e-12
1.073447482e-12
1.093596616e-12
1.113360658e-12
1.132917286e-12
1.152394259e-12
1.17185359e-12
1.191289982e-12
1.21064004e-12
1.229796651e-12
1.248623974e-12
1.266970767e-12
1.284681576e-12
1.301605712e-12
1.317603577e-12
1.332550954e-12
1.346343804e-12
1.358904486e-12
1.370194965e-12
1.445965425e-12
3.091742197e-11
3.689149137e-10
6.655508244e-09
1.676963792e-08
3.343617905e-08
7.95211817e-12
2.070979178e-11
3.092056018e-11
3.833515377e-11
4.278096312e-11
4.420090599e-11
4.269510166e-11
3.855624581e-11
3.228842944e-11
2.459549232e-11
1.63280019e-11
8.385366394e-12
1.583350637e-12
1.008092905e-12
1.030602739e-12
1.052234136e-12
1.073092961e-12
1.093347605e-12
1.113190998e-12
1.132801552e-12
1.152311116e-12
1.171787412e-12
1.191230838e-12
1.210582615e-12
1.22973879e-12
1.248565391e-12
1.266912117e-12
1.284623864e-12
1.301549915e-12
1.31755048e-12
1.332501229e-12
1.346298154e-12
1.358864051e-12
1.370161028e-12
2.716771613e-12
3.275417207e-11
5.885918563e-10
7.00719552e-09
1.734140624e-08
3.438187127e-08
7.991756784e-12
2.08483618e-11
3.118453343e-11
3.874814563e-11
4.336007343e-11
4.49521347e-11
4.360836788e-11
3.960078595e-11
3.34100841e-11
2.57175455e-11
1.735708771e-11
9.22297292e-12
2.141706419e-12
1.007324266e-12
1.029974441e-12
1.051745202e-12
1.072730887e-12
1.093091374e-12
1.11301538e-12
1.132681505e-12
1.152225246e-12
1.171719761e-12
1.191171064e-12
1.210525038e-12
1.229681003e-12
1.248506957e-12
1.266853616e-12
1.284566268e-12
1.301494195e-12
1.317497434e-12
1.332451546e-12
1.346252565e-12
1.358823688e-12
1.370127181e-12
4.014514747e-12
3.462914121e-11
8.134892972e-10
7.36714465e-09
1.792657796e-08
3.534971756e-08
8.030408945e-12
2.09833714e-11
3.144165418e-11
3.915054699e-11
4.392487525e-11
4.568605035e-11
4.450289412e-11
4.062767935e-11
3.451851545e-11
2.683452278e-11
1.839265254e-11
1.008080999e-11
2.734184056e-12
1.00655654e-12
1.029342906e-12
1.051250266e-12
1.072361627e-12
1.09282813e-12
1.112833872e-12
1.132557119e-12
1.152136579e-12
1.171650564e-12
1.1911106e-12
1.210467271e-12
1.229623267e-12
1.24844866e-12
1.266795259e-12
1.284508784e-12
1.301438553e-12
1.317444437e-12
1.332401907e-12
1.346207037e-12
1.358783397e-12
1.370093428e-12
5.339729582e-12
3.654308875e-11
1.043721072e-09
7.735546644e-09
1.852546052e-08
3.634022553e-08
8.068112208e-12
2.111496421e-11
3.169220352e-11
3.954278318e-11
4.447590989e-11
4.640322594e-11
4.537914778e-11
4.163710168e-11
3.561340112e-11
2.794542656e-11
1.943293765e-11
1.09564179e-11
3.357859802e-12
1.005790195e-12
1.028708677e-12
1.050749809e-12
1.071985541e-12
1.092558087e-12
1.11264655e-12
1.132428379e-12
1.152045052e-12
1.171579748e-12
1.191049388e-12
1.210409276e-12
1.22956556e-12
1.248390491e-12
1.266737041e-12
1.28445141e-12
1.301382991e-12
1.317391491e-12
1.33235231e-12
1.346161566e-12
1.358743176e-12
1.370059772e-12
6.692961261e-12
3.849678021e-11
1.279404326e-09
8.112596219e-09
1.91383682e-08
3.735391415e-08
8.104902413e-12
2.12432765e-11
3.193644788e-11
3.992525868e-11
4.501369409e-11
4.710421685e-11
4.623759788e-11
4.26292647e-11
3.669450255e-11
2.904939706e-11
2.047637072e-11
1.184755373e-11
4.010018422e-12
1.005025645e-12
1.028072169e-12
1.050244286e-12
1.07160298e-12
1.092281462e-12
1.112453501e-12
1.132295278e-12
1.151950611e-12
1.171507246e-12
1.19098737e-12
1.210351012e-12
1.229507861e-12
1.248332437e-12
1.266678955e-12
1.284394144e-12
1.301327507e-12
1.317338596e-12
1.332302757e-12
1.346116152e-12
1.358703025e-12