/*--------------------------------*- C++ -*----------------------------------*\
| =========                 |                                                 |
| \\      /  F ield         | OpenFOAM: The Open Source CFD Toolbox           |
|  \\    /   O peration     | Version:  v2006                                 |
|   \\  /    A nd           | Website:  www.openfoam.com                      |
|    \\/     M anipulation  |                                                 |
\*---------------------------------------------------------------------------*/
FoamFile
{
    version     2.0;
    format      ascii;
    class       volScalarField;
    location    "0.09";
    object      CH4;
}
// * * * * * * * * * * * * * * * * * * * * * * * * * * * * * * * * * * * * * //

dimensions      [0 0 0 0 0 0 0];


internalField   nonuniform List<scalar> 
168000
(
9.130280614e-08
9.769826284e-08
1.033694048e-07
1.094468564e-07
1.154264479e-07
1.208707406e-07
1.264512527e-07
1.320360024e-07
1.362814165e-07
1.399423627e-07
1.433088078e-07
1.453660987e-07
1.46428505e-07
1.470737378e-07
1.462722265e-07
1.447192368e-07
1.425937697e-07
1.392972718e-07
1.355839575e-07
1.31232911e-07
1.264457434e-07
1.215438242e-07
1.222221817e-07
1.241530148e-07
1.260822715e-07
1.279481279e-07
1.298114398e-07
1.315402429e-07
1.332428609e-07
1.348244831e-07
1.362905306e-07
1.37675862e-07
1.389067806e-07
1.39997152e-07
1.409773535e-07
1.418381879e-07
1.429896526e-07
1.659845411e-07
3.836111588e-07
1.073730455e-06
8.890445004e-08
9.592587284e-08
1.004324259e-07
1.048535744e-07
1.096884627e-07
1.148776309e-07
1.20514188e-07
1.263156989e-07
1.31522166e-07
1.3615882e-07
1.401956068e-07
1.431044956e-07
1.449247878e-07
1.458870987e-07
1.455861746e-07
1.443223978e-07
1.42253729e-07
1.392032446e-07
1.354771148e-07
1.312153028e-07
1.264466162e-07
1.215520817e-07
1.222144725e-07
1.241478618e-07
1.26073785e-07
1.279449049e-07
1.298006083e-07
1.315374248e-07
1.332355361e-07
1.348184712e-07
1.362873059e-07
1.376696942e-07
1.389019427e-07
1.399943316e-07
1.409746113e-07
1.418351148e-07
1.438667478e-07
1.672342749e-07
4.057325931e-07
1.110453962e-06
8.695198264e-08
9.436032406e-08
9.844621492e-08
1.01779094e-07
1.055171025e-07
1.100196422e-07
1.153240339e-07
1.211303771e-07
1.268617889e-07
1.322131616e-07
1.369280704e-07
1.40605116e-07
1.431318209e-07
1.445603583e-07
1.447298448e-07
1.437883438e-07
1.418802281e-07
1.390150233e-07
1.35363305e-07
1.311657396e-07
1.264406915e-07
1.215538486e-07
1.222071705e-07
1.241422852e-07
1.2606591e-07
1.279408187e-07
1.297907948e-07
1.315338535e-07
1.332285382e-07
1.348125525e-07
1.362837814e-07
1.37663736e-07
1.388971497e-07
1.399914271e-07
1.409718524e-07
1.418321028e-07
1.44755475e-07
1.685116223e-07
4.283996685e-07
1.147993259e-06
8.55612145e-08
9.312867927e-08
9.711909542e-08
9.978299768e-08
1.025859952e-07
1.062479668e-07
1.109663958e-07
1.165309718e-07
1.22452105e-07
1.282702173e-07
1.335680292e-07
1.379258459e-07
1.411165933e-07
1.430749279e-07
1.437175884e-07
1.431288448e-07
1.414452833e-07
1.387633341e-07
1.352243092e-07
1.310926741e-07
1.26424457e-07
1.215500009e-07
1.2220015e-07
1.241364234e-07
1.260584707e-07
1.279360945e-07
1.297817657e-07
1.315297008e-07
1.332217951e-07
1.348067157e-07
1.36280005e-07
1.376579547e-07
1.388924018e-07
1.399884477e-07
1.409690777e-07
1.41829148e-07
1.456572431e-07
1.698166687e-07
4.516203438e-07
1.186376706e-06
8.453878311e-08
9.220654129e-08
9.625418576e-08
9.854276527e-08
1.006103068e-07
1.034329706e-07
1.074312841e-07
1.125497442e-07
1.183945377e-07
1.244496169e-07
1.301897946e-07
1.351273317e-07
1.38930958e-07
1.414366377e-07
1.425611556e-07
1.423514878e-07
1.409359482e-07
1.384521941e-07
1.350510478e-07
1.309969191e-07
1.263920951e-07
1.21540507e-07
1.221933276e-07
1.241303722e-07
1.260513411e-07
1.279309008e-07
1.297733416e-07
1.315250999e-07
1.332152509e-07
1.348009502e-07
1.36276017e-07
1.376523231e-07
1.388876984e-07
1.399854018e-07
1.409662882e-07
1.418262469e-07
1.465732719e-07
1.711495979e-07
4.754036397e-07
1.225631632e-06
8.375253149e-08
9.152981717e-08
9.57171084e-08
9.783092071e-08
9.935574993e-08
1.014194313e-07
1.046525931e-07
1.091864009e-07
1.147496452e-07
1.208373525e-07
1.268642361e-07
1.322684796e-07
1.366207179e-07
1.396630106e-07
1.41272958e-07
1.41462506e-07
1.403468126e-07
1.38082088e-07
1.348386235e-07
1.308768423e-07
1.263432883e-07
1.215230144e-07
1.221866475e-07
1.241241982e-07
1.260444313e-07
1.279253632e-07
1.297653854e-07
1.315201539e-07
1.332088627e-07
1.347952461e-07
1.362718515e-07
1.376468187e-07
1.388830381e-07
1.39982297e-07
1.40963485e-07
1.418233965e-07
1.475046298e-07
1.725106752e-07
4.997595001e-07
1.265784591e-06
8.312870508e-08
9.10371301e-08
9.541180802e-08
9.748580151e-08
9.863811203e-08
1.000563336e-07
1.025424751e-07
1.064147668e-07
1.115453939e-07
1.174920881e-07
1.23651959e-07
1.294034245e-07
1.342282728e-07
1.377771686e-07
1.3986695e-07
1.404685566e-07
1.396765507e-07
1.376522794e-07
1.345842047e-07
1.307312062e-07
1.262767528e-07
1.214968013e-07
1.221800731e-07
1.241179471e-07
1.260376776e-07
1.279195753e-07
1.297577917e-07
1.315149425e-07
1.332025976e-07
1.347895945e-07
1.362675372e-07
1.376414228e-07
1.388784193e-07
1.3997914e-07
1.409606693e-07
1.41820594e-07
1.484522655e-07
1.73900233e-07
5.246986834e-07
1.306861589e-06
8.262291639e-08
9.068144213e-08
9.527241507e-08
9.740159762e-08
9.831250627e-08
9.920983936e-08
1.010048066e-07
1.041868615e-07
1.087844536e-07
1.144499107e-07
1.206009486e-07
1.265797204e-07
1.3179307e-07
1.358042975e-07
1.383586069e-07
1.393773653e-07
1.389263386e-07
1.37162142e-07
1.342859895e-07
1.305577932e-07
1.26191326e-07
1.214605666e-07
1.221735797e-07
1.241116506e-07
1.260310355e-07
1.279136068e-07
1.2975048e-07
1.315095274e-07
1.331964301e-07
1.347839874e-07
1.362630983e-07
1.376361197e-07
1.388738398e-07
1.39975937e-07
1.409578424e-07
1.41817837e-07
1.494170323e-07
1.753186605e-07
5.502326708e-07
1.348888264e-06
8.220575435e-08
9.042784108e-08
9.525166558e-08
9.749966215e-08
9.828158811e-08
9.87696861e-08
9.994742375e-08
1.024480784e-07
1.06452988e-07
1.117288176e-07
1.177464723e-07
1.238373529e-07
1.293508338e-07
1.337701169e-07
1.367644914e-07
1.381978131e-07
1.380990834e-07
1.366116854e-07
1.339428718e-07
1.303548379e-07
1.260859431e-07
1.214130945e-07
1.221671538e-07
1.241053306e-07
1.260244737e-07
1.279075095e-07
1.297433888e-07
1.315039566e-07
1.331903403e-07
1.34778418e-07
1.362585551e-07
1.376308964e-07
1.388692977e-07
1.399726933e-07
1.409550056e-07
1.418151233e-07
1.503997083e-07
1.767663941e-07
5.763735917e-07
1.391890043e-06
8.18566397e-08
9.025072007e-08
9.531581589e-08
9.772528487e-08
9.846101057e-08
9.863690277e-08
9.928615741e-08
1.011392429e-07
1.045236242e-07
1.093324797e-07
1.151121184e-07
1.212085016e-07
1.26933133e-07
1.316996019e-07
1.351017383e-07
1.369397633e-07
1.371989937e-07
1.360017198e-07
1.335543019e-07
1.301208539e-07
1.259591438e-07
1.213531995e-07
1.221607878e-07
1.240990027e-07
1.260179711e-07
1.279013218e-07
1.297364706e-07
1.314982672e-07
1.331843132e-07
1.3477288e-07
1.362539248e-07
1.376257421e-07
1.388647905e-07
1.399694138e-07
1.4095216e-07
1.418124511e-07
1.514010129e-07
1.782439116e-07
6.031341643e-07
1.435892271e-06
8.156071975e-08
9.013128715e-08
9.544069577e-08
9.804015078e-08
9.879470836e-08
9.875187144e-08
9.895043925e-08
1.002028138e-07
1.029642346e-07
1.072542573e-07
1.127114724e-07
1.187178427e-07
1.2456713e-07
1.296161607e-07
1.333874817e-07
1.3561379e-07
1.362312914e-07
1.353338622e-07
1.33120241e-07
1.298547566e-07
1.258105091e-07
1.212797898e-07
1.221544717e-07
1.240926774e-07
1.260115129e-07
1.278950722e-07
1.297296892e-07
1.314924879e-07
1.331783368e-07
1.347673685e-07
1.362492218e-07
1.376206475e-07
1.388603162e-07
1.39966103e-07
1.40949307e-07
1.418098186e-07
1.524216196e-07
1.797517273e-07
6.305276494e-07
1.480920316e-06
8.130703783e-08
9.005564626e-08
9.560876215e-08
9.841655068e-08
9.923874431e-08
9.904934812e-08
9.887080348e-08
9.958441789e-08
1.017391016e-07
1.054814936e-07
1.105499819e-07
1.163831799e-07
1.222754993e-07
1.27541308e-07
1.316381467e-07
1.342309261e-07
1.352019839e-07
1.346104718e-07
1.326411313e-07
1.29555787e-07
1.256389685e-07
1.211919252e-07
1.221482038e-07
1.240863618e-07
1.260050896e-07
1.278887818e-07
1.297230168e-07
1.314866414e-07
1.331724019e-07
1.34761879e-07
1.362444583e-07
1.37615605e-07
1.388558725e-07
1.399627647e-07
1.409464478e-07
1.418072245e-07
1.534621676e-07
1.812903902e-07
6.585678158e-07
1.526999667e-06
8.10873601e-08
9.001343176e-08
9.580719796e-08
9.88345148e-08
9.976115139e-08
9.94867881e-08
9.900787832e-08
9.923727271e-08
1.008118766e-07
1.0399378e-07
1.086262953e-07
1.142162254e-07
1.20076501e-07
1.254939651e-07
1.298695436e-07
1.328023517e-07
1.341176568e-07
1.338345548e-07
1.321178715e-07
1.292235339e-07
1.254438152e-07
1.210887788e-07
1.221419822e-07
1.240800604e-07
1.259986947e-07
1.278824665e-07
1.297164321e-07
1.314807448e-07
1.331665012e-07
1.34756408e-07
1.362396444e-07
1.376106082e-07
1.388514574e-07
1.399594026e-07
1.409435837e-07
1.418046674e-07
1.545232711e-07
1.828604857e-07
6.872689184e-07
1.574156013e-06
8.089539711e-08
8.999684439e-08
9.602657037e-08
9.927951169e-08
1.003379555e-07
1.000287375e-07
9.931142766e-08
9.911162338e-08
1.001470672e-07
1.027707841e-07
1.069343886e-07
1.122235664e-07
1.179842728e-07
1.234905088e-07
1.280963913e-07
1.313391518e-07
1.329852813e-07
1.330096571e-07
1.315517861e-07
1.288579207e-07
1.252244943e-07
1.209695135e-07
1.221358063e-07
1.240737834e-07
1.259923249e-07
1.278761378e-07
1.297099187e-07
1.314748119e-07
1.331606292e-07
1.347509524e-07
1.36234789e-07
1.376056515e-07
1.38847069e-07
1.399560197e-07
1.409407158e-07
1.418021463e-07
1.556055272e-07
1.844626434e-07
7.166456889e-07
1.622415307e-06
8.072627296e-08
8.999996095e-08
9.625990365e-08
9.974093297e-08
1.009512964e-07
1.006481509e-07
9.974844495e-08
9.918104689e-08
9.971331177e-08
1.017902509e-07
1.054655634e-07
1.104076059e-07
1.1600922e-07
1.21544785e-07
1.263320792e-07
1.298521267e-07
1.318120311e-07
1.321397554e-07
1.309445867e-07
1.28459188e-07
1.249806278e-07
1.208335065e-07
1.221296754e-07
1.240675269e-07
1.259859776e-07
1.278698045e-07
1.297034639e-07
1.314688531e-07
1.331547814e-07
1.347455098e-07
1.362298991e-07
1.376007303e-07
1.388427052e-07
1.39952619e-07
1.409378454e-07
1.417996602e-07
1.567095215e-07
1.860975565e-07
7.467133413e-07
1.671803834e-06
8.057615754e-08
9.001824677e-08
9.650201725e-08
1.002110102e-07
1.015878009e-07
1.013238373e-07
1.002900126e-07
9.940706522e-08
9.94803973e-08
1.010292922e-07
1.042067504e-07
1.087671472e-07
1.141584339e-07
1.196682025e-07
1.245887004e-07
1.28351434e-07
1.306051449e-07
1.312291529e-07
1.302983281e-07
1.28027873e-07
1.247120239e-07
1.206803392e-07
1.221235891e-07
1.240612956e-07
1.259796518e-07
1.278634731e-07
1.296970583e-07
1.314628767e-07
1.331489543e-07
1.34740078e-07
1.36224981e-07
1.375958407e-07
1.388383645e-07
1.39949203e-07
1.409349735e-07
1.417972084e-07
1.578358285e-07
1.883850646e-07
7.774876037e-07
1.722348266e-06
8.044200647e-08
9.004820484e-08
9.674905413e-08
1.006840528e-07
1.022374557e-07
1.02039315e-07
1.009128507e-07
9.976186591e-08
9.941347847e-08
1.004653705e-07
1.031452286e-07
1.07298494e-07
1.124361806e-07
1.178698806e-07
1.22876993e-07
1.268464597e-07
1.293718016e-07
1.302823817e-07
1.29615359e-07
1.275647838e-07
1.244186608e-07
1.205095314e-07
1.221175472e-07
1.240550915e-07
1.25973347e-07
1.278571484e-07
1.296906942e-07
1.314568892e-07
1.331431452e-07
1.347346553e-07
1.362200399e-07
1.375909794e-07
1.388340451e-07
1.399457739e-07
1.409321013e-07
1.417947902e-07
1.589849971e-07
2.078692173e-07
8.089847726e-07
1.774075707e-06
8.032137346e-08
9.008711821e-08
9.699814301e-08
1.011559034e-07
1.028927764e-07
1.027818222e-07
1.015984545e-07
1.002241064e-07
9.950198358e-08
1.000792992e-07
1.022671834e-07
1.059959397e-07
1.108443524e-07
1.161568148e-07
1.212060733e-07
1.253460341e-07
1.281190006e-07
1.29304111e-07
1.288982711e-07
1.270709728e-07
1.241006906e-07
1.203207851e-07
1.221115491e-07
1.240489159e-07
1.259670633e-07
1.278508341e-07
1.296843661e-07
1.314508956e-07
1.331373522e-07
1.347292403e-07
1.362150801e-07
1.375861434e-07
1.388297457e-07
1.399423338e-07
1.409292298e-07
1.417924049e-07
1.601575951e-07
2.278158153e-07
8.412216613e-07
1.827013697e-06
8.021227389e-08
9.013286538e-08
9.724714718e-08
1.016235381e-07
1.035481717e-07
1.035414122e-07
1.023316051e-07
1.007735854e-07
9.971700499e-08
9.985127138e-08
1.015583959e-07
1.04853238e-07
1.09382932e-07
1.145341041e-07
1.195836544e-07
1.238581933e-07
1.268534729e-07
1.282990647e-07
1.281498481e-07
1.265477085e-07
1.237584334e-07
1.201632206e-07
1.221055942e-07
1.240427697e-07
1.259607999e-07
1.278445328e-07
1.296780695e-07
1.314448997e-07
1.331315733e-07
1.347238319e-07
1.362101052e-07
1.375813303e-07
1.388254648e-07
1.399388846e-07
1.409263599e-07
1.41790052e-07
1.613541839e-07
2.48234874e-07
8.742153857e-07
1.881190189e-06
8.011308328e-08
9.018378077e-08
9.749448248e-08
1.020847775e-07
1.041994797e-07
1.043103443e-07
1.030999621e-07
1.013936019e-07
1.000396875e-07
9.975849235e-08
1.010043549e-07
1.038610749e-07
1.080501172e-07
1.130051604e-07
1.180161272e-07
1.223901292e-07
1.255816173e-07
1.272719458e-07
1.273730147e-07
1.259964464e-07
1.233923658e-07
1.201575954e-07
1.220996815e-07
1.240366542e-07
1.259545614e-07
1.278382467e-07
1.296718011e-07
1.314389048e-07
1.331258073e-07
1.347184293e-07
1.362051185e-07
1.37576538e-07
1.388212012e-07
1.39935428e-07
1.409234926e-07
1.41787731e-07
1.625753198e-07
2.691367325e-07
9.079833787e-07
1.936633427e-06
8.002246091e-08
9.023855069e-08
9.773898245e-08
1.025380737e-07
1.048436258e-07
1.05082615e-07
1.038935807e-07
1.020704061e-07
1.004548662e-07
9.979316571e-08
1.005925094e-07
1.030115813e-07
1.068430013e-07
1.115719646e-07
1.165086527e-07
1.209481721e-07
1.243094687e-07
1.262273673e-07
1.265707893e-07
1.254188001e-07
1.230031065e-07
1.201520104e-07
1.220938099e-07
1.240305697e-07
1.259483442e-07
1.278319776e-07
1.296655583e-07
1.314329132e-07
1.331200531e-07
1.34713032e-07
1.362001224e-07
1.375717647e-07
1.388169537e-07
1.399319654e-07
1.40920629e-07
1.417854417e-07
1.638215564e-07
2.905320481e-07
9.425434361e-07
1.993371671e-06
7.993929174e-08
9.029613504e-08
9.797979766e-08
1.029823538e-07
1.054783643e-07
1.058535802e-07
1.047044176e-07
1.027923529e-07
1.009480024e-07
9.993580747e-08
1.003097294e-07
1.022958456e-07
1.057576762e-07
1.102352788e-07
1.150652782e-07
1.195379083e-07
1.230425468e-07
1.251697994e-07
1.257462408e-07
1.24816513e-07
1.225914089e-07
1.201464602e-07
1.220879775e-07
1.240245164e-07
1.259421503e-07
1.278257264e-07
1.296593392e-07
1.314269268e-07
1.331143097e-07
1.347076394e-07
1.361951192e-07
1.375670088e-07
1.388127214e-07
1.399284983e-07
1.409177698e-07
1.42477918e-07
1.650934458e-07
3.124317799e-07
9.779136739e-07
2.051434385e-06
7.98626419e-08
9.035570783e-08
9.821631959e-08
1.034169037e-07
1.06102082e-07
1.066196632e-07
1.055259761e-07
1.035496699e-07
1.015066251e-07
1.00173188e-07
1.00144044e-07
1.017048244e-07
1.047897368e-07
1.089948625e-07
1.136890494e-07
1.181642293e-07
1.217857816e-07
1.241035556e-07
1.24902452e-07
1.241914312e-07
1.221581453e-07
1.201409388e-07
1.220821822e-07
1.240184944e-07
1.259359802e-07
1.278194943e-07
1.296531422e-07
1.314209471e-07
1.331085765e-07
1.347022512e-07
1.361901107e-07
1.375622688e-07
1.388085032e-07
1.399250278e-07
1.409149159e-07
1.433595526e-07
1.663915423e-07
3.348471854e-07
1.014112576e-06
2.110851856e-06
7.979172418e-08
9.041661201e-08
9.844812519e-08
1.038412754e-07
1.067136532e-07
1.073781296e-07
1.063530232e-07
1.043341908e-07
1.021199908e-07
1.004929637e-07
1.000790504e-07
1.012293163e-07
1.039339964e-07
1.078496045e-07
1.123820979e-07
1.168312143e-07
1.205437101e-07
1.23032734e-07
1.240424836e-07
1.235454775e-07
1.217042921e-07
1.201354393e-07
1.220764217e-07
1.240125034e-07
1.259298344e-07
1.278132819e-07
1.296469663e-07
1.314149753e-07
1.331028529e-07
1.346968672e-07
1.361850986e-07
1.375575437e-07
1.388042984e-07
1.399215551e-07
1.409120683e-07
1.442598897e-07
1.67716403e-07
3.577898146e-07
1.051159021e-06
2.171654989e-06
7.972587105e-08
9.047832458e-08
9.867493444e-08
1.042552231e-07
1.073123233e-07
1.081269102e-07
1.071813578e-07
1.051391205e-07
1.027790181e-07
1.008856197e-07
1.001135384e-07
1.008616974e-07
1.031849967e-07
1.067977032e-07
1.111457449e-07
1.155421745e-07
1.193204795e-07
1.219612043e-07
1.23169345e-07
1.228806274e-07
1.21230915e-07
1.201299545e-07
1.220706931e-07
1.240065429e-07
1.259237133e-07
1.278070898e-07
1.296408104e-07
1.314090124e-07
1.330971385e-07
1.346914871e-07
1.36180084e-07
1.375528322e-07
1.388001061e-07
1.399180812e-07
1.409092275e-07
1.451793127e-07
1.690685885e-07
3.812715071e-07
1.089072293e-06
2.233875322e-06
7.966451308e-08
9.054042869e-08
9.889657454e-08
1.046586543e-07
1.078976233e-07
1.088644604e-07
1.080076119e-07
1.059587701e-07
1.034757381e-07
1.013413504e-07
1.002329136e-07
1.006467999e-07
1.027978077e-07
1.058368283e-07
1.099806178e-07
1.142997998e-07
1.18119761e-07
1.208925876e-07
1.222859689e-07
1.221988862e-07
1.207391549e-07
1.201244767e-07
1.220649933e-07
1.240006123e-07
1.259176171e-07
1.278009184e-07
1.29634674e-07
1.314030589e-07
1.330914331e-07
1.346861109e-07
1.361750683e-07
1.375481336e-07
1.387959257e-07
1.39914607e-07
1.409063945e-07
1.461182118e-07
1.704486644e-07
4.053043904e-07
1.127872089e-06
2.297545049e-06
7.960716198e-08
9.060259241e-08
9.911295526e-08
1.050515907e-07
1.08469302e-07
1.095896491e-07
1.088290944e-07
1.067883818e-07
1.042032531e-07
1.018516129e-07
1.004285196e-07
1.005334764e-07
1.027079464e-07
1.049642092e-07
1.088867505e-07
1.131062064e-07
1.169447716e-07
1.198302462e-07
1.213951894e-07
1.215022689e-07
1.20230213e-07
1.201189974e-07
1.220593185e-07
1.239947105e-07
1.259115459e-07
1.277947681e-07
1.296285566e-07
1.313971156e-07
1.330857363e-07
1.346807385e-07
1.361700522e-07
1.375434469e-07
1.387917566e-07
1.399111335e-07
1.409035699e-07
1.470769837e-07
1.71857202e-07
4.29900881e-07
1.167578531e-06
2.362697034e-06
7.95533969e-08
9.066455191e-08
9.932405005e-08
1.054341379e-07
1.090272745e-07
1.103016727e-07
1.096436673e-07
1.07623986e-07
1.049556227e-07
1.024088819e-07
1.006921471e-07
1.004202077e-07
1.026171677e-07
1.047139919e-07
1.078636854e-07
1.119629906e-07
1.15798293e-07
1.18777284e-07
1.204997248e-07
1.207927817e-07
1.197053378e-07
1.201135081e-07
1.220536649e-07
1.239888363e-07
1.259054995e-07
1.277886386e-07
1.296224577e-07
1.313911828e-07
1.330800478e-07
1.346753698e-07
1.361650367e-07
1.375387714e-07
1.387875981e-07
1.399076613e-07
1.409007545e-07
1.480560319e-07
1.732947784e-07
4.550736852e-07
1.208212174e-06
2.42936483e-06
7.950285336e-08
9.07260978e-08
9.952987815e-08
1.058064653e-07
1.095715829e-07
1.109999867e-07
1.10449645e-07
1.084622797e-07
1.05727747e-07
1.030065777e-07
1.010167452e-07
1.003071793e-07
1.025256559e-07
1.04643912e-07
1.06910616e-07
1.108712824e-07
1.146826865e-07
1.177365582e-07
1.196021606e-07
1.200724052e-07
1.191658118e-07
1.201079998e-07
1.220480282e-07
1.239829881e-07
1.258994778e-07
1.277825298e-07
1.29616377e-07
1.31385261e-07
1.330743677e-07
1.346700051e-07
1.361600222e-07
1.375341066e-07
1.387834498e-07
1.399041912e-07
1.40897949e-07
1.490557669e-07
1.747619781e-07
4.808358008e-07
1.249794011e-06
2.497582699e-06
7.945521425e-08
9.078706486e-08
9.973049492e-08
1.06168787e-07
1.101023645e-07
1.116842512e-07
1.112457123e-07
1.093005204e-07
1.065152435e-07
1.03638886e-07
1.013958025e-07
1.003606843e-07
1.024335805e-07
1.045726449e-07
1.066217727e-07
1.098317864e-07
1.13599949e-07
1.167106561e-07
1.187049291e-07
1.193430806e-07
1.186129394e-07
1.201024632e-07
1.220424036e-07
1.239771644e-07
1.258934807e-07
1.277764445e-07
1.296103144e-07
1.313793504e-07
1.330686957e-07
1.346646442e-07
1.361550096e-07
1.375294518e-07
1.387793112e-07
1.39900724e-07
1.408951541e-07
1.500766062e-07
1.762593924e-07
5.072005204e-07
1.29234549e-06
2.567385624e-06
7.941020263e-08
9.084732383e-08
9.992598297e-08
1.065213482e-07
1.106198277e-07
1.123542879e-07
1.120308566e-07
1.101364347e-07
1.073143395e-07
1.043006338e-07
1.018231779e-07
1.00479677e-07
1.023410946e-07
1.045003293e-07
1.065683357e-07
1.088448698e-07
1.125518173e-07
1.157017901e-07
1.178103255e-07
1.186066996e-07
1.181620003e-07
1.200968889e-07
1.220367865e-07
1.239713631e-07
1.258875074e-07
1.277703794e-07
1.296042695e-07
1.313734512e-07
1.330630317e-07
1.346592873e-07
1.361499991e-07
1.375248065e-07
1.387751821e-07
1.398972602e-07
1.408923705e-07
1.511189747e-07
1.777876209e-07
5.341814333e-07
1.335888515e-06
2.638809335e-06
7.936757562e-08
9.090677461e-08
1.001164447e-07
1.06864415e-07
1.11124233e-07
1.130100457e-07
1.128043128e-07
1.109681442e-07
1.081217899e-07
1.049872415e-07
1.022933356e-07
1.006572671e-07
1.022483402e-07
1.044270973e-07
1.065136468e-07
1.085238215e-07
1.115396957e-07
1.147119265e-07
1.16920494e-07
1.178650931e-07
1.181558712e-07
1.20091267e-07
1.220311715e-07
1.23965582e-07
1.258815574e-07
1.277643355e-07
1.295982423e-07
1.313675637e-07
1.330573757e-07
1.346539344e-07
1.361449912e-07
1.375201703e-07
1.387710619e-07
1.398938004e-07
1.408895988e-07
1.521833048e-07
1.793472716e-07
5.617924308e-07
1.380445464e-06
2.711890319e-06
7.932711945e-08
9.096534075e-08
1.003019964e-07
1.071982672e-07
1.116158786e-07
1.136515728e-07
1.135655182e-07
1.117941038e-07
1.08934809e-07
1.056946688e-07
1.028012847e-07
1.008881168e-07
1.021554473e-07
1.043530721e-07
1.064578045e-07
1.084839777e-07
1.10564642e-07
1.13742867e-07
1.160374277e-07
1.171200162e-07
1.181495788e-07
1.200855879e-07
1.220255534e-07
1.239598187e-07
1.258756299e-07
1.277583125e-07
1.295922325e-07
1.313616879e-07
1.330517277e-07
1.346485857e-07
1.361399863e-07
1.375155426e-07
1.387669504e-07
1.398903452e-07
1.408868398e-07
1.532700368e-07
1.809389615e-07
5.900477096e-07
1.426039189e-06
2.786665845e-06
7.928864523e-08
9.102296504e-08
1.004827645e-07
1.075231918e-07
1.120950888e-07
1.14278995e-07
1.143140766e-07
1.126130501e-07
1.097510112e-07
1.064193637e-07
1.033425495e-07
1.01167174e-07
1.020624841e-07
1.042783639e-07
1.064009033e-07
1.084429608e-07
1.104242188e-07
1.127962074e-07
1.151629706e-07
1.163731501e-07
1.181431094e-07
1.20079842e-07
1.220199264e-07
1.239540706e-07
1.258697239e-07
1.277523102e-07
1.2958624e-07
1.313558239e-07
1.330460875e-07
1.346432411e-07
1.361349846e-07
1.375109233e-07
1.387628473e-07
1.398868952e-07
1.408840942e-07
1.543796198e-07
1.825633184e-07
6.189617779e-07
1.472693038e-06
2.863173978e-06
7.925198555e-08
9.107960594e-08
1.006588812e-07
1.078394788e-07
1.125622052e-07
1.148924981e-07
1.150497269e-07
1.134239581e-07
1.105683581e-07
1.071582132e-07
1.039132058e-07
1.014907452e-07
1.019696185e-07
1.042030842e-07
1.063430332e-07
1.084008332e-07
1.103950968e-07
1.123476265e-07
1.142988168e-07
1.162055775e-07
1.181364493e-07
1.200740197e-07
1.220142849e-07
1.23948335e-07
1.258638383e-07
1.277463283e-07
1.295802646e-07
1.313499719e-07
1.330404553e-07
1.346379009e-07
1.361299864e-07
1.375063119e-07
1.387587525e-07
1.398834509e-07
1.408813625e-07
1.555125121e-07
1.842209825e-07
6.485494634e-07
1.520430853e-06
2.941453603e-06
7.921699151e-08
9.113523462e-08
1.008304828e-07
1.081474176e-07
1.130175807e-07
1.154923133e-07
1.15772319e-07
1.142260024e-07
1.113851068e-07
1.079084661e-07
1.045096257e-07
1.018544829e-07
1.018769134e-07
1.041273332e-07
1.06284284e-07
1.083576573e-07
1.103649643e-07
1.123274467e-07
1.142657829e-07
1.16196476e-07
1.18129586e-07
1.200681114e-07
1.22008623e-07
1.239426088e-07
1.25857972e-07
1.277403663e-07
1.29574306e-07
1.313441318e-07
1.33034831e-07
1.34632565e-07
1.361249918e-07
1.375017081e-07
1.387546656e-07
1.398800126e-07
1.408786456e-07
1.566691824e-07
1.859126107e-07
6.788259249e-07
1.569276995e-06
3.02154444e-06
7.918353028e-08
9.118983268e-08
1.009977069e-07
1.084472928e-07
1.134615743e-07
1.160787056e-07
1.164817923e-07
1.150185263e-07
1.121997687e-07
1.086676912e-07
1.051285171e-07
1.022544989e-07
1.017844505e-07
1.040512043e-07
1.062247386e-07
1.083134947e-07
1.103338564e-07
1.123064427e-07
1.142518585e-07
1.161869838e-07
1.181225074e-07
1.200621076e-07
1.220029347e-07
1.239368889e-07
1.258521236e-07
1.277344236e-07
1.295683642e-07
1.313383037e-07
1.330292146e-07
1.346272336e-07
1.361200009e-07
1.374971117e-07
1.387505866e-07
1.39876581e-07
1.40875944e-07
1.578501111e-07
1.876388845e-07
7.098066704e-07
1.61925635e-06
3.103487069e-06
7.915148307e-08
9.124339033e-08
1.011606919e-07
1.087393868e-07
1.138945409e-07
1.166519662e-07
1.171781591e-07
1.158010144e-07
1.130110755e-07
1.09433745e-07
1.057669135e-07
1.026872693e-07
1.016923035e-07
1.039747847e-07
1.061644763e-07
1.082684055e-07
1.103018089e-07
1.12284628e-07
1.142373246e-07
1.161770908e-07
1.181152022e-07
1.200559991e-07
1.219972139e-07
1.23931172e-07
1.258462915e-07
1.277284998e-07
1.295624388e-07
1.313324875e-07
1.330236061e-07
1.346219068e-07
1.36115014e-07
1.374925224e-07
1.387465153e-07
1.398731564e-07
1.408732585e-07
1.590557911e-07
1.894005257e-07
7.415075826e-07
1.670394353e-06
3.187322954e-06
7.912074329e-08
9.129590468e-08
1.013195753e-07
1.090239759e-07
1.143168335e-07
1.172124032e-07
1.178614906e-07
1.165730715e-07
1.138179507e-07
1.102047414e-07
1.064221482e-07
1.031495694e-07
1.016005373e-07
1.038981564e-07
1.061035719e-07
1.082224488e-07
1.102688584e-07
1.12262018e-07
1.142221808e-07
1.161667886e-07
1.181076598e-07
1.200497769e-07
1.219914545e-07
1.239254547e-07
1.258404742e-07
1.277225942e-07
1.295565295e-07
1.313266833e-07
1.330180053e-07
1.346165847e-07
1.361100311e-07
1.374879399e-07
1.387424514e-07
1.398697393e-07
1.408705898e-07
1.602867254e-07
1.911983266e-07
7.739449611e-07
1.722717006e-06
3.273094462e-06
7.909121509e-08
9.134737845e-08
1.014744925e-07
1.093013279e-07
1.147288012e-07
1.177603362e-07
1.185319047e-07
1.173344034e-07
1.146194844e-07
1.10979025e-07
1.070918306e-07
1.036384606e-07
1.01509206e-07
1.03821356e-07
1.060420922e-07
1.081756814e-07
1.102350418e-07
1.122386294e-07
1.142064286e-07
1.161560698e-07
1.180998701e-07
1.20043432e-07
1.219856503e-07
1.239197334e-07
1.2583467e-07
1.277167059e-07
1.295506362e-07
1.313208909e-07
1.330124124e-07
1.346112675e-07
1.361050523e-07
1.374833641e-07
1.38738395e-07
1.398663301e-07
1.408679385e-07
1.615434129e-07
2.005827742e-07
8.071355873e-07
1.776250914e-06
3.360844886e-06
7.906281201e-08
9.139781879e-08
1.016255764e-07
1.095717026e-07
1.151307866e-07
1.18296092e-07
1.191895575e-07
1.180848015e-07
1.154149119e-07
1.117551446e-07
1.077738242e-07
1.041513343e-07
1.0147772e-07
1.037445006e-07
1.059801089e-07
1.08128159e-07
1.102003962e-07
1.122144801e-07
1.141900707e-07
1.161449285e-07
1.180918241e-07
1.200369562e-07
1.219797953e-07
1.239140046e-07
1.25828877e-07
1.277108343e-07
1.295447584e-07
1.313151103e-07
1.330068272e-07
1.346059551e-07
1.361000776e-07
1.374787948e-07
1.38734346e-07
1.398629291e-07
1.409123158e-07
1.628263584e-07
2.219474449e-07
8.410967739e-07
1.831023305e-06
3.450618468e-06
7.903545586e-08
9.14472364e-08
1.017729565e-07
1.098353512e-07
1.155231239e-07
1.188200008e-07
1.198346345e-07
1.188241291e-07
1.162035933e-07
1.125318273e-07
1.084662022e-07
1.046857383e-07
1.017915596e-07
1.036676287e-07
1.059176854e-07
1.080799347e-07
1.101649586e-07
1.121895893e-07
1.141731117e-07
1.161333598e-07
1.180835132e-07
1.20030341e-07
1.219738833e-07
1.239082644e-07
1.258230934e-07
1.277049785e-07
1.295388959e-07
1.313093415e-07
1.330012498e-07
1.346006477e-07
1.360951071e-07
1.374742317e-07
1.387303042e-07
1.398595368e-07
1.418184376e-07
1.641360956e-07
2.438154459e-07
8.758462639e-07
1.88706203e-06
3.542460416e-06
7.900907575e-08
9.149564479e-08
1.01916759e-07
1.100925172e-07
1.159061377e-07
1.193323932e-07
1.204673448e-07
1.195523099e-07
1.169849968e-07
1.133079563e-07
1.091672265e-07
1.052393977e-07
1.02134989e-07
1.035907964e-07
1.058548816e-07
1.080310615e-07
1.101287661e-07
1.121639767e-07
1.141555572e-07
1.161213601e-07
1.180749297e-07
1.200235788e-07
1.219679083e-07
1.239025091e-07
1.25817317e-07
1.276991374e-07
1.295330482e-07
1.313035842e-07
1.329956801e-07
1.345953452e-07
1.360901409e-07
1.374696747e-07
1.387262695e-07
1.398561535e-07
1.427438493e-07
1.654731636e-07
2.661974945e-07
9.114020779e-07
1.944395565e-06
3.636416915e-06
7.898360727e-08
9.154305961e-08
1.020571059e-07
1.10343433e-07
1.162801451e-07
1.198335983e-07
1.210879151e-07
1.202693179e-07
1.177586841e-07
1.140825529e-07
1.098753312e-07
1.058102286e-07
1.025056149e-07
1.035140554e-07
1.057917541e-07
1.079815883e-07
1.100918554e-07
1.121376631e-07
1.141374138e-07
1.161089267e-07
1.180660666e-07
1.200166619e-07
1.219618644e-07
1.238967348e-07
1.258115458e-07
1.276933102e-07
1.295272148e-07
1.312978382e-07
1.329901182e-07
1.345900478e-07
1.36085179e-07
1.374651237e-07
1.38722242e-07
1.398527796e-07
1.436889339e-07
1.668381051e-07
2.891046324e-07
9.477825464e-07
2.003052999e-06
3.732535159e-06
7.895899175e-08
9.158949816e-08
1.021941151e-07
1.105883223e-07
1.16645453e-07
1.203239415e-07
1.216965854e-07
1.209751697e-07
1.185242979e-07
1.148547613e-07
1.105891079e-07
1.063963246e-07
1.029012151e-07
1.034374524e-07
1.057283573e-07
1.079315632e-07
1.100542622e-07
1.121106699e-07
1.141186893e-07
1.16096058e-07
1.180569178e-07
1.200095832e-07
1.219557457e-07
1.238909376e-07
1.258057775e-07
1.276874956e-07
1.295213954e-07
1.312921032e-07
1.329845643e-07
1.345847553e-07
1.360802214e-07
1.374605785e-07
1.387182216e-07
1.398494154e-07
1.446540819e-07
1.682314673e-07
3.125482195e-07
9.850063432e-07
2.063064043e-06
3.830863362e-06
7.893517566e-08
9.163497909e-08
1.023279007e-07
1.108274003e-07
1.170023576e-07
1.208037432e-07
1.222936056e-07
1.216699169e-07
1.192815511e-07
1.156238351e-07
1.113072917e-07
1.06995943e-07
1.033197227e-07
1.03361029e-07
1.056647326e-07
1.078810317e-07
1.100160219e-07
1.120830189e-07
1.140993924e-07
1.160827533e-07
1.180474775e-07
1.20002336e-07
1.219495465e-07
1.238851136e-07
1.2580001e-07
1.276816926e-07
1.295155893e-07
1.31286379e-07
1.329790182e-07
1.345794679e-07
1.360752681e-07
1.37456039e-07
1.387142082e-07
1.398460612e-07