/*--------------------------------*- C++ -*----------------------------------*\
| =========                 |                                                 |
| \\      /  F ield         | OpenFOAM: The Open Source CFD Toolbox           |
|  \\    /   O peration     | Version:  v2006                                 |
|   \\  /    A nd           | Website:  www.openfoam.com                      |
|    \\/     M anipulation  |                                                 |
\*---------------------------------------------------------------------------*/
FoamFile
{
    version     2.0;
    format      ascii;
    class       volScalarField;
    location    "0.09";
    object      CO;
}
// * * * * * * * * * * * * * * * * * * * * * * * * * * * * * * * * * * * * * //

dimensions      [0 0 0 0 0 0 0];


internalField   nonuniform List<scalar> 
168000
(
1.039867789e-06
1.129568058e-06
1.210093591e-06
1.297383272e-06
1.383311091e-06
1.461029964e-06
1.540731533e-06
1.62034719e-06
1.679333288e-06
1.72920224e-06
1.774368203e-06
1.79937892e-06
1.809031285e-06
1.81212687e-06
1.793071191e-06
1.762425985e-06
1.722941868e-06
1.665645798e-06
1.601895035e-06
1.528554619e-06
1.44855332e-06
1.366945316e-06
1.369637958e-06
1.391334456e-06
1.41301324e-06
1.433979604e-06
1.454917376e-06
1.474343692e-06
1.493475769e-06
1.511248233e-06
1.527722001e-06
1.543288774e-06
1.557120432e-06
1.56937278e-06
1.580387167e-06
1.590060241e-06
1.604606975e-06
1.947169633e-06
5.900995952e-06
1.865537653e-05
1.014054591e-06
1.110452124e-06
1.170754712e-06
1.231001909e-06
1.298238128e-06
1.37123588e-06
1.451230315e-06
1.533780558e-06
1.607194264e-06
1.671799782e-06
1.727103108e-06
1.765041879e-06
1.786210807e-06
1.794129632e-06
1.782676e-06
1.756425466e-06
1.717814301e-06
1.664236453e-06
1.600311389e-06
1.528305246e-06
1.448597442e-06
1.367090634e-06
1.369551331e-06
1.391276552e-06
1.412917878e-06
1.433943388e-06
1.454795664e-06
1.474312025e-06
1.49339346e-06
1.511180678e-06
1.527685766e-06
1.543219467e-06
1.557066069e-06
1.569341089e-06
1.580356352e-06
1.590025709e-06
1.617770376e-06
1.965912023e-06
6.309113235e-06
1.933373862e-05
9.911885416e-07
1.092848289e-06
1.145414989e-06
1.187769901e-06
1.237217958e-06
1.298944528e-06
1.373293178e-06
1.455512406e-06
1.536663679e-06
1.611995017e-06
1.677530004e-06
1.72711093e-06
1.759004676e-06
1.774007323e-06
1.769698034e-06
1.748344081e-06
1.712176771e-06
1.661403252e-06
1.598618284e-06
1.527575185e-06
1.448536515e-06
1.367139416e-06
1.369469279e-06
1.391213889e-06
1.412829388e-06
1.433897472e-06
1.454685391e-06
1.474271894e-06
1.493314827e-06
1.511114171e-06
1.527646162e-06
1.543152516e-06
1.557012211e-06
1.569308451e-06
1.580325351e-06
1.589991863e-06
1.631108104e-06
1.985068428e-06
6.727319604e-06
2.00272086e-05
9.74890088e-07
1.079012862e-06
1.129493275e-06
1.160783669e-06
1.195130621e-06
1.24332452e-06
1.308176819e-06
1.386293654e-06
1.470046329e-06
1.55229797e-06
1.626592371e-06
1.68646946e-06
1.728433391e-06
1.751479636e-06
1.754355635e-06
1.738360398e-06
1.705606139e-06
1.657610062e-06
1.596541259e-06
1.526491133e-06
1.448318141e-06
1.367104315e-06
1.369390391e-06
1.39114802e-06
1.412745794e-06
1.433844387e-06
1.454583932e-06
1.474225231e-06
1.493239055e-06
1.511048583e-06
1.527603726e-06
1.543087552e-06
1.55695886e-06
1.569274972e-06
1.580294172e-06
1.58995866e-06
1.644641294e-06
2.004640111e-06
7.155762957e-06
2.073631163e-05
9.630771984e-07
1.06893975e-06
1.120027885e-06
1.14504855e-06
1.167542049e-06
1.202329645e-06
1.255683621e-06
1.326589587e-06
1.408875679e-06
1.49452728e-06
1.575421964e-06
1.644042e-06
1.695287183e-06
1.726636961e-06
1.736827863e-06
1.726589758e-06
1.69790687e-06
1.652916966e-06
1.593943703e-06
1.525064668e-06
1.44785491e-06
1.366984446e-06
1.369313729e-06
1.391080025e-06
1.41266568e-06
1.433786026e-06
1.454489272e-06
1.474173532e-06
1.493165519e-06
1.510983797e-06
1.527558914e-06
1.543024271e-06
1.556906008e-06
1.569240746e-06
1.580262827e-06
1.589926061e-06
1.658388236e-06
2.024629817e-06
7.594610811e-06
2.146155387e-05
9.541392238e-07
1.061917269e-06
1.115058151e-06
1.137081576e-06
1.150829812e-06
1.173543048e-06
1.214767461e-06
1.276370647e-06
1.354060957e-06
1.439987177e-06
1.525096614e-06
1.60072574e-06
1.660263993e-06
1.699747082e-06
1.717303932e-06
1.713127108e-06
1.688997482e-06
1.647330888e-06
1.590752005e-06
1.52327064e-06
1.447142299e-06
1.366744036e-06
1.369238666e-06
1.391010648e-06
1.412588035e-06
1.433723801e-06
1.454399869e-06
1.474117954e-06
1.493093736e-06
1.510919701e-06
1.527512107e-06
1.542962419e-06
1.556853641e-06
1.569205857e-06
1.580231328e-06
1.589894031e-06
1.672364959e-06
2.04504151e-06
8.044047748e-06
2.220342739e-05
9.47167387e-07
1.057188081e-06
1.11320776e-06
1.134432807e-06
1.142162418e-06
1.154628969e-06
1.18405897e-06
1.235215668e-06
1.306014633e-06
1.389564403e-06
1.476536674e-06
1.557344462e-06
1.62400961e-06
1.671162617e-06
1.69599652e-06
1.698073916e-06
1.678858311e-06
1.640840482e-06
1.586923637e-06
1.521090046e-06
1.446161083e-06
1.366372002e-06
1.369164789e-06
1.390940405e-06
1.412512145e-06
1.433658763e-06
1.45431454e-06
1.474059394e-06
1.493023336e-06
1.510856195e-06
1.527463628e-06
1.542901785e-06
1.556801739e-06
1.569170383e-06
1.580199689e-06
1.58986254e-06
1.686585689e-06
2.065880166e-06
8.504273401e-06
2.296241416e-05
9.416162263e-07
1.054156104e-06
1.113547214e-06
1.135514968e-06
1.139324804e-06
1.143526557e-06
1.162070305e-06
1.202374642e-06
1.264764506e-06
1.343801279e-06
1.430469495e-06
1.5146211e-06
1.587124492e-06
1.641267302e-06
1.673141386e-06
1.681547914e-06
1.667507581e-06
1.633436212e-06
1.582431553e-06
1.518489163e-06
1.444893795e-06
1.365848572e-06
1.369091824e-06
1.390869652e-06
1.412437508e-06
1.433591696e-06
1.45423238e-06
1.473998546e-06
1.492954032e-06
1.510793189e-06
1.527413749e-06
1.542842195e-06
1.556750281e-06
1.569134391e-06
1.580167923e-06
1.58983156e-06
1.701063223e-06
2.087151604e-06
8.975500775e-06
2.373898952e-05
9.371245765e-07
1.052373778e-06
1.115416055e-06
1.139157514e-06
1.140835717e-06
1.138543587e-06
1.147380508e-06
1.177000178e-06
1.230088206e-06
1.302964584e-06
1.387428259e-06
1.473162838e-06
1.550152071e-06
1.610452746e-06
1.648990744e-06
1.663684377e-06
1.654989736e-06
1.625118268e-06
1.577259176e-06
1.515441183e-06
1.443324407e-06
1.365155298e-06
1.369019617e-06
1.390798635e-06
1.412363775e-06
1.433523181e-06
1.454152696e-06
1.473935947e-06
1.492885602e-06
1.510730606e-06
1.527362698e-06
1.542783502e-06
1.556699241e-06
1.569097941e-06
1.580136046e-06
1.589801067e-06
1.715809233e-06
2.108862359e-06
9.457954874e-06
2.453362496e-05
9.334399007e-07
1.051511887e-06
1.118347451e-06
1.144553382e-06
1.145417307e-06
1.138166673e-06
1.138695713e-06
1.158178553e-06
1.201558654e-06
1.267103236e-06
1.347768073e-06
1.433457651e-06
1.513572221e-06
1.579098997e-06
1.623805414e-06
1.644633481e-06
1.641368947e-06
1.615899036e-06
1.571398326e-06
1.511923565e-06
1.441430882e-06
1.364274219e-06
1.368948083e-06
1.39072753e-06
1.412290705e-06
1.43345365e-06
1.454074957e-06
1.473872016e-06
1.492817876e-06
1.510668377e-06
1.527310667e-06
1.542725584e-06
1.556648595e-06
1.569061091e-06
1.58010407e-06
1.589771039e-06
1.730834505e-06
2.131019583e-06
9.951871597e-06
2.534679055e-05
9.303803207e-07
1.05132936e-06
1.122010616e-06
1.151142615e-06
1.152224782e-06
1.141485644e-06
1.134933155e-06
1.145023765e-06
1.178677928e-06
1.236109681e-06
1.311691707e-06
1.395879032e-06
1.477797483e-06
1.547562062e-06
1.597846104e-06
1.624556168e-06
1.626724744e-06
1.605803164e-06
1.564848538e-06
1.507919881e-06
1.439206917e-06
1.363188803e-06
1.36887711e-06
1.390656453e-06
1.412218136e-06
1.433383424e-06
1.453998756e-06
1.473807076e-06
1.49275072e-06
1.510606444e-06
1.52725782e-06
1.542668336e-06
1.556598318e-06
1.569023887e-06
1.580072012e-06
1.589741459e-06
1.746149142e-06
2.153630976e-06
1.045749689e-05
2.617895692e-05
9.278121522e-07
1.05164886e-06
1.126168136e-06
1.158523804e-06
1.160598893e-06
1.14750784e-06
1.135030244e-06
1.136700505e-06
1.160894901e-06
1.209785418e-06
1.279278156e-06
1.360695723e-06
1.44317189e-06
1.51616896e-06
1.571362659e-06
1.603620299e-06
1.611148559e-06
1.594866576e-06
1.55761663e-06
1.503418651e-06
1.436636348e-06
1.361884819e-06
1.368806679e-06
1.390585486e-06
1.412145958e-06
1.433312741e-06
1.453923779e-06
1.473741378e-06
1.49268403e-06
1.51054476e-06
1.527204293e-06
1.542611675e-06
1.556548385e-06
1.568986376e-06
1.580039883e-06
1.589712309e-06
1.76176273e-06
2.17670476e-06
1.097508612e-05
2.703059699e-05
9.256354084e-07
1.05233911e-06
1.130648744e-06
1.16641056e-06
1.17006263e-06
1.155587794e-06
1.138384323e-06
1.132490887e-06
1.147650162e-06
1.187814586e-06
1.250503124e-06
1.328083692e-06
1.409972151e-06
1.485207112e-06
1.544595468e-06
1.581995923e-06
1.59474058e-06
1.583135015e-06
1.549716329e-06
1.498413681e-06
1.43370851e-06
1.360349762e-06
1.368736768e-06
1.390514678e-06
1.4120741e-06
1.433241776e-06
1.453849788e-06
1.47367512e-06
1.492617726e-06
1.510483283e-06
1.527150201e-06
1.542555526e-06
1.556498773e-06
1.568948596e-06
1.5800077e-06
1.589683575e-06
1.77768448e-06
2.2002497e-06
1.150490365e-05
2.790218741e-05
9.237741398e-07
1.053302298e-06
1.135328211e-06
1.174596763e-06
1.180260199e-06
1.165188998e-06
1.14422939e-06
1.131633671e-06
1.138398552e-06
1.169883204e-06
1.225271471e-06
1.298140931e-06
1.378412147e-06
1.45492512e-06
1.517768235e-06
1.559851591e-06
1.577606823e-06
1.570662415e-06
1.541167814e-06
1.492903846e-06
1.430415031e-06
1.358570973e-06
1.36866737e-06
1.390444144e-06
1.412002523e-06
1.433170662e-06
1.453776597e-06
1.473608452e-06
1.492551743e-06
1.510421979e-06
1.52709564e-06
1.542499828e-06
1.556449461e-06
1.568910583e-06
1.579975474e-06
1.589655246e-06
1.793923343e-06
2.224275224e-06
1.204722268e-05
2.879420988e-05
9.221698288e-07
1.054464997e-06
1.140116213e-06
1.18293384e-06
1.190928204e-06
1.175903467e-06
1.15206271e-06
1.133723496e-06
1.132658711e-06
1.155648657e-06
1.203447671e-06
1.270901821e-06
1.34864891e-06
1.42553299e-06
1.491084375e-06
1.53735147e-06
1.559856359e-06
1.557509236e-06
1.53199713e-06
1.486892838e-06
1.426750218e-06
1.356539037e-06
1.368598478e-06
1.39037384e-06
1.411931199e-06
1.433099495e-06
1.453704067e-06
1.473541494e-06
1.492486032e-06
1.510360821e-06
1.527040694e-06
1.54244453e-06
1.556400426e-06
1.56887237e-06
1.579943219e-06
1.58962731e-06
1.810488105e-06
2.248791718e-06
1.260232534e-05
2.970715229e-05
9.207768148e-07
1.055771754e-06
1.144947015e-06
1.191314595e-06
1.201870801e-06
1.18741254e-06
1.161444604e-06
1.138172915e-06
1.12996765e-06
1.144759294e-06
1.184829985e-06
1.246346079e-06
1.32078903e-06
1.397203587e-06
1.464727514e-06
1.514649922e-06
1.541599216e-06
1.543740889e-06
1.522235519e-06
1.480388843e-06
1.422711198e-06
1.354247632e-06
1.368530087e-06
1.390303821e-06
1.411860117e-06
1.43302835e-06
1.453632087e-06
1.473474339e-06
1.492420553e-06
1.510299785e-06
1.52698543e-06
1.542389586e-06
1.556351649e-06
1.568833984e-06
1.579910948e-06
1.58959976e-06
1.827387375e-06
2.285431627e-06
1.317050328e-05
3.064150975e-05
9.195590615e-07
1.057180474e-06
1.149772844e-06
1.199661905e-06
1.212942539e-06
1.199469253e-06
1.172021748e-06
1.144557464e-06
1.12979292e-06
1.136869382e-06
1.169222312e-06
1.224415518e-06
1.294896128e-06
1.370074903e-06
1.43886061e-06
1.491889546e-06
1.522944489e-06
1.529426247e-06
1.511918678e-06
1.473404153e-06
1.418297667e-06
1.351689507e-06
1.368462195e-06
1.390234106e-06
1.411789271e-06
1.432957281e-06
1.453560575e-06
1.473407058e-06
1.492355278e-06
1.510238851e-06
1.526929907e-06
1.54233496e-06
1.556303113e-06
1.568795452e-06
1.579878674e-06
1.589572586e-06
1.844629387e-06
2.644751726e-06
1.375205864e-05
3.159778547e-05
9.184878261e-07
1.058659035e-06
1.154559195e-06
1.207920666e-06
1.224035755e-06
1.21188316e-06
1.183513834e-06
1.152551661e-06
1.13197136e-06
1.131684543e-06
1.156412195e-06
1.205021509e-06
1.270997741e-06
1.344252601e-06
1.41362193e-06
1.469204443e-06
1.503998519e-06
1.514636254e-06
1.501085985e-06
1.465954763e-06
1.413511962e-06
1.348860165e-06
1.368394795e-06
1.390164711e-06
1.411718662e-06
1.432886327e-06
1.453489467e-06
1.473339708e-06
1.492290182e-06
1.510178003e-06
1.526874174e-06
1.542280619e-06
1.556254801e-06
1.568756796e-06
1.579846406e-06
1.589545783e-06
1.862222659e-06
3.012619792e-06
1.434730325e-05
3.257649082e-05
9.175399715e-07
1.06018287e-06
1.159281335e-06
1.216051934e-06
1.235070944e-06
1.224506488e-06
1.195690781e-06
1.161847855e-06
1.136061845e-06
1.128901428e-06
1.146181321e-06
1.188067366e-06
1.249092409e-06
1.319813484e-06
1.389128366e-06
1.446716612e-06
1.484863548e-06
1.499442665e-06
1.489779721e-06
1.458059942e-06
1.408358954e-06
1.346501703e-06
1.368327881e-06
1.390095648e-06
1.411648281e-06
1.43281552e-06
1.453418713e-06
1.473272334e-06
1.492225246e-06
1.51011723e-06
1.526818273e-06
1.542226535e-06
1.556206697e-06
1.568718039e-06
1.579814158e-06
1.589519344e-06
1.880175606e-06
3.389221406e-06
1.495655464e-05
3.357814484e-05
9.166967121e-07
1.061733148e-06
1.163921797e-06
1.224028677e-06
1.245989769e-06
1.237224826e-06
1.208366431e-06
1.172191986e-06
1.141776457e-06
1.128171803e-06
1.138307217e-06
1.173409886e-06
1.229151578e-06
1.296808703e-06
1.365476684e-06
1.424535192e-06
1.465636744e-06
1.483916916e-06
1.478044307e-06
1.449741794e-06
1.402845891e-06
1.346438494e-06
1.368261441e-06
1.390026928e-06
1.41157818e-06
1.432744885e-06
1.453348276e-06
1.47320497e-06
1.492160454e-06
1.510056522e-06
1.526762237e-06
1.542172685e-06
1.556158788e-06
1.568679197e-06
1.579781939e-06
1.589493264e-06
1.898496574e-06
3.774748156e-06
1.558013618e-05
3.460327211e-05
9.159426719e-07
1.06329542e-06
1.168468531e-06
1.231832697e-06
1.256749915e-06
1.249949986e-06
1.221391134e-06
1.18337514e-06
1.148883709e-06
1.129375444e-06
1.132597401e-06
1.160927986e-06
1.211129961e-06
1.275267652e-06
1.34274493e-06
1.402756201e-06
1.44640973e-06
1.468129056e-06
1.465925573e-06
1.441024817e-06
1.396982172e-06
1.346375737e-06
1.368195463e-06
1.389958557e-06
1.411508318e-06
1.432674439e-06
1.453278127e-06
1.473137643e-06
1.492095794e-06
1.509995873e-06
1.526706097e-06
1.542119048e-06
1.55611106e-06
1.568640289e-06
1.579749761e-06
1.589467539e-06
1.917193861e-06
4.169397518e-06
1.621837806e-05
3.565239747e-05
9.152651726e-07
1.064858605e-06
1.172913533e-06
1.23945236e-06
1.267321208e-06
1.262614234e-06
1.234644181e-06
1.195220603e-06
1.157161914e-06
1.132214978e-06
1.128850837e-06
1.150484876e-06
1.194967116e-06
1.255201216e-06
1.320994208e-06
1.38146433e-06
1.427266284e-06
1.452146956e-06
1.453470113e-06
1.431935474e-06
1.390779234e-06
1.34631337e-06
1.368129924e-06
1.389890537e-06
1.411438718e-06
1.432604196e-06
1.453208243e-06
1.473070375e-06
1.492031257e-06
1.509935277e-06
1.526649877e-06
1.542065606e-06
1.556063502e-06
1.568601329e-06
1.579717632e-06
1.599865187e-06
1.936275748e-06
4.573372564e-06
1.687161639e-05
3.672606815e-05
9.146536885e-07
1.066414226e-06
1.17725182e-06
1.246880922e-06
1.277682696e-06
1.275165862e-06
1.248028372e-06
1.207580275e-06
1.166421054e-06
1.136488283e-06
1.126884284e-06
1.141941894e-06
1.180595114e-06
1.236605051e-06
1.300270392e-06
1.360733689e-06
1.408281219e-06
1.436036098e-06
1.440724721e-06
1.422501782e-06
1.384250314e-06
1.346251326e-06
1.368064803e-06
1.389822869e-06
1.411369385e-06
1.432534166e-06
1.453138609e-06
1.473003182e-06
1.491966833e-06
1.509874731e-06
1.526593597e-06
1.542012344e-06
1.556016103e-06
1.568562332e-06
1.579685564e-06
1.613100656e-06
1.955750547e-06
4.986881907e-06
1.754019415e-05
3.78248467e-05
9.140994261e-07
1.067955835e-06
1.181480689e-06
1.254115212e-06
1.28782047e-06
1.287565774e-06
1.261465687e-06
1.220330583e-06
1.176497561e-06
1.142006928e-06
1.126447518e-06
1.135158125e-06
1.167934218e-06
1.219461615e-06
1.280605457e-06
1.340626029e-06
1.389523359e-06
1.419858681e-06
1.427735856e-06
1.41275292e-06
1.377410225e-06
1.346189529e-06
1.368000073e-06
1.389755549e-06
1.411300326e-06
1.432464359e-06
1.45306921e-06
1.472936078e-06
1.491902518e-06
1.509814231e-06
1.526537276e-06
1.541959247e-06
1.555968854e-06
1.568523309e-06
1.579653565e-06
1.626616618e-06
1.975626606e-06
5.410139586e-06
1.822446168e-05
3.89493072e-05
9.135949978e-07
1.069478569e-06
1.185599154e-06
1.261154712e-06
1.297725952e-06
1.299784796e-06
1.274893746e-06
1.233368862e-06
1.187253276e-06
1.148625625e-06
1.127520985e-06
1.130016694e-06
1.156900619e-06
1.203742894e-06
1.26201907e-06
1.321191429e-06
1.37105559e-06
1.40367343e-06
1.414549188e-06
1.40271886e-06
1.370275136e-06
1.346127898e-06
1.367935702e-06
1.389688572e-06
1.411231544e-06
1.432394779e-06
1.453000038e-06
1.472869072e-06
1.491838307e-06
1.509753776e-06
1.526480929e-06
1.541906306e-06
1.555921746e-06
1.568484273e-06
1.579621644e-06
1.640418826e-06
1.995912335e-06
5.843365019e-06
1.892477685e-05
4.010003557e-05
9.131341603e-07
1.0709788e-06
1.189607474e-06
1.268000888e-06
1.30739462e-06
1.311801555e-06
1.288262774e-06
1.24660932e-06
1.198567064e-06
1.156194818e-06
1.129882156e-06
1.127198449e-06
1.15136902e-06
1.189412868e-06
1.244520356e-06
1.302470525e-06
1.352933563e-06
1.387535282e-06
1.401209218e-06
1.392430027e-06
1.362862347e-06
1.346066344e-06
1.367871654e-06
1.389621931e-06
1.411163042e-06
1.432325432e-06
1.452931084e-06
1.472802174e-06
1.491774196e-06
1.509693364e-06
1.526424568e-06
1.541853507e-06
1.555874771e-06
1.568445235e-06
1.57958981e-06
1.654513132e-06
2.016616212e-06
6.286782971e-06
1.964150524e-05
4.127762993e-05
9.127116106e-07
1.072453868e-06
1.193506833e-06
1.274656631e-06
1.316825016e-06
1.3236008e-06
1.301533228e-06
1.259980335e-06
1.210334171e-06
1.164584267e-06
1.133398788e-06
1.125925049e-06
1.150359261e-06
1.176428865e-06
1.228109435e-06
1.284495225e-06
1.335206013e-06
1.371495239e-06
1.387758946e-06
1.381916988e-06
1.355190077e-06
1.346004774e-06
1.367807888e-06
1.389555613e-06
1.41109482e-06
1.432256322e-06
1.452862344e-06
1.47273539e-06
1.491710181e-06
1.509632995e-06
1.526368203e-06
1.541800844e-06
1.555827923e-06
1.568406203e-06
1.57955807e-06
1.66890549e-06
2.037746798e-06
6.740623582e-06
2.037502033e-05
4.248270089e-05
9.123228222e-07
1.073901872e-06
1.197299098e-06
1.28112584e-06
1.32601799e-06
1.335172111e-06
1.314673899e-06
1.273422286e-06
1.222464458e-06
1.17367931e-06
1.137945548e-06
1.124652265e-06
1.149339193e-06
1.17290091e-06
1.212778965e-06
1.267289537e-06
1.317915062e-06
1.355600369e-06
1.37423961e-06
1.371210172e-06
1.347277256e-06
1.345943092e-06
1.367744359e-06
1.389489605e-06
1.411026878e-06
1.432187445e-06
1.452793811e-06
1.472668724e-06
1.491646261e-06
1.509572669e-06
1.526311844e-06
1.541748307e-06
1.555781195e-06
1.568367186e-06
1.579526434e-06
1.683601952e-06
2.059312748e-06
7.205122374e-06
2.112570365e-05
4.371587194e-05
9.119639132e-07
1.075321507e-06
1.20098659e-06
1.287413157e-06
1.334976125e-06
1.346508865e-06
1.327660393e-06
1.286885683e-06
1.234880626e-06
1.18337974e-06
1.143414794e-06
1.123382181e-06
1.148310888e-06
1.172113432e-06
1.19851632e-06
1.25087039e-06
1.301096444e-06
1.339893992e-06
1.360690425e-06
1.360339621e-06
1.339143329e-06
1.345881196e-06
1.367681019e-06
1.38942389e-06
1.410959214e-06
1.432118801e-06
1.452725483e-06
1.472602181e-06
1.491582434e-06
1.509512386e-06
1.526255497e-06
1.541695889e-06
1.555734581e-06
1.568328194e-06
1.579494909e-06
1.698608675e-06
2.081322821e-06
7.680520296e-06
2.189394496e-05
4.497777973e-05
9.116315394e-07
1.076711933e-06
1.204571966e-06
1.293523693e-06
1.343703275e-06
1.357607425e-06
1.340473877e-06
1.300329549e-06
1.247516318e-06
1.193597055e-06
1.149707163e-06
1.124642984e-06
1.14727625e-06
1.171312613e-06
1.194338372e-06
1.235248252e-06
1.284780348e-06
1.324415317e-06
1.347148283e-06
1.349334773e-06
1.330808075e-06
1.345818982e-06
1.367617817e-06
1.38935845e-06
1.410891824e-06
1.432050422e-06
1.452657358e-06
1.472535765e-06
1.491518699e-06
1.509452146e-06
1.526199171e-06
1.541643583e-06
1.555688077e-06
1.568289233e-06
1.579463503e-06
1.713931923e-06
2.103785883e-06
8.167063774e-06
2.268014241e-05
4.626907444e-05
9.113228098e-07
1.078072685e-06
1.208058114e-06
1.299462857e-06
1.352204221e-06
1.368466494e-06
1.353100052e-06
1.313720026e-06
1.260314478e-06
1.204252558e-06
1.156728988e-06
1.126897804e-06
1.146236999e-06
1.170500013e-06
1.193737908e-06
1.220428463e-06
1.26899301e-06
1.309197871e-06
1.333647986e-06
1.338224317e-06
1.324014274e-06
1.345756343e-06
1.367554698e-06
1.389293261e-06
1.410824703e-06
1.431982269e-06
1.452589433e-06
1.472469477e-06
1.491455053e-06
1.509391951e-06
1.526142869e-06
1.541591385e-06
1.555641678e-06
1.56825031e-06
1.579432224e-06
1.729578067e-06
2.12671092e-06
8.66500476e-06
2.348470272e-05
4.759042005e-05
9.110352149e-07
1.079403588e-06
1.211448061e-06
1.305236218e-06
1.360484398e-06
1.3790866e-06
1.365528318e-06
1.327029242e-06
1.273226091e-06
1.215276624e-06
1.164395872e-06
1.130041509e-06
1.145194731e-06
1.169677116e-06
1.193123377e-06
1.215711425e-06
1.253755614e-06
1.294271438e-06
1.320222043e-06
1.32703601e-06
1.323945403e-06
1.345693171e-06
1.367491604e-06
1.3892283e-06
1.410757844e-06
1.431914355e-06
1.452521706e-06
1.472403319e-06
1.491391498e-06
1.509331802e-06
1.526086596e-06
1.541539288e-06
1.55559538e-06
1.568211433e-06
1.579401079e-06
1.745553594e-06
2.150107044e-06
9.17460082e-06
2.430804137e-05
4.894249475e-05
9.107665688e-07
1.080704692e-06
1.214744907e-06
1.310849412e-06
1.368549687e-06
1.389469686e-06
1.377751094e-06
1.340234372e-06
1.286209141e-06
1.226607866e-06
1.172631745e-06
1.133992626e-06
1.144150906e-06
1.168845305e-06
1.192495885e-06
1.215263707e-06
1.239084084e-06
1.279663293e-06
1.306900666e-06
1.315796465e-06
1.323874697e-06
1.345629356e-06
1.367428473e-06
1.389163539e-06
1.410691237e-06
1.431846675e-06
1.452454175e-06
1.472337294e-06
1.491328032e-06
1.509271699e-06
1.526030356e-06
1.541487288e-06
1.55554918e-06
1.568172608e-06
1.579370077e-06
1.761865109e-06
2.173983505e-06
9.69611521e-06
2.515058277e-05
5.032599122e-05
9.105149603e-07
1.081976226e-06
1.217951778e-06
1.316308065e-06
1.376406255e-06
1.399618787e-06
1.389763268e-06
1.353316852e-06
1.299227706e-06
1.23819235e-06
1.181368419e-06
1.138674083e-06
1.143106293e-06
1.168005819e-06
1.191856494e-06
1.214802805e-06
1.237065921e-06
1.265397585e-06
1.293711802e-06
1.304531169e-06
1.323802e-06
1.345564791e-06
1.367365244e-06
1.389098949e-06
1.410624873e-06
1.431779229e-06
1.452386838e-06
1.472271401e-06
1.491264654e-06
1.509211643e-06
1.525974153e-06
1.541435381e-06
1.555503074e-06
1.568133841e-06
1.579339224e-06
1.778519346e-06
2.19834971e-06
1.022981697e-05
2.601276047e-05
5.1741617e-05
9.102787133e-07
1.083218552e-06
1.221071783e-06
1.321617738e-06
1.384060434e-06
1.409537765e-06
1.401561735e-06
1.366261715e-06
1.312251143e-06
1.249982842e-06
1.190546126e-06
1.144029467e-06
1.142062775e-06
1.167159913e-06
1.191206216e-06
1.214329423e-06
1.23673868e-06
1.25867898e-06
1.28068112e-06
1.302030228e-06
1.323727162e-06
1.345499366e-06
1.367301852e-06
1.389034498e-06
1.410558738e-06
1.43171201e-06
1.452319693e-06
1.472205643e-06
1.491201366e-06
1.509151635e-06
1.525917989e-06
1.541383564e-06
1.555457061e-06
1.568095137e-06
1.579308529e-06
1.795523178e-06
2.223215254e-06
1.077598111e-05
2.689501732e-05
5.319009487e-05
9.100563529e-07
1.084432136e-06
1.224107991e-06
1.326783882e-06
1.391518634e-06
1.4192311e-06
1.413145019e-06
1.379057008e-06
1.325253304e-06
1.261937631e-06
1.200109631e-06
1.14999248e-06
1.141021061e-06
1.166308709e-06
1.19054606e-06
1.213844262e-06
1.236400086e-06
1.258452222e-06
1.280233032e-06
1.301927957e-06
1.32365004e-06
1.345432975e-06
1.367238229e-06
1.388970153e-06
1.410492818e-06
1.431645016e-06
1.452252737e-06
1.472140019e-06
1.491138166e-06
1.509091677e-06
1.525861865e-06
1.541331832e-06
1.555411138e-06
1.568056502e-06
1.579277999e-06
1.812883634e-06
2.248589982e-06
1.133488877e-05
2.779780576e-05
5.467216317e-05
9.098465781e-07
1.085617524e-06
1.22706341e-06
1.33181179e-06
1.398787277e-06
1.42870372e-06
1.42451296e-06
1.391693313e-06
1.338211907e-06
1.274019886e-06
1.210008835e-06
1.156503836e-06
1.139982068e-06
1.165453259e-06
1.189876956e-06
1.213348012e-06
1.236050531e-06
1.258216203e-06
1.280076566e-06
1.301821294e-06
1.323570499e-06
1.345365512e-06
1.36717431e-06
1.38890588e-06
1.4104271e-06
1.43157824e-06
1.45218597e-06
1.472074529e-06
1.491075055e-06
1.509031768e-06
1.525805784e-06
1.541280182e-06
1.555365302e-06
1.568017942e-06
1.579247642e-06
1.83060792e-06
2.274484107e-06
1.190682761e-05
2.872158807e-05
5.618857624e-05
9.096482377e-07
1.08677532e-06
1.229940979e-06
1.336706646e-06
1.405872653e-06
1.437960888e-06
1.435666464e-06
1.404163344e-06
1.351108014e-06
1.286197162e-06
1.220198611e-06
1.163509813e-06
1.138946625e-06
1.164594543e-06
1.189199798e-06
1.212841352e-06
1.235690418e-06
1.257971075e-06
1.27991325e-06
1.301710128e-06
1.323488412e-06
1.345296871e-06
1.367110026e-06
1.38884164e-06
1.410361566e-06
1.431511674e-06
1.452119387e-06
1.472009173e-06
1.491012033e-06
1.508971912e-06
1.525749746e-06
1.541228613e-06
1.555319553e-06
1.56797946e-06
1.579217465e-06
1.848703427e-06
2.300908446e-06
1.249209222e-05
2.966683671e-05
5.774010483e-05
9.094603106e-07
1.087906169e-06
1.232743557e-06
1.341473467e-06
1.412780953e-06
1.447008062e-06
1.446607282e-06
1.416461609e-06
1.363925593e-06
1.298440939e-06
1.230638408e-06
1.170961265e-06
1.137915461e-06
1.163733482e-06
1.188515423e-06
1.212324943e-06
1.235320158e-06
1.25771701e-06
1.279743081e-06
1.301594363e-06
1.323403658e-06
1.345226952e-06
1.367045309e-06
1.388777395e-06
1.410296198e-06
1.431445313e-06
1.452052985e-06
1.471943952e-06
1.490949098e-06
1.508912109e-06
1.525693754e-06
1.54117712e-06
1.555273888e-06
1.567941062e-06
1.579187478e-06
1.867177696e-06
2.327874876e-06
1.309098492e-05
3.063403477e-05
5.932753651e-05
9.092818888e-07
1.089010748e-06
1.23547391e-06
1.346117079e-06
1.419518248e-06
1.45585083e-06
1.457337846e-06
1.428584135e-06
1.376651146e-06
1.310726208e-06
1.241291897e-06
1.178813418e-06
1.136889184e-06
1.162870487e-06
1.187824585e-06
1.211799424e-06
1.234940165e-06
1.257454195e-06
1.279566076e-06
1.301473918e-06
1.323316127e-06
1.345155657e-06
1.366980088e-06
1.388713106e-06
1.410230977e-06
1.431379148e-06
1.451986763e-06
1.471878864e-06
1.490886251e-06
1.50885236e-06
1.525637807e-06
1.541125703e-06
1.555228307e-06
1.567902753e-06
1.579157686e-06
1.88603821e-06
2.497139204e-06
1.370381695e-05
3.162367651e-05
6.095167605e-05
9.091121625e-07
1.090089746e-06
1.238134707e-06
1.350642129e-06
1.426090456e-06
1.464494838e-06
1.467861125e-06
1.440528226e-06
1.389273369e-06
1.323031075e-06
1.252126618e-06
1.187026533e-06
1.136770664e-06
1.162006873e-06
1.187128087e-06
1.211265422e-06
1.234550857e-06
1.257182833e-06
1.279382265e-06
1.301348725e-06
1.323225714e-06
1.345082888e-06
1.366914296e-06
1.388648732e-06
1.410165882e-06
1.43131317e-06
1.451920715e-06
1.471813909e-06
1.490823492e-06
1.508792666e-06
1.525581908e-06
1.541074357e-06
1.555182808e-06
1.567864537e-06
1.579833595e-06
1.905292539e-06
2.891186778e-06
1.433090941e-05
3.26362678e-05
6.261334588e-05
9.089504074e-07
1.091143864e-06
1.240728521e-06
1.355053083e-06
1.43250332e-06
1.47294574e-06
1.478180505e-06
1.452292255e-06
1.40178285e-06
1.335336357e-06
1.263113318e-06
1.195563262e-06
1.141899468e-06
1.161143074e-06
1.186426644e-06
1.210723532e-06
1.23415265e-06
1.256903138e-06
1.279191699e-06
1.301218729e-06
1.323132326e-06
1.345008555e-06
1.366847864e-06
1.38858423e-06
1.410100892e-06
1.431247369e-06
1.451854838e-06
1.471749085e-06
1.490760819e-06
1.508733027e-06
1.525526055e-06
1.541023083e-06
1.555137391e-06
1.567826418e-06
1.59344188e-06
1.924948689e-06
3.2945382e-06
1.497259155e-05
3.367232613e-05
6.431338629e-05
9.087959744e-07
1.092173804e-06
1.243257824e-06
1.359354242e-06
1.438762388e-06
1.481209154e-06
1.488299693e-06
1.463875495e-06
1.414171811e-06
1.347625246e-06
1.274225619e-06
1.204388969e-06
1.14747618e-06
1.160279721e-06
1.185720925e-06
1.210174351e-06
1.233745961e-06
1.256615333e-06
1.278994441e-06
1.30108389e-06
1.323035875e-06
1.344932568e-06
1.366780724e-06
1.388519558e-06
1.410035984e-06
1.431181733e-06
1.451789128e-06
1.471684391e-06
1.490698233e-06
1.508673444e-06
1.525470251e-06
1.540971877e-06
1.555092054e-06
1.567788401e-06
1.607339603e-06
1.945014745e-06
3.707392131e-06
1.562919778e-05
3.47323806e-05
6.605265583e-05
9.086482802e-07
1.093180261e-06
1.245724988e-06
1.363549696e-06
1.444873053e-06
1.48929064e-06
1.498222639e-06
1.475277965e-06
1.426433886e-06
1.359883037e-06
1.28543977e-06
1.213471938e-06
1.153464318e-06
1.159417393e-06
1.185011571e-06
1.209618427e-06
1.233331199e-06
1.256319651e-06
1.278790566e-06
1.300944177e-06
1.322936282e-06
1.344854844e-06
1.36671281e-06
1.388454673e-06
1.409971133e-06
1.431116253e-06
1.45172358e-06
1.471619824e-06
1.490635735e-06
1.508613917e-06
1.525414494e-06
1.540920737e-06
1.555046798e-06
1.567750488e-06
1.621532513e-06
1.965498847e-06
4.129953251e-06
1.630106832e-05
3.581697175e-05
6.783203168e-05
9.085067998e-07
1.094163925e-06
1.248132284e-06
1.367643363e-06
1.450840517e-06
1.497195669e-06
1.507953468e-06
1.486500309e-06
1.438563929e-06
1.372096892e-06
1.296734422e-06
1.222783158e-06
1.159830011e-06
1.158556617e-06
1.18429919e-06
1.209056302e-06
1.23290877e-06
1.256016333e-06
1.278580162e-06
1.300799573e-06
1.322833477e-06
1.344775302e-06
1.366644055e-06
1.388389531e-06
1.409906316e-06
1.431050916e-06
1.451658188e-06
1.471555381e-06
1.490573326e-06
1.508554446e-06
1.525358786e-06
1.540869664e-06
1.555001621e-06
1.567712685e-06
1.636026467e-06
1.986409201e-06
4.562432148e-06
1.698854979e-05
3.692665173e-05
6.965240998e-05
9.083710591e-07
1.095125474e-06
1.250481891e-06
1.371638998e-06
1.456669782e-06
1.504929598e-06
1.517496422e-06
1.497543687e-06
1.450557856e-06
1.384255633e-06
1.308090416e-06
1.232296119e-06
1.166541766e-06
1.157697857e-06
1.183584249e-06
1.208488487e-06
1.232479069e-06
1.255705622e-06
1.278363325e-06
1.300650071e-06
1.322727398e-06
1.344693866e-06
1.366574395e-06
1.388324088e-06
1.409841507e-06
1.430985709e-06
1.451592945e-06
1.471491058e-06
1.490511006e-06
1.508495033e-06
1.525303127e-06
1.540818654e-06
1.554956523e-06
1.567674995e-06