/*--------------------------------*- C++ -*----------------------------------*\
| =========                 |                                                 |
| \\      /  F ield         | OpenFOAM: The Open Source CFD Toolbox           |
|  \\    /   O peration     | Version:  v2006                                 |
|   \\  /    A nd           | Website:  www.openfoam.com                      |
|    \\/     M anipulation  |                                                 |
\*---------------------------------------------------------------------------*/
FoamFile
{
    version     2.0;
    format      ascii;
    class       volScalarField;
    location    "0.09";
    object      CO2;
}
// * * * * * * * * * * * * * * * * * * * * * * * * * * * * * * * * * * * * * //

dimensions      [0 0 0 0 0 0 0];


internalField   nonuniform List<scalar> 
168000
(
9.672109897e-08
1.1412643e-07
1.301732924e-07
1.479913323e-07
1.65536851e-07
1.811685458e-07
1.972037791e-07
2.131449462e-07
2.242658439e-07
2.332071161e-07
2.409778093e-07
2.440550164e-07
2.435433408e-07
2.414550904e-07
2.342769109e-07
2.244102522e-07
2.124960725e-07
1.965573233e-07
1.791294408e-07
1.595977889e-07
1.38574028e-07
1.172721569e-07
1.148251798e-07
1.16658047e-07
1.18489418e-07
1.202606053e-07
1.220293773e-07
1.236704652e-07
1.252866964e-07
1.26788071e-07
1.281797348e-07
1.294947779e-07
1.306632426e-07
1.316982912e-07
1.326287597e-07
1.334459174e-07
1.355363495e-07
2.095618041e-07
1.938943098e-06
7.736873751e-06
9.518229459e-08
1.129729866e-07
1.233752342e-07
1.342646181e-07
1.470254265e-07
1.612431521e-07
1.771237185e-07
1.935931278e-07
2.079315206e-07
2.201934204e-07
2.302536104e-07
2.362673766e-07
2.383743036e-07
2.373853088e-07
2.319315386e-07
2.230623123e-07
2.11350716e-07
1.962462105e-07
1.787874011e-07
1.595487911e-07
1.38596463e-07
1.173129377e-07
1.148178617e-07
1.166531554e-07
1.18481362e-07
1.202575459e-07
1.220190953e-07
1.2366779e-07
1.252797432e-07
1.267823641e-07
1.281766737e-07
1.29488923e-07
1.306586502e-07
1.316956139e-07
1.326261566e-07
1.334430003e-07
1.384206877e-07
2.136623057e-07
2.123691757e-06
8.044837737e-06
9.274706507e-08
1.114951223e-07
1.195833194e-07
1.258393159e-07
1.340914491e-07
1.454049894e-07
1.597622891e-07
1.759982438e-07
1.920062542e-07
2.066585691e-07
2.190202255e-07
2.276713186e-07
2.322135295e-07
2.328348764e-07
2.290023133e-07
2.212444086e-07
2.100891979e-07
1.956157846e-07
1.784191258e-07
1.593930851e-07
1.385944509e-07
1.173327602e-07
1.148109301e-07
1.166478618e-07
1.184738866e-07
1.20253667e-07
1.220097798e-07
1.236643999e-07
1.252731004e-07
1.267767457e-07
1.28173328e-07
1.29483267e-07
1.306541004e-07
1.316928568e-07
1.326235376e-07
1.334401411e-07
1.413431309e-07
2.178533416e-07
2.313030869e-06
8.359700156e-06
9.100504531e-08
1.103412767e-07
1.176940566e-07
1.210582039e-07
1.255045267e-07
1.334286542e-07
1.453874569e-07
1.605213681e-07
1.770131069e-07
1.931752727e-07
2.074935946e-07
2.184690311e-07
2.252937633e-07
2.277410754e-07
2.25538865e-07
2.189968994e-07
2.086165175e-07
1.947698254e-07
1.779634883e-07
1.591586089e-07
1.385565437e-07
1.173342167e-07
1.148042659e-07
1.166422974e-07
1.184668248e-07
1.202491825e-07
1.220012088e-07
1.236604579e-07
1.252666994e-07
1.26771205e-07
1.281697432e-07
1.294777791e-07
1.306495934e-07
1.316900285e-07
1.326209037e-07
1.334373362e-07
1.443083036e-07
2.221351827e-07
2.507028488e-06
8.681700718e-06
8.983219302e-08
1.096601652e-07
1.17045351e-07
1.18746083e-07
1.202126913e-07
1.248178784e-07
1.339358108e-07
1.47258079e-07
1.632975193e-07
1.801571846e-07
1.959318653e-07
2.088717012e-07
2.177953536e-07
2.221251546e-07
2.215820134e-07
2.163459503e-07
2.068888661e-07
1.937215404e-07
1.773901307e-07
1.588476666e-07
1.384633919e-07
1.173169457e-07
1.147977896e-07
1.166365533e-07
1.184600569e-07
1.202442523e-07
1.219932121e-07
1.236560905e-07
1.252604873e-07
1.26765732e-07
1.281659576e-07
1.294724332e-07
1.306451286e-07
1.316871372e-07
1.326182558e-07
1.334345823e-07
1.473202093e-07
2.265084236e-07
2.705761578e-06
9.011070673e-06
8.902366165e-08
1.093972511e-07
1.17223717e-07
1.180990397e-07
1.173662085e-07
1.189993903e-07
1.251526967e-07
1.361914998e-07
1.51061721e-07
1.678996944e-07
1.845802656e-07
1.990839273e-07
2.098775353e-07
2.160484989e-07
2.171749223e-07
2.133131776e-07
2.048880831e-07
1.92472317e-07
1.766827258e-07
1.584544292e-07
1.383140932e-07
1.172728583e-07
1.147914485e-07
1.166306925e-07
1.184534976e-07
1.202389957e-07
1.219856596e-07
1.236513954e-07
1.252544233e-07
1.267603174e-07
1.281620034e-07
1.294672081e-07
1.306407047e-07
1.316841899e-07
1.326155948e-07
1.334318765e-07
1.503823556e-07
2.309739262e-07
2.909314857e-06
9.348034977e-06
8.845874081e-08
1.094516963e-07
1.179494302e-07
1.185615592e-07
1.163073501e-07
1.154252035e-07
1.187128374e-07
1.272164668e-07
1.403944396e-07
1.566024129e-07
1.736476279e-07
1.892932558e-07
2.016875193e-07
2.095916348e-07
2.123660862e-07
2.099217076e-07
2.026099123e-07
1.910195204e-07
1.758318548e-07
1.579745199e-07
1.381044171e-07
1.171994053e-07
1.147852076e-07
1.166247586e-07
1.184470866e-07
1.202335014e-07
1.219784512e-07
1.236464484e-07
1.25248476e-07
1.267549525e-07
1.28157908e-07
1.29462086e-07
1.306363202e-07
1.316811931e-07
1.32612922e-07
1.334292162e-07
1.534978561e-07
2.355327735e-07
3.11777989e-06
9.692814126e-06
8.806569166e-08
1.097361278e-07
1.190396745e-07
1.19780237e-07
1.165261728e-07
1.136153809e-07
1.142669008e-07
1.201540647e-07
1.312968803e-07
1.463861443e-07
1.632984384e-07
1.796639773e-07
1.93362025e-07
2.028420514e-07
2.072092182e-07
2.061983624e-07
2.000586248e-07
1.893609828e-07
1.748315334e-07
1.574003017e-07
1.378304982e-07
1.170921216e-07
1.147790436e-07
1.166187815e-07
1.184407815e-07
1.202278358e-07
1.219715105e-07
1.236413081e-07
1.252426214e-07
1.2674963e-07
1.281536943e-07
1.29457052e-07
1.306319732e-07
1.316781526e-07
1.326102385e-07
1.334265991e-07
1.566695115e-07
2.401862333e-07
3.331254334e-06
1.00456257e-05
8.779712651e-08
1.101823682e-07
1.203673356e-07
1.214981306e-07
1.176844144e-07
1.131779712e-07
1.114834225e-07
1.148045816e-07
1.237136648e-07
1.373088249e-07
1.536527088e-07
1.703337939e-07
1.850246389e-07
1.958889173e-07
2.017617348e-07
2.021739376e-07
1.972444e-07
1.874967653e-07
1.736781056e-07
1.567257192e-07
1.374887747e-07
1.169468529e-07
1.147729438e-07
1.166127822e-07
1.184345527e-07
1.202220478e-07
1.21964779e-07
1.236360199e-07
1.252368406e-07
1.26744343e-07
1.281493817e-07
1.294520937e-07
1.306276614e-07
1.316750734e-07
1.326075456e-07
1.334240231e-07
1.598998758e-07
2.4493573e-07
3.549841309e-06
1.040668565e-05
8.761998858e-08
1.107397811e-07
1.218446126e-07
1.235410113e-07
1.194923768e-07
1.13764518e-07
1.100620443e-07
1.109544362e-07
1.17543281e-07
1.293788321e-07
1.447897616e-07
1.614130936e-07
1.767843453e-07
1.888186764e-07
1.960829649e-07
1.97882594e-07
1.94181864e-07
1.854297008e-07
1.723697886e-07
1.559456934e-07
1.370743289e-07
1.167595631e-07
1.147669008e-07
1.166067754e-07
1.1842838e-07
1.20216174e-07
1.219582118e-07
1.236306191e-07
1.252311193e-07
1.267390861e-07
1.281449863e-07
1.294472009e-07
1.30623383e-07
1.316719604e-07
1.326048444e-07
1.334214864e-07
1.631913097e-07
2.497828225e-07
3.773648913e-06
1.077620935e-05
8.751065942e-08
1.113715273e-07
1.234108841e-07
1.257901523e-07
1.217603609e-07
1.151660601e-07
1.097521843e-07
1.083974956e-07
1.126686829e-07
1.225690807e-07
1.367541872e-07
1.529860848e-07
1.687346924e-07
1.817122217e-07
1.902321701e-07
1.933609163e-07
1.908891059e-07
1.831654015e-07
1.70906529e-07
1.55056531e-07
1.365857619e-07
1.165265429e-07
1.147609052e-07
1.16600771e-07
1.184222495e-07
1.202102415e-07
1.219517745e-07
1.236251332e-07
1.252254461e-07
1.267338542e-07
1.281405219e-07
1.294423648e-07
1.306191357e-07
1.316688175e-07
1.326021362e-07
1.334189875e-07
1.665460239e-07
2.547291905e-07
4.002789828e-06
1.115441253e-05
8.745202238e-08
1.120509504e-07
1.250238389e-07
1.281619138e-07
1.243414147e-07
1.171559123e-07
1.103091258e-07
1.069401436e-07
1.089612621e-07
1.16832021e-07
1.295624208e-07
1.451130629e-07
1.609535511e-07
1.746437758e-07
1.842661101e-07
1.886470366e-07
1.873868979e-07
1.807120298e-07
1.692899078e-07
1.540556582e-07
1.360194623e-07
1.16244602e-07
1.147549553e-07
1.165947759e-07
1.184161521e-07
1.202042703e-07
1.219454407e-07
1.236195832e-07
1.252198123e-07
1.267286433e-07
1.28136e-07
1.294375781e-07
1.306149175e-07
1.316656487e-07
1.325994221e-07
1.33416525e-07
1.699661159e-07
2.597766268e-07
4.237381041e-06
1.154151205e-05
8.74315162e-08
1.127588031e-07
1.266539509e-07
1.305978385e-07
1.271302563e-07
1.195873945e-07
1.115939544e-07
1.064162924e-07
1.062910363e-07
1.120936016e-07
1.232074508e-07
1.378331791e-07
1.535034123e-07
1.676785039e-07
1.78239352e-07
1.83779561e-07
1.836979815e-07
1.780799672e-07
1.6752306e-07
1.52941694e-07
1.353730493e-07
1.159109388e-07
1.147490494e-07
1.165887942e-07
1.184100817e-07
1.201982754e-07
1.2193919e-07
1.236139858e-07
1.252142111e-07
1.267234499e-07
1.281314305e-07
1.294328348e-07
1.306107264e-07
1.316624571e-07
1.325967033e-07
1.334140976e-07
1.734536008e-07
2.649270436e-07
4.477543656e-06
1.193772657e-05
8.743981669e-08
1.13481215e-07
1.2828064e-07
1.330568237e-07
1.300491343e-07
1.223391048e-07
1.134311551e-07
1.066506504e-07
1.045317453e-07
1.08280496e-07
1.176662428e-07
1.311678414e-07
1.464324329e-07
1.608726971e-07
1.722026375e-07
1.787967342e-07
1.79846408e-07
1.75281444e-07
1.656105719e-07
1.517144012e-07
1.346446557e-07
1.1552272e-07
1.147431868e-07
1.165828357e-07
1.18404035e-07
1.201922678e-07
1.219330071e-07
1.236083539e-07
1.25208637e-07
1.267182711e-07
1.281268213e-07
1.294281296e-07
1.306065606e-07
1.316592459e-07
1.325939809e-07
1.334117044e-07
1.770104376e-07
2.701824981e-07
4.723402818e-06
1.234327711e-05
8.746992608e-08
1.142081983e-07
1.298896716e-07
1.355100596e-07
1.330411591e-07
1.253192164e-07
1.157057517e-07
1.075494827e-07
1.0357204e-07
1.053130941e-07
1.129066926e-07
1.251240098e-07
1.397758169e-07
1.542738364e-07
1.6620207e-07
1.73735783e-07
1.758569077e-07
1.72330162e-07
1.635583503e-07
1.503746275e-07
1.338330153e-07
1.150778391e-07
1.14737367e-07
1.165768966e-07
1.183980098e-07
1.201862559e-07
1.219268799e-07
1.236026975e-07
1.252030859e-07
1.267131045e-07
1.281221796e-07
1.294234581e-07
1.306024182e-07
1.316560177e-07
1.325912561e-07
1.334093445e-07
1.806385477e-07
2.755452566e-07
4.975087746e-06
1.275838761e-05
8.751654272e-08
1.149325919e-07
1.314713252e-07
1.379374628e-07
1.360645938e-07
1.284563968e-07
1.183174699e-07
1.089779744e-07
1.033050948e-07
1.031099614e-07
1.088817351e-07
1.196962467e-07
1.335572879e-07
1.479209331e-07
1.602792301e-07
1.686316945e-07
1.717544174e-07
1.692409375e-07
1.613734715e-07
1.489242328e-07
1.329374944e-07
1.145748832e-07
1.147315895e-07
1.165709815e-07
1.183920049e-07
1.201802457e-07
1.219207992e-07
1.235970243e-07
1.251975544e-07
1.267079484e-07
1.28117511e-07
1.294188166e-07
1.305982977e-07
1.31652775e-07
1.3258853e-07
1.334070171e-07
1.843398148e-07
2.864812e-07
5.232731988e-06
1.318328536e-05
8.757561658e-08
1.156493007e-07
1.330191113e-07
1.403252051e-07
1.390889308e-07
1.316957057e-07
1.211859662e-07
1.108387691e-07
1.036086159e-07
1.015912337e-07
1.055457275e-07
1.14870544e-07
1.277908032e-07
1.418450553e-07
1.544709794e-07
1.635167739e-07
1.675636505e-07
1.660293645e-07
1.590640147e-07
1.473660014e-07
1.319580363e-07
1.140122326e-07
1.147258541e-07
1.165650921e-07
1.183860201e-07
1.201742419e-07
1.219147581e-07
1.235913406e-07
1.251920401e-07
1.267028008e-07
1.281128206e-07
1.294142019e-07
1.305941975e-07
1.316495199e-07
1.325858035e-07
1.334047216e-07
1.881160404e-07
4.489920653e-07
5.496473857e-06
1.361820146e-05
8.764403008e-08
1.163547372e-07
1.345288706e-07
1.426639717e-07
1.420920258e-07
1.349950819e-07
1.242477062e-07
1.130573032e-07
1.044445382e-07
1.006888952e-07
1.02849414e-07
1.10626026e-07
1.224821293e-07
1.360699141e-07
1.488085602e-07
1.584213796e-07
1.633086868e-07
1.627114998e-07
1.56638887e-07
1.45703551e-07
1.308951769e-07
1.133888851e-07
1.147201604e-07
1.165592298e-07
1.183800552e-07
1.20168248e-07
1.21908751e-07
1.235856511e-07
1.25186541e-07
1.266976605e-07
1.281081124e-07
1.294096113e-07
1.305901162e-07
1.316462544e-07
1.325830776e-07
1.334024573e-07
1.919690883e-07
6.153892802e-07
5.76645625e-06
1.406337079e-05
8.771936985e-08
1.17046431e-07
1.359981107e-07
1.449477025e-07
1.450579168e-07
1.383221506e-07
1.274507076e-07
1.155632471e-07
1.057117543e-07
1.003330576e-07
1.007423208e-07
1.069400491e-07
1.176304603e-07
1.306126603e-07
1.43318349e-07
1.533731112e-07
1.590126679e-07
1.593035783e-07
1.541076477e-07
1.439412357e-07
1.297500217e-07
1.128706853e-07
1.147145076e-07
1.165533956e-07
1.183741095e-07
1.201622663e-07
1.219027739e-07
1.235799595e-07
1.251810553e-07
1.266925265e-07
1.2810339e-07
1.294050425e-07
1.305860525e-07
1.316429802e-07
1.325803533e-07
1.334002238e-07
1.959008003e-07
7.857576995e-07
6.042824682e-06
1.451903183e-05
8.779975805e-08
1.177227337e-07
1.374255381e-07
1.471726918e-07
1.479752512e-07
1.416520829e-07
1.307530659e-07
1.182986265e-07
1.073442013e-07
1.004438128e-07
9.917313475e-08
1.037794386e-07
1.132288562e-07
1.25484618e-07
1.380221439e-07
1.48396641e-07
1.546975769e-07
1.558217569e-07
1.514803362e-07
1.420840474e-07
1.285242094e-07
1.128653455e-07
1.147088949e-07
1.165475903e-07
1.183681875e-07
1.201562993e-07
1.218968236e-07
1.235742687e-07
1.251755819e-07
1.266873981e-07
1.280986562e-07
1.294004933e-07
1.305820053e-07
1.316396989e-07
1.325776316e-07
1.333980206e-07
1.999130019e-07
9.60184919e-07
6.325727403e-06
1.498542567e-05
8.788372719e-08
1.183826029e-07
1.38810718e-07
1.493369399e-07
1.508361327e-07
1.44965957e-07
1.341212354e-07
1.212158602e-07
1.092887923e-07
1.009931644e-07
9.809744168e-08
1.011161173e-07
1.092666008e-07
1.206921749e-07
1.329374877e-07
1.435136581e-07
1.503841314e-07
1.522818747e-07
1.487673077e-07
1.401375162e-07
1.272198619e-07
1.128600439e-07
1.147033212e-07
1.165418145e-07
1.183622858e-07
1.201503482e-07
1.218908975e-07
1.235685811e-07
1.251701196e-07
1.266822746e-07
1.280939136e-07
1.293959622e-07
1.305779733e-07
1.316364121e-07
1.325749132e-07
1.333958474e-07
2.040075088e-07
1.138761228e-06
6.615315789e-06
1.546279352e-05
8.797012655e-08
1.190254437e-07
1.401538268e-07
1.514396818e-07
1.536352581e-07
1.482494403e-07
1.375282837e-07
1.242747802e-07
1.114947728e-07
1.019129743e-07
9.746897139e-08
9.891848802e-08
1.057295624e-07
1.162375233e-07
1.280780751e-07
1.387432738e-07
1.460912673e-07
1.486992734e-07
1.459790868e-07
1.381076134e-07
1.25839559e-07
1.128547753e-07
1.146977847e-07
1.165360683e-07
1.183564061e-07
1.201444142e-07
1.218849939e-07
1.235628984e-07
1.251646676e-07
1.266771556e-07
1.280891643e-07
1.293914476e-07
1.305739557e-07
1.316331208e-07
1.325721991e-07
1.356767791e-07
2.081861326e-07
1.321579477e-06
6.911743978e-06
1.59513869e-05
8.805805175e-08
1.196509902e-07
1.41455469e-07
1.534810447e-07
1.563692689e-07
1.514917784e-07
1.409526379e-07
1.274417955e-07
1.13918688e-07
1.031568532e-07
9.724556862e-08
9.715458145e-08
1.026019389e-07
1.121194083e-07
1.234541427e-07
1.341021921e-07
1.418358877e-07
1.450887492e-07
1.431262408e-07
1.360006599e-07
1.243862844e-07
1.12849534e-07
1.146922835e-07
1.165303519e-07
1.183505491e-07
1.201384983e-07
1.218791114e-07
1.235572222e-07
1.251592253e-07
1.266720409e-07
1.280844099e-07
1.293869481e-07
1.305699516e-07
1.316298264e-07
1.3256949e-07
1.385792753e-07
2.124506908e-07
1.508735056e-06
7.215169275e-06
1.645146441e-05
8.814679129e-08
1.202592196e-07
1.427165507e-07
1.554617789e-07
1.590362734e-07
1.546850186e-07
1.443770892e-07
1.306889449e-07
1.165231766e-07
1.046816085e-07
9.736998129e-08
9.579197457e-08
9.986527387e-08
1.083335901e-07
1.190727753e-07
1.296043128e-07
1.376335327e-07
1.414643525e-07
1.402192585e-07
1.338232364e-07
1.228633758e-07
1.128443136e-07
1.146868152e-07
1.165246648e-07
1.183447151e-07
1.201326011e-07
1.218732487e-07
1.235515534e-07
1.251537921e-07
1.2666693e-07
1.280796521e-07
1.293824627e-07
1.305659601e-07
1.316265299e-07
1.325667868e-07
1.415431759e-07
2.168030098e-07
1.700325849e-06
7.525752382e-06
1.696329003e-05
8.82357859e-08
1.208502866e-07
1.439381855e-07
1.57383075e-07
1.616354718e-07
1.578234011e-07
1.477879783e-07
1.33993061e-07
1.192767186e-07
1.064539221e-07
9.78373362e-08
9.480373043e-08
9.750021102e-08
1.048734647e-07
1.149382678e-07
1.252608888e-07
1.334983913e-07
1.378393434e-07
1.372684487e-07
1.315821015e-07
1.212744751e-07
1.128391071e-07
1.146813773e-07
1.165190068e-07
1.183389046e-07
1.201267232e-07
1.218674052e-07
1.235458929e-07
1.251483677e-07
1.266618229e-07
1.28074892e-07
1.293779903e-07
1.305619806e-07
1.316232323e-07
1.325640902e-07
1.445697414e-07
2.212449282e-07
1.896452208e-06
7.843657489e-06
1.74871332e-05
8.8324596e-08
1.214244728e-07
1.451216134e-07
1.592464335e-07
1.641668778e-07
1.609028774e-07
1.511745003e-07
1.373348384e-07
1.221517131e-07
1.084395567e-07
9.859675381e-08
9.434448039e-08
9.638635132e-08
1.017306253e-07
1.110525281e-07
1.2108103e-07
1.294430105e-07
1.342261229e-07
1.34283853e-07
1.292841144e-07
1.196234778e-07
1.128339071e-07
1.146759667e-07
1.165133771e-07
1.183331177e-07
1.201208649e-07
1.218615802e-07
1.235402415e-07
1.251429517e-07
1.266567194e-07
1.280701307e-07
1.2937353e-07
1.305580122e-07
1.316199344e-07
1.325614009e-07
1.476602539e-07
2.257783001e-07
2.097216945e-06
8.169052357e-06
1.802326904e-05
8.841287726e-08
1.219821492e-07
1.462681516e-07
1.610535571e-07
1.666311072e-07
1.639207347e-07
1.54528159e-07
1.406982134e-07
1.251243237e-07
1.106087172e-07
9.961790454e-08
9.423690665e-08
9.630104937e-08
9.889516856e-08
1.074154265e-07
1.170718688e-07
1.254783693e-07
1.306361987e-07
1.312751733e-07
1.269361651e-07
1.179144857e-07
1.128287059e-07
1.146705798e-07
1.165077747e-07
1.183273545e-07
1.201150266e-07
1.218557732e-07
1.235345997e-07
1.251375439e-07
1.266516196e-07
1.280653692e-07
1.293690811e-07
1.305540546e-07
1.31616637e-07
1.325587197e-07
1.50816017e-07
2.304049974e-07
2.302725347e-06
8.502108394e-06
1.857197847e-05
8.85003611e-08
1.225237485e-07
1.473791582e-07
1.628062712e-07
1.690292143e-07
1.668753028e-07
1.578423349e-07
1.440698614e-07
1.281740706e-07
1.129351925e-07
1.008720713e-07
9.412938491e-08
9.621487649e-08
9.820531298e-08
1.04025148e-07
1.13238747e-07
1.216139475e-07
1.270801864e-07
1.282517101e-07
1.245451116e-07
1.161517599e-07
1.128234951e-07
1.146652131e-07
1.165021985e-07
1.183216149e-07
1.201092081e-07
1.218499837e-07
1.23528968e-07
1.251321441e-07
1.266465233e-07
1.280606081e-07
1.293646429e-07
1.305501071e-07
1.31613341e-07
1.325560471e-07
1.540383563e-07
2.351269124e-07
2.513085177e-06
8.843000736e-06
1.913354837e-05
8.858683939e-08
1.230497424e-07
1.484559948e-07
1.645064762e-07
1.713625711e-07
1.697657252e-07
1.611119372e-07
1.474387694e-07
1.31283419e-07
1.153960931e-07
1.023345925e-07
9.402209136e-08
9.612800777e-08
9.813878873e-08
1.008786835e-07
1.09585403e-07
1.178577771e-07
1.235678507e-07
1.252223068e-07
1.22117723e-07
1.143396766e-07
1.128182663e-07
1.146598623e-07
1.164966471e-07
1.183158988e-07
1.201034092e-07
1.218442115e-07
1.235233466e-07
1.251267522e-07
1.266414308e-07
1.280558481e-07
1.293602148e-07
1.305461693e-07
1.31610047e-07
1.32553384e-07
1.573286203e-07
2.399459597e-07
2.728406703e-06
9.191908323e-06
1.970827171e-05
8.867215241e-08
1.235606273e-07
1.495000141e-07
1.661560986e-07
1.736327708e-07
1.725917777e-07
1.643331185e-07
1.507958622e-07
1.344373425e-07
1.179712199e-07
1.039827159e-07
9.449026851e-08
9.604060411e-08
9.807113752e-08
1.000162976e-07
1.061141139e-07
1.142166348e-07
1.201080255e-07
1.221952802e-07
1.196606318e-07
1.124826864e-07
1.128130106e-07
1.146545232e-07
1.164911188e-07
1.183102059e-07
1.200976327e-07
1.218384565e-07
1.235177359e-07
1.251213679e-07
1.266363419e-07
1.280510897e-07
1.293557961e-07
1.305422407e-07
1.316067557e-07
1.325507309e-07
1.606881804e-07
2.448640776e-07
2.948802715e-06
9.54901399e-06
2.029644775e-05
8.875617961e-08
1.240569125e-07
1.505125462e-07
1.677570597e-07
1.758415558e-07
1.753537248e-07
1.67503041e-07
1.541336836e-07
1.376229449e-07
1.206426258e-07
1.057950117e-07
9.518401677e-08
9.595281071e-08
9.800249105e-08
9.996557181e-08
1.028259962e-07
1.106963994e-07
1.167082606e-07
1.191784735e-07
1.171802998e-07
1.10971002e-07
1.128077191e-07
1.14649191e-07
1.164856119e-07
1.183045357e-07
1.200918754e-07
1.218327183e-07
1.23512136e-07
1.251159913e-07
1.266312568e-07
1.280463335e-07
1.293513865e-07
1.30538321e-07
1.316034676e-07
1.325480885e-07
1.641184317e-07
2.498832302e-07
3.174388556e-06
9.914504536e-06
2.089838212e-05
8.883883183e-08
1.245391116e-07
1.514948874e-07
1.693112544e-07
1.779907624e-07
1.780522061e-07
1.706196868e-07
1.574461354e-07
1.408291707e-07
1.233944478e-07
1.077521803e-07
9.607928451e-08
9.586476245e-08
9.793297471e-08
9.991365776e-08
1.01821841e-07
1.073018062e-07
1.13375259e-07
1.16179211e-07
1.146829786e-07
1.109651839e-07
1.128023824e-07
1.14643861e-07
1.164801241e-07
1.182988876e-07
1.200861381e-07
1.218269969e-07
1.235065472e-07
1.251106223e-07
1.266261755e-07
1.280415797e-07
1.293469855e-07
1.305344099e-07
1.316001834e-07
1.325454575e-07
1.676207944e-07
2.550054091e-07
3.405282155e-06
1.028857082e-05
2.151438703e-05
8.892004534e-08
1.250077355e-07
1.524482933e-07
1.708205361e-07
1.800822791e-07
1.806881462e-07
1.736817045e-07
1.607282631e-07
1.440465649e-07
1.262127126e-07
1.098368353e-07
9.715742271e-08
9.577658266e-08
9.786270531e-08
9.986064877e-08
1.017840189e-07
1.040364016e-07
1.101151544e-07
1.132042973e-07
1.121746606e-07
1.109592108e-07
1.127969915e-07
1.146385278e-07
1.164746532e-07
1.182932608e-07
1.200804207e-07
1.218212921e-07
1.235009695e-07
1.251052608e-07
1.266210981e-07
1.280368287e-07
1.293425927e-07
1.30530507e-07
1.315969036e-07
1.325428384e-07
1.711967145e-07
2.602326359e-07
3.641604074e-06
1.067140782e-05
2.214478141e-05
8.899977673e-08
1.254632878e-07
1.533739741e-07
1.722867066e-07
1.821180157e-07
1.832626842e-07
1.766882832e-07
1.639760758e-07
1.472670647e-07
1.290851565e-07
1.120334008e-07
9.840080498e-08
9.568833624e-08
9.779178761e-08
9.980663453e-08
1.01745083e-07
1.036258168e-07
1.069333719e-07
1.102600246e-07
1.09661084e-07
1.109530696e-07
1.127915372e-07
1.146331864e-07
1.164691968e-07
1.182876545e-07
1.20074723e-07
1.218156036e-07
1.234954031e-07
1.250999069e-07
1.266160248e-07
1.280320808e-07
1.293382077e-07
1.305266122e-07
1.315936286e-07
1.325402321e-07
1.748476663e-07
2.655669664e-07
3.883477543e-06
1.106321477e-05
2.278989104e-05
8.907799904e-08
1.259062609e-07
1.542730924e-07
1.737115076e-07
1.84099879e-07
1.857771166e-07
1.796390502e-07
1.671863944e-07
1.504838123e-07
1.320010509e-07
1.143282292e-07
9.979650485e-08
9.560018238e-08
9.772032749e-08
9.975170064e-08
1.017050929e-07
1.035981723e-07
1.054516355e-07
1.0735217e-07
1.091138434e-07
1.109467475e-07
1.127860103e-07
1.146278311e-07
1.164637522e-07
1.182820675e-07
1.200690445e-07
1.218099314e-07
1.23489848e-07
1.250945604e-07
1.266109555e-07
1.280273362e-07
1.293338303e-07
1.305227251e-07
1.31590359e-07
1.32537639e-07
1.785751543e-07
2.710104971e-07
4.131028542e-06
1.14641952e-05
2.345004876e-05
8.91546985e-08
1.263371341e-07
1.551467611e-07
1.750966163e-07
1.860297575e-07
1.882328517e-07
1.825339848e-07
1.703567183e-07
1.536909755e-07
1.349509324e-07
1.167087157e-07
1.013293664e-07
9.551218092e-08
9.764841987e-08
9.969593229e-08
1.016641077e-07
1.035695688e-07
1.054324795e-07
1.072724693e-07
1.091052037e-07
1.109402324e-07
1.127804017e-07
1.146224565e-07
1.164583165e-07
1.182764989e-07
1.20063385e-07
1.218042751e-07
1.234843042e-07
1.250892215e-07
1.266058903e-07
1.28022595e-07
1.293294601e-07
1.305188456e-07
1.315870952e-07
1.325350599e-07
1.82380717e-07
2.765653794e-07
4.38438589e-06
1.187455709e-05
2.412559456e-05
8.922987199e-08
1.267563714e-07
1.559960438e-07
1.764436392e-07
1.879095106e-07
1.906313736e-07
1.853733487e-07
1.734851158e-07
1.568836022e-07
1.379264556e-07
1.191634346e-07
1.029858393e-07
9.542440934e-08
9.757615356e-08
9.963940799e-08
1.016221857e-07
1.035400392e-07
1.054125412e-07
1.072592514e-07
1.090961931e-07
1.10933513e-07
1.127747026e-07
1.146170568e-07
1.164528868e-07
1.182709471e-07
1.200577439e-07
1.217986347e-07
1.234787718e-07
1.2508389e-07
1.266008294e-07
1.280178574e-07
1.293250969e-07
1.305149735e-07
1.315838377e-07
1.325324954e-07
1.862659313e-07
2.82233845e-07
4.643681394e-06
1.229451296e-05
2.481687586e-05
8.930352497e-08
1.271644215e-07
1.568219578e-07
1.777541249e-07
1.897409371e-07
1.929742179e-07
1.881576288e-07
1.765701326e-07
1.600575016e-07
1.409202782e-07
1.216820999e-07
1.047536487e-07
9.533693764e-08
9.750361135e-08
9.958220332e-08
1.015793843e-07
1.035096177e-07
1.053918334e-07
1.072454549e-07
1.09086802e-07
1.109265784e-07
1.12768904e-07
1.146116262e-07
1.1644746e-07
1.18265411e-07
1.200521206e-07
1.2179301e-07
1.234732507e-07
1.25078566e-07
1.265957729e-07
1.280131235e-07
1.293207404e-07
1.305111087e-07
1.315805869e-07
1.325299462e-07
1.902324149e-07
2.880182573e-07
4.909050057e-06
1.272428006e-05
2.552424762e-05
8.93756697e-08
1.275617166e-07
1.576254732e-07
1.790295557e-07
1.91525787e-07
1.952629434e-07
1.908874899e-07
1.796107151e-07
1.632091441e-07
1.439259562e-07
1.242554749e-07
1.066215692e-07
9.524982745e-08
9.7430871e-08
9.952438901e-08
1.015357593e-07
1.03478339e-07
1.053703706e-07
1.072310795e-07
1.090770225e-07
1.109194187e-07
1.127629974e-07
1.14606159e-07
1.164420328e-07
1.182598889e-07
1.200465146e-07
1.217874006e-07
1.23467741e-07
1.250732495e-07
1.265907209e-07
1.280083934e-07
1.293163905e-07
1.305072511e-07
1.315773431e-07
1.325274129e-07
1.942818182e-07
2.939212124e-07
5.180630413e-06
1.316408055e-05
2.624807254e-05
8.944632388e-08
1.279486722e-07
1.584075138e-07
1.802713451e-07
1.932657584e-07
1.974991168e-07
1.935637365e-07
1.826061474e-07
1.663355744e-07
1.469378482e-07
1.268752892e-07
1.08579378e-07
9.516313008e-08
9.735796725e-08
9.946602871e-08
1.014913647e-07
1.034462382e-07
1.053481686e-07
1.072161264e-07
1.090668476e-07
1.109120242e-07
1.127569745e-07
1.146006494e-07
1.164366018e-07
1.182543791e-07
1.200409251e-07
1.217818062e-07
1.234622425e-07
1.250679403e-07
1.265856734e-07
1.280036671e-07
1.293120468e-07
1.305034005e-07
1.315741069e-07
1.325248962e-07
1.984157784e-07
3.666094982e-07
5.458565032e-06
1.361414174e-05
2.698872129e-05
8.951550931e-08
1.283256867e-07
1.591689584e-07
1.814808417e-07
1.949624926e-07
1.996842999e-07
1.961872813e-07
1.855559965e-07
1.694343354e-07
1.499510245e-07
1.295341599e-07
1.10618003e-07
9.528204847e-08
9.72850113e-08
9.940719024e-08
1.014462536e-07
1.034133504e-07
1.053252446e-07
1.072005986e-07
1.090562716e-07
1.109043864e-07
1.127508272e-07
1.145950914e-07
1.164311636e-07
1.182488801e-07
1.200353515e-07
1.217762267e-07
1.234567552e-07
1.250626385e-07
1.265806306e-07
1.279989449e-07
1.293077093e-07
1.304995569e-07
1.315708784e-07
1.326770618e-07
2.026359529e-07
5.448741421e-07
5.743001057e-06
1.407469634e-05
2.774657261e-05
8.958325104e-08
1.286931416e-07
1.599106435e-07
1.826593321e-07
1.966175707e-07
2.018200386e-07
1.987591195e-07
1.884600656e-07
1.725033986e-07
1.529611743e-07
1.322254371e-07
1.127289222e-07
9.659336e-08
9.721203964e-08
9.934793401e-08
1.01400476e-07
1.033797108e-07
1.053016167e-07
1.071845e-07
1.090452899e-07
1.108964972e-07
1.127445477e-07
1.145894794e-07
1.164257147e-07
1.182433899e-07
1.200297927e-07
1.217706616e-07
1.234512791e-07
1.250573441e-07
1.265755924e-07
1.279942266e-07
1.293033777e-07
1.304957201e-07
1.315676582e-07
1.356643516e-07
2.069440948e-07
7.273690116e-07
6.034089495e-06
1.454598239e-05
2.852201348e-05
8.964957645e-08
1.290514023e-07
1.606333646e-07
1.838080457e-07
1.982325112e-07
2.039078549e-07
2.012803073e-07
1.913183549e-07
1.755411047e-07
1.559645291e-07
1.349431298e-07
1.149042357e-07
9.800584217e-08
9.71391057e-08
9.928831665e-08
1.013540825e-07
1.033453547e-07
1.052773036e-07
1.071678361e-07
1.09033899e-07
1.108883492e-07
1.127381286e-07
1.145838076e-07
1.164202514e-07
1.182379066e-07
1.20024248e-07
1.217651106e-07
1.234458139e-07
1.25052057e-07
1.26570559e-07
1.279895124e-07
1.29299052e-07
1.304918902e-07
1.315644466e-07
1.387150802e-07
2.113419742e-07
9.141850104e-07
6.331983773e-06
1.502824334e-05
2.931543927e-05
8.971451473e-08
1.294008174e-07
1.613378764e-07
1.849281468e-07
1.998087799e-07
2.059492424e-07
2.037519446e-07
1.941310277e-07
1.785461129e-07
1.589577997e-07
1.376818479e-07
1.171367121e-07
9.951116533e-08
9.706625833e-08
9.92283921e-08
1.013071194e-07
1.033103167e-07
1.052523251e-07
1.071506133e-07
1.090220964e-07
1.108799358e-07
1.127315626e-07
1.145780703e-07
1.1641477e-07
1.182324282e-07
1.200187164e-07
1.217595732e-07
1.234403595e-07
1.250467773e-07
1.265655303e-07
1.279848022e-07
1.292947319e-07
1.30488067e-07
1.315612439e-07
1.418305073e-07
2.158313727e-07
1.105415802e-06
6.636840007e-06
1.552172791e-05
3.012725391e-05
8.97780963e-08
1.2974172e-07
1.620248963e-07
1.860207441e-07
2.013477839e-07
2.079456607e-07
2.061751603e-07
1.968983828e-07
1.815173579e-07
1.619381223e-07
1.404367507e-07
1.194197396e-07
1.011015983e-07
9.699354199e-08
9.916821189e-08
1.012596325e-07
1.032746309e-07
1.052267015e-07
1.071328389e-07
1.090098806e-07
1.108712512e-07
1.127248431e-07
1.145722621e-07
1.16409267e-07
1.182269526e-07
1.200131969e-07
1.217540491e-07
1.234349154e-07
1.250415052e-07
1.265605064e-07
1.279800961e-07
1.292904173e-07
1.304842506e-07
1.315580504e-07
1.450119168e-07
2.204140865e-07
1.30115776e-06
6.948817285e-06
1.602669021e-05
3.095787002e-05
8.984035241e-08
1.300744284e-07
1.626951065e-07
1.870868954e-07
2.028508711e-07
2.098985314e-07
2.085511004e-07
1.996208299e-07
1.844540128e-07
1.649030119e-07
1.432034983e-07
1.217472792e-07
1.027699535e-07
9.692099608e-08
9.91078154e-08
1.012116648e-07
1.032383308e-07
1.052004534e-07
1.07114521e-07
1.089972511e-07
1.108622898e-07
1.127179636e-07
1.145663774e-07
1.164037385e-07
1.182214777e-07
1.200076884e-07
1.217485375e-07
1.234294816e-07
1.250362405e-07
1.265554873e-07
1.279753941e-07
1.292861081e-07
1.304804408e-07
1.315548664e-07