/*--------------------------------*- C++ -*----------------------------------*\
| =========                 |                                                 |
| \\      /  F ield         | OpenFOAM: The Open Source CFD Toolbox           |
|  \\    /   O peration     | Version:  v2006                                 |
|   \\  /    A nd           | Website:  www.openfoam.com                      |
|    \\/     M anipulation  |                                                 |
\*---------------------------------------------------------------------------*/
FoamFile
{
    version     2.0;
    format      ascii;
    class       volScalarField;
    location    "0.09";
    object      H;
}
// * * * * * * * * * * * * * * * * * * * * * * * * * * * * * * * * * * * * * //

dimensions      [0 0 0 0 0 0 0];


internalField   nonuniform List<scalar> 
168000
(
6.462939827e-18
1.289762544e-17
1.899205105e-17
2.591020363e-17
3.276849783e-17
3.886645731e-17
4.516231363e-17
5.144549274e-17
5.572493682e-17
5.909735342e-17
6.198151411e-17
6.287793433e-17
6.223741987e-17
6.09037106e-17
5.736617468e-17
5.263115801e-17
4.696178641e-17
3.949625948e-17
3.130655018e-17
2.213110695e-17
1.221249231e-17
2.092609344e-18
2.056156927e-19
2.089402535e-19
2.122621002e-19
2.154747825e-19
2.186830836e-19
2.216597838e-19
2.245913977e-19
2.273146779e-19
2.298389583e-19
2.322242596e-19
2.343436887e-19
2.362211198e-19
2.379088575e-19
2.393910655e-19
8.858272911e-19
3.470433663e-17
9.535103885e-13
4.281074812e-12
6.826925216e-18
1.312784618e-17
1.666011193e-17
2.053522266e-17
2.527603711e-17
3.068796128e-17
3.684589247e-17
4.329453892e-17
4.888413962e-17
5.362531187e-17
5.745466269e-17
5.95791677e-17
6.004067413e-17
5.916847597e-17
5.636304083e-17
5.205326597e-17
4.646985685e-17
3.93628022e-17
3.116084735e-17
2.211131023e-17
1.222538841e-17
2.112721561e-18
2.056024188e-19
2.089313809e-19
2.122474879e-19
2.15469233e-19
2.186644336e-19
2.216549315e-19
2.245787856e-19
2.273043264e-19
2.29833406e-19
2.322136397e-19
2.343353587e-19
2.362162636e-19
2.379041358e-19
2.393857742e-19
2.213042074e-18
3.659228865e-17
1.058730484e-12
4.457624224e-12
6.471341538e-18
1.307836543e-17
1.553298802e-17
1.736952512e-17
2.013010395e-17
2.424096215e-17
2.968798716e-17
3.597960358e-17
4.222507916e-17
4.793924362e-17
5.271569314e-17
5.593919785e-17
5.742278825e-17
5.722832597e-17
5.511001798e-17
5.127345834e-17
4.592763012e-17
3.909136845e-17
3.100340382e-17
2.204522151e-17
1.222735174e-17
2.123781289e-18
2.055898458e-19
2.08921779e-19
2.122339285e-19
2.154621973e-19
2.186475365e-19
2.216487823e-19
2.245667365e-19
2.272941354e-19
2.298273374e-19
2.322033807e-19
2.34327106e-19
2.362112625e-19
2.378993854e-19
2.39380588e-19
3.557749977e-18
3.852191179e-17
1.166582338e-12
4.638168118e-12
6.215805925e-18
1.304432473e-17
1.513576059e-17
1.570022438e-17
1.680022948e-17
1.94215012e-17
2.379655863e-17
2.956711799e-17
3.596798116e-17
4.228124373e-17
4.785642803e-17
5.204412681e-17
5.448298907e-17
5.505664604e-17
5.362840312e-17
5.030908619e-17
4.529421433e-17
3.872675844e-17
3.080777513e-17
2.194491973e-17
1.221343934e-17
2.126866612e-18
2.055777578e-19
2.08911686e-19
2.122211194e-19
2.154540631e-19
2.186319899e-19
2.216416321e-19
2.24555126e-19
2.272840854e-19
2.29820835e-19
2.321934262e-19
2.343189309e-19
2.362061325e-19
2.378946078e-19
2.393755003e-19
4.922077649e-18
4.049332975e-17
1.27710573e-12
4.822846063e-12
6.087761732e-18
1.311814107e-17
1.519549286e-17
1.50279611e-17
1.48356538e-17
1.601318858e-17
1.913998345e-17
2.409510456e-17
3.02577525e-17
3.68260436e-17
4.29864417e-17
4.798385305e-17
5.129822251e-17
5.266265686e-17
5.193573661e-17
4.917141745e-17
4.455077201e-17
3.827462982e-17
3.056084408e-17
2.181134477e-17
1.217523307e-17
2.121775945e-18
2.055660109e-19
2.08901267e-19
2.122088434e-19
2.154451205e-19
2.186174851e-19
2.216337102e-19
2.245438581e-19
2.272741582e-19
2.298139684e-19
2.321837296e-19
2.343108324e-19
2.362008881e-19
2.378898048e-19
2.393705052e-19
6.307865916e-18
4.25068155e-17
1.390345558e-12
5.011792958e-12
6.040570822e-18
1.330038843e-17
1.55483379e-17
1.501576084e-17
1.387503479e-17
1.376937769e-17
1.560664691e-17
1.955386348e-17
2.517854881e-17
3.169819519e-17
3.820971478e-17
4.3845442e-17
4.793645031e-17
5.007270793e-17
5.005057481e-17
4.786977627e-17
4.3689514e-17
3.77355522e-17
3.025556358e-17
2.164191316e-17
1.211236608e-17
2.104928981e-18
2.055545089e-19
2.088906364e-19
2.121969458e-19
2.154355856e-19
2.186037858e-19
2.21625194e-19
2.245328588e-19
2.272643368e-19
2.298067962e-19
2.321742521e-19
2.343028082e-19
2.361955421e-19
2.378849782e-19
2.393655973e-19
7.71672774e-18
4.456276493e-17
1.506351178e-12
5.20514027e-12
6.044897649e-18
1.356547333e-17
1.608672672e-17
1.543403821e-17
1.36408841e-17
1.245614639e-17
1.305598972e-17
1.589648103e-17
2.0766418e-17
2.698157356e-17
3.361468794e-17
3.970867096e-17
4.446050622e-17
4.732131556e-17
4.799376533e-17
4.641414377e-17
4.270864155e-17
3.710837217e-17
2.988787253e-17
2.143469132e-17
1.202300527e-17
2.075186678e-18
2.055431889e-19
2.088798731e-19
2.121853172e-19
2.154256199e-19
2.185907108e-19
2.216162208e-19
2.245220713e-19
2.272546057e-19
2.297993677e-19
2.321649612e-19
2.342948554e-19
2.361901063e-19
2.378801302e-19
2.393607718e-19
9.150094803e-18
4.666167607e-17
1.625175896e-12
5.403017078e-12
6.083677031e-18
1.38884858e-17
1.674227226e-17
1.613873874e-17
1.391987358e-17
1.186990747e-17
1.133827924e-17
1.304523856e-17
1.70203906e-17
2.272658376e-17
2.927089677e-17
3.56433843e-17
4.092873747e-17
4.444596304e-17
4.578839578e-17
4.481609502e-17
4.161003093e-17
3.639215004e-17
2.945519263e-17
2.118633338e-17
1.190547017e-17
2.030574614e-18
2.055320083e-19
2.088690315e-19
2.121738806e-19
2.154153432e-19
2.185781214e-19
2.21606897e-19
2.245114518e-19
2.272449513e-19
2.297917247e-19
2.321558302e-19
2.342869704e-19
2.361845912e-19
2.378752627e-19
2.393560247e-19
1.060925497e-17
4.880413194e-17
1.746876534e-12
5.605550963e-12
6.145738411e-18
1.424925512e-17
1.746840889e-17
1.70264989e-17
1.457139824e-17
1.184525704e-17
1.031217759e-17
1.091398714e-17
1.391563348e-17
1.895694652e-17
2.522892846e-17
3.170807307e-17
3.739387393e-17
4.148484143e-17
4.345914185e-17
4.308891692e-17
4.039810611e-17
3.558691878e-17
2.895595217e-17
2.089419015e-17
1.175820921e-17
1.969259028e-18
2.055209441e-19
2.088581496e-19
2.121625825e-19
2.154048446e-19
2.185659115e-19
2.21597305e-19
2.245009664e-19
2.272353616e-19
2.297839021e-19
2.321468366e-19
2.342791495e-19
2.361790061e-19
2.378703781e-19
2.393513523e-19
1.209538265e-17
5.099078783e-17
1.871513085e-12
5.812868742e-12
6.223355999e-18
1.463272454e-17
1.823367494e-17
1.802821483e-17
1.547612274e-17
1.223618589e-17
9.850201337e-18
9.411160646e-18
1.140796831e-17
1.567537788e-17
2.152204371e-17
2.794956604e-17
3.390239713e-17
3.847496627e-17
4.10314978e-17
4.124734528e-17
3.907920955e-17
3.469391669e-17
2.838939074e-17
2.055604304e-17
1.157907429e-17
1.889460701e-18
2.055099829e-19
2.08847254e-19
2.12151386e-19
2.153941904e-19
2.185539995e-19
2.215875088e-19
2.244905887e-19
2.272258263e-19
2.297759295e-19
2.321379617e-19
2.34271389e-19
2.361733594e-19
2.378654785e-19
2.393467511e-19
1.360956333e-17
5.322236114e-17
1.999148428e-12
6.025097084e-12
6.311106256e-18
1.502807022e-17
1.901688166e-17
1.909751005e-17
1.655653031e-17
1.295522484e-17
9.846326659e-18
8.4487266e-18
9.446804885e-18
1.286959462e-17
1.816872236e-17
2.4403515e-17
3.049418165e-17
3.545096793e-17
3.85309259e-17
3.930715876e-17
3.766117824e-17
3.371558887e-17
2.775549812e-17
2.017028092e-17
1.136745733e-17
1.789546193e-18
2.054991077e-19
2.088363629e-19
2.121402662e-19
2.153834297e-19
2.185423231e-19
2.21577558e-19
2.244802983e-19
2.272163364e-19
2.297678317e-19
2.321291898e-19
2.34263685e-19
2.361676588e-19
2.378605662e-19
2.393422185e-19
1.515281352e-17
5.549962474e-17
2.129848117e-12
6.242363046e-12
6.405168789e-18
1.542763871e-17
1.980364134e-17
2.020221228e-17
1.775305316e-17
1.390832561e-17
1.019767534e-17
7.94430057e-18
7.976863072e-18
1.051868459e-17
1.517547269e-17
2.109536406e-17
2.72023914e-17
3.244461043e-17
3.598181291e-17
3.728480117e-17
3.615300709e-17
3.265548722e-17
2.705497393e-17
1.973578327e-17
1.11217802e-17
1.668111448e-18
2.054883155e-19
2.088254886e-19
2.121292063e-19
2.153725988e-19
2.185308344e-19
2.215674912e-19
2.244700794e-19
2.272068845e-19
2.297596297e-19
2.321205075e-19
2.342560338e-19
2.361619109e-19
2.378556432e-19
2.393377518e-19
1.672609766e-17
5.782340388e-17
2.263680221e-12
6.464794516e-12
6.502845431e-18
1.582608827e-17
2.058424591e-17
2.132023695e-17
1.902340914e-17
1.503488935e-17
1.084568233e-17
7.827346962e-18
6.942472824e-18
8.590611831e-18
1.253885048e-17
1.804153476e-17
2.405360696e-17
2.948377198e-17
3.340759892e-17
3.51969188e-17
3.456454123e-17
3.151812627e-17
2.628919342e-17
1.925195157e-17
1.084100364e-17
1.523924108e-18
2.05477603e-19
2.088146387e-19
2.121181955e-19
2.153617248e-19
2.185194967e-19
2.215573383e-19
2.244599196e-19
2.271974643e-19
2.297513411e-19
2.321119038e-19
2.342484318e-19
2.361561219e-19
2.378507116e-19
2.393333489e-19
1.833034232e-17
6.019457871e-17
2.400715217e-12
6.692520612e-12
6.602227955e-18
1.621974568e-17
2.135221007e-17
2.24363737e-17
2.033667108e-17
1.628504142e-17
1.171707409e-17
8.023885845e-18
6.289723988e-18
7.053705077e-18
1.024862115e-17
1.525088066e-17
2.106827374e-17
2.659252185e-17
3.0830077e-17
3.306000033e-17
3.290619066e-17
3.030882222e-17
2.546016272e-17
1.871868754e-17
1.052431337e-17
1.355738598e-18
2.054669692e-19
2.088038308e-19
2.121072276e-19
2.15350828e-19
2.185082817e-19
2.215471228e-19
2.24449809e-19
2.271880707e-19
2.297429808e-19
2.321033692e-19
2.342408756e-19
2.361502972e-19
2.378457737e-19
2.39329008e-19
1.996644818e-17
6.261409637e-17
2.541025951e-12
6.925672016e-12
6.701966117e-18
1.660612711e-17
2.210329771e-17
2.354022821e-17
2.167045746e-17
1.76212783e-17
1.276392716e-17
8.494097727e-18
5.971125457e-18
5.873725616e-18
8.290717451e-18
1.272609666e-17
1.826129322e-17
2.379114728e-17
2.826904399e-17
3.089009366e-17
3.11886581e-17
2.903352942e-17
2.457046244e-17
1.813636719e-17
1.017115839e-17
1.162629584e-18
2.054564128e-19
2.087930581e-19
2.120962987e-19
2.153399232e-19
2.184971678e-19
2.215368629e-19
2.244397401e-19
2.271786994e-19
2.297345613e-19
2.320948958e-19
2.342333619e-19
2.361444417e-19
2.378408313e-19
2.393247275e-19
2.163529872e-17
6.508300028e-17
2.684687658e-12
7.164381288e-12
6.801107672e-18
1.698360056e-17
2.283484337e-17
2.462478503e-17
2.300855176e-17
1.901464522e-17
1.394462474e-17
9.181367973e-18
5.941259672e-18
5.015757186e-18
6.644770888e-18
1.046460075e-17
1.564265469e-17
2.109629964e-17
2.574234871e-17
2.870228023e-17
2.942273453e-17
2.769868526e-17
2.362318187e-17
1.750580893e-17
9.781265075e-18
9.439770247e-19
2.054459332e-19
2.08782329e-19
2.120854068e-19
2.153290216e-19
2.184861384e-19
2.215265726e-19
2.244297068e-19
2.271693468e-19
2.297260932e-19
2.320864767e-19
2.342258879e-19
2.361385598e-19
2.378358864e-19
2.393205059e-19
2.333776004e-17
3.276875318e-15
2.831778097e-12
7.408783155e-12
6.898986381e-18
1.735114364e-17
2.354528246e-17
2.568542081e-17
2.433927471e-17
2.044299173e-17
1.522595175e-17
1.004484352e-17
6.14845725e-18
4.445640811e-18
5.29104078e-18
8.460166685e-18
1.321816957e-17
1.852122008e-17
2.32658071e-17
2.651048482e-17
2.761911325e-17
2.631106405e-17
2.262184649e-17
1.682823518e-17
9.354612732e-18
6.990702997e-19
2.054355301e-19
2.087716465e-19
2.120745511e-19
2.153181316e-19
2.184751806e-19
2.215162631e-19
2.244197046e-19
2.271600099e-19
2.297175855e-19
2.320781063e-19
2.342184508e-19
2.361326555e-19
2.37830941e-19
2.393163421e-19
2.507466047e-17
9.546282975e-14
2.982377803e-12
7.659014749e-12
6.995142171e-18
1.770816611e-17
2.423382576e-17
2.671921486e-17
2.56543021e-17
2.188948867e-17
1.658175057e-17
1.105328532e-17
6.576273179e-18
4.134269414e-18
4.208294681e-18
6.703654838e-18
1.099014706e-17
1.607599198e-17
2.085281758e-17
2.432778965e-17
2.578821261e-17
2.487764038e-17
2.157034199e-17
1.610523244e-17
8.891440561e-18
4.274706842e-19
2.054252024e-19
2.087610132e-19
2.120637316e-19
2.153072593e-19
2.184642847e-19
2.215059431e-19
2.244097299e-19
2.271506861e-19
2.297090455e-19
2.320697796e-19
2.342110479e-19
2.361267324e-19
2.378259966e-19
2.393122351e-19
2.68468572e-17
1.898670317e-13
3.136570085e-12
7.915215623e-12
7.089265339e-18
1.80543884e-17
2.490022202e-17
2.772445534e-17
2.694777056e-17
2.334129143e-17
1.799071176e-17
1.217733851e-17
7.182138115e-18
4.051843303e-18
3.374827703e-18
5.185180243e-18
8.958087749e-18
1.376788284e-17
1.851468371e-17
2.216608546e-17
2.394004401e-17
2.340546567e-17
2.047283776e-17
1.533870906e-17
8.392237594e-18
2.020705174e-19
2.054149491e-19
2.087504306e-19
2.120529471e-19
2.152964096e-19
2.18453443e-19
2.214956193e-19
2.243997798e-19
2.271413739e-19
2.297004797e-19
2.320614924e-19
2.342036769e-19
2.361207935e-19
2.378210552e-19
2.393081838e-19
2.865519725e-17
2.865383803e-13
3.294439832e-12
8.177527659e-12
7.181155766e-18
1.83897502e-17
2.554459295e-17
2.870028925e-17
2.821563611e-17
2.478864482e-17
1.943573748e-17
1.339287178e-17
7.938197287e-18
4.164473516e-18
2.768627864e-18
3.890408327e-18
7.118875076e-18
1.160166002e-17
1.626073741e-17
2.003599895e-17
2.208411681e-17
2.190155692e-17
1.933371178e-17
1.453085195e-17
7.857726616e-18
2.020608318e-19
2.054047685e-19
2.087399007e-19
2.120422055e-19
2.152855861e-19
2.184426499e-19
2.214852971e-19
2.243898517e-19
2.271320716e-19
2.296918934e-19
2.320532409e-19
2.341963357e-19
2.361148418e-19
2.378161183e-19
2.393041875e-19
3.050052013e-17
3.855273628e-13
3.456073593e-12
8.446094498e-12
7.270693218e-18
1.871434461e-17
2.616731526e-17
2.964647288e-17
2.945520691e-17
2.622420056e-17
2.09032109e-17
1.468013683e-17
8.822088191e-18
4.460044346e-18
2.370626217e-18
2.807176353e-18
5.46778224e-18
9.579972724e-18
1.409847821e-17
1.794686886e-17
2.022939144e-17
2.03727927e-17
1.815747942e-17
1.368408302e-17
7.288842362e-18
2.020512154e-19
2.053946586e-19
2.087294242e-19
2.120315005e-19
2.152747917e-19
2.184319009e-19
2.214749806e-19
2.243799439e-19
2.271227783e-19
2.29683291e-19
2.320450221e-19
2.341890223e-19
2.361088798e-19
2.378111876e-19
2.393002456e-19
3.23836608e-17
4.868860308e-13
3.621559795e-12
8.721060139e-12
7.357815669e-18
1.902837063e-17
2.67689362e-17
3.056319226e-17
3.066479504e-17
2.764247052e-17
2.238226094e-17
1.602251401e-17
9.812496308e-18
4.909732973e-18
2.161019799e-18
1.921848788e-18
3.998629251e-18
7.703670959e-18
1.203374846e-17
1.590691961e-17
1.83840569e-17
1.882583524e-17
1.69487294e-17
1.28010171e-17
6.686720396e-18
2.02041659e-19
2.053846161e-19
2.087190015e-19
2.120208356e-19
2.152640283e-19
2.184211926e-19
2.214646731e-19
2.243700548e-19
2.271134932e-19
2.296746763e-19
2.320368331e-19
2.34181735e-19
2.3610291e-19
2.378062646e-19
1.287511769e-18
3.430545225e-17
5.906679275e-13
3.790988549e-12
9.002574774e-12
7.44250346e-18
1.933209871e-17
2.73501122e-17
3.145093442e-17
3.184345703e-17
2.903940939e-17
2.386423441e-17
1.740615027e-17
1.089120903e-17
5.493874861e-18
2.12177766e-18
1.220652971e-18
2.704528214e-18
5.972126988e-18
1.007090126e-17
1.392333474e-17
1.655542277e-17
1.726710931e-17
1.571206882e-17
1.188442142e-17
6.052673416e-18
2.02032152e-19
2.053746377e-19
2.087086326e-19
2.120102118e-19
2.152532976e-19
2.184105225e-19
2.214543771e-19
2.243601831e-19
2.271042157e-19
2.296660526e-19
2.320286718e-19
2.341744721e-19
2.360969344e-19
2.378013507e-19
2.621074504e-18
3.626673033e-17
6.969280776e-13
3.964451877e-12
9.290792974e-12
7.524767604e-18
1.962584625e-17
2.791156792e-17
3.231038652e-17
3.299080362e-17
3.041209481e-17
2.534227804e-17
1.88195548e-17
1.20426011e-17
6.194199377e-18
2.228589629e-18
6.896483668e-19
1.577467908e-18
4.383434685e-18
8.212932829e-18
1.200208699e-17
1.475020739e-17
1.570271531e-17
1.44520702e-17
1.093717687e-17
5.388169329e-18
2.020226828e-19
2.053647191e-19
2.086983172e-19
2.119996299e-19
2.15242601e-19
2.183998886e-19
2.214440947e-19
2.243503281e-19
2.270949453e-19
2.296574225e-19
2.320205358e-19
2.341672321e-19
2.36090955e-19
2.377964475e-19
3.98280414e-18
3.826833483e-17
8.057229637e-13
4.142043855e-12
9.585872719e-12
7.604641333e-18
1.990995982e-17
2.845406658e-17
3.314236934e-17
3.410685125e-17
3.175847792e-17
2.681099744e-17
2.025324284e-17
1.325351786e-17
6.996606691e-18
2.47914837e-18
3.172274028e-19
6.090603272e-19
2.934676342e-18
6.461638526e-18
1.014800642e-17
1.297454256e-17
1.413841013e-17
1.317322737e-17
9.96224172e-18
4.694809351e-18
2.02013239e-19
2.053548555e-19
2.086880543e-19
2.119890904e-19
2.152319393e-19
2.183892893e-19
2.214338274e-19
2.24340489e-19
2.270856817e-19
2.296487884e-19
2.320124235e-19
2.341600137e-19
2.360849736e-19
2.377915562e-19
5.373279213e-18
4.031111126e-17
9.171105151e-13
4.323860673e-12
9.887975491e-12
7.682173267e-18
2.01848012e-17
2.897838417e-17
3.394779026e-17
3.519191317e-17
3.307718671e-17
2.826616706e-17
2.169934283e-17
1.451246738e-17
7.886654504e-18
2.851885472e-18
1.684666135e-19
1.721702773e-19
1.622163804e-18
4.817786437e-18
8.364997145e-18
1.123384865e-17
1.257957687e-17
1.187991752e-17
8.962618143e-18
3.974306018e-18
2.020038071e-19
2.053450413e-19
2.086778428e-19
2.119785938e-19
2.152213132e-19
2.183787235e-19
2.214235766e-19
2.243306652e-19
2.270764248e-19
2.296401522e-19
2.320043333e-19
2.341528158e-19
2.360789916e-19
2.377866782e-19
6.793088217e-18
4.239591208e-17
1.031150106e-12
4.510000679e-12
1.019726639e-11
7.757422745e-18
2.045073801e-17
2.948529501e-17
3.472760498e-17
3.624651658e-17
3.43673732e-17
2.970450311e-17
2.315133383e-17
1.580954923e-17
8.851791946e-18
3.333889665e-18
1.682714901e-19
1.720155517e-19
4.415709077e-19
3.281268164e-18
6.65610871e-18
9.532866441e-18
1.103121035e-17
1.057636933e-17
7.941321666e-18
3.22846217e-18
2.019943727e-19
2.053352704e-19
2.086676809e-19
2.119681402e-19
2.152107234e-19
2.183681904e-19
2.214133432e-19
2.243208563e-19
2.270671744e-19
2.296315154e-19
2.319962636e-19
2.341456372e-19
2.360730107e-19
2.377818148e-19
8.242829474e-18
4.452359819e-17
1.147902564e-12
4.700564441e-12
1.051391421e-11
7.830456138e-18
2.070813695e-17
2.997556201e-17
3.548278969e-17
3.727133994e-17
3.562859499e-17
3.112348434e-17
2.460383345e-17
1.713627869e-17
9.880995375e-18
3.912956894e-18
1.680764609e-19
1.718592464e-19
1.754696154e-19
1.851250511e-18
5.023617054e-18
7.875686866e-18
9.497917162e-18
9.266636478e-18
6.901353537e-18
2.459150511e-18
2.019849211e-19
2.053255358e-19
2.086575665e-19
2.119577294e-19
2.152001694e-19
2.183576891e-19
2.21403128e-19
2.243110618e-19
2.270579306e-19
2.296228794e-19
2.319882133e-19
2.34138477e-19
2.360670322e-19
2.377769672e-19
9.723111463e-18
4.66950397e-17
1.267430176e-12
4.895654791e-12
1.08380916e-11
7.901344122e-18
2.09573585e-17
3.044992544e-17
3.621432565e-17
3.826716634e-17
3.686072279e-17
3.252120789e-17
2.605241773e-17
1.848541091e-17
1.096465306e-17
4.578610422e-18
1.678818456e-19
1.717016788e-19
1.753489499e-19
5.263867537e-19
3.469105537e-18
6.265773538e-18
7.983933699e-18
7.954573024e-18
5.845676078e-18
1.668294189e-18
2.019754368e-19
2.053158303e-19
2.08647497e-19
2.119473611e-19
2.151896511e-19
2.183472192e-19
2.213929317e-19
2.243012815e-19
2.270486934e-19
2.296142455e-19
2.319801813e-19
2.341313344e-19
2.360610574e-19
2.377721366e-19
1.123455297e-17
4.891111702e-17
1.389796708e-12
5.09537688e-12
1.116997512e-11
7.970159691e-18
2.1198754e-17
3.090910106e-17
3.692318244e-17
3.923484728e-17
3.806386782e-17
3.389627151e-17
2.749346389e-17
1.985075531e-17
1.209429749e-17
5.321197431e-18
4.102683226e-19
1.71543141e-19
1.752262402e-19
1.787544842e-19
1.993526309e-18
4.706045815e-18
6.493091447e-18
6.643803338e-18
4.777191538e-18
8.578488137e-19
2.019659037e-19
2.053061459e-19
2.086374695e-19
2.11937035e-19
2.151791734e-19
2.183367803e-19
2.213827546e-19
2.242915153e-19
2.270394629e-19
2.296056145e-19
2.319721665e-19
2.341242085e-19
2.360550874e-19
2.377673243e-19
1.277778339e-17
5.117272152e-17
1.515067413e-12
5.299838233e-12
1.150974535e-11
8.03697681e-18
2.143266378e-17
3.13537775e-17
3.76103081e-17
4.017527554e-17
3.923832441e-17
3.524767741e-17
2.892401684e-17
2.122701512e-17
1.326241876e-17
6.131640975e-18
7.474594673e-19
1.713838963e-19
1.751017252e-19
1.786624749e-19
5.973299157e-19
3.199032582e-18
5.028664526e-18
5.337744994e-18
3.698727455e-18
1.986247618e-19
2.019563056e-19
2.052964741e-19
2.086274807e-19
2.119267501e-19
2.151687303e-19
2.183263722e-19
2.213725973e-19
2.242817629e-19
2.270302392e-19
2.295969873e-19
2.319641681e-19
2.341170987e-19
2.360491233e-19
2.377625314e-19
1.435344305e-17
5.348075641e-17
1.643309057e-12
5.509148803e-12
1.185758703e-11
8.101869252e-18
2.165941569e-17
3.178461407e-17
3.827662301e-17
4.108936489e-17
4.038452496e-17
3.65747544e-17
3.034168004e-17
2.260966472e-17
1.446239125e-17
7.001775902e-18
1.169204443e-18
1.712241892e-19
1.749756325e-19
1.785683101e-19
1.820294835e-19
1.74676721e-18
3.593558794e-18
4.039589161e-18
2.613019165e-18
1.986142086e-19
2.019466257e-19
2.052868061e-19
2.086175266e-19
2.119165052e-19
2.151583237e-19
2.183159944e-19
2.213624599e-19
2.242720243e-19
2.270210225e-19
2.295883646e-19
2.319561853e-19
2.341100045e-19
2.360431662e-19
2.37757759e-19
1.596218362e-17
5.583613758e-17
1.774589938e-12
5.723421022e-12
1.221368914e-11
8.164909879e-18
2.187932416e-17
3.220223985e-17
3.892301578e-17
4.197803504e-17
4.150300451e-17
3.787709506e-17
3.17445258e-17
2.399484748e-17
1.568838992e-17
7.924255616e-18
1.667546577e-18
1.710642436e-19
1.748481738e-19
1.784721593e-19
1.819608795e-19
3.507679867e-19
2.190431739e-18
2.752300116e-18
1.522688554e-18
1.986033743e-19
2.019368473e-19
2.052771326e-19
2.086076033e-19
2.11906299e-19
2.151479532e-19
2.183056465e-19
2.213523428e-19
2.242622994e-19
2.270118129e-19
2.29579747e-19
2.319482174e-19
2.341029252e-19
2.36037217e-19
2.377530085e-19
1.760466877e-17
5.823979479e-17
1.908979911e-12
5.942769863e-12
1.257824504e-11
8.226169996e-18
2.20926899e-17
3.260725365e-17
3.955034075e-17
4.284220043e-17
4.259437292e-17
3.915450458e-17
3.313102042e-17
2.537928774e-17
1.693531276e-17
8.892506629e-18
2.234975635e-18
1.709041772e-19
1.747195391e-19
1.783741852e-19
1.818902554e-19
1.853016393e-19
8.21632309e-19
1.478618446e-18
4.302462266e-19
1.98592235e-19
2.01926954e-19
2.05267444e-19
2.085977061e-19
2.118961299e-19
2.151376183e-19
2.182953285e-19
2.213422461e-19
2.24252588e-19
2.270026105e-19
2.29571135e-19
2.319402637e-19
2.340958605e-19
2.360312767e-19
2.37748281e-19
1.928157496e-17
6.069267349e-17
2.046550421e-12
6.167312899e-12
1.295145255e-11
8.285718993e-18
2.22997997e-17
3.300022436e-17
4.015941641e-17
4.368276225e-17
4.365929274e-17
4.04069589e-17
3.449996077e-17
2.676021177e-17
1.819870611e-17
9.900775462e-18
2.865970342e-18
1.707442786e-19
1.745899206e-19
1.782745429e-19
1.81817719e-19
1.852514962e-19
1.88613415e-19
2.210598039e-19
1.952561398e-19
1.985807675e-19
2.019169289e-19
2.052577303e-19
2.085878303e-19
2.11885996e-19
2.151273184e-19
2.182850398e-19
2.213321699e-19
2.242428903e-19
2.269934155e-19
2.295625289e-19
2.319323236e-19
2.340888099e-19
2.360253461e-19
2.377435775e-19
2.09935926e-17
6.319573798e-17
2.187374543e-12
6.39717036e-12
1.333351409e-11
8.343624061e-18
2.250092661e-17
3.338169159e-17
4.075102468e-17
4.450060302e-17
4.469846168e-17
4.163457006e-17
3.585041933e-17
2.813527203e-17
1.947465006e-17
1.09437561e-17
3.554083226e-18
1.705846564e-19
1.744594904e-19
1.781733871e-19
1.817433776e-19
1.851996133e-19
1.885786688e-19
1.919161488e-19
1.952404687e-19
1.985689501e-19
2.019067558e-19
2.052479815e-19
2.085779708e-19
2.118758952e-19
2.151170528e-19
2.182747802e-19
2.213221143e-19
2.242332062e-19
2.26984228e-19
2.295539291e-19
2.319243967e-19
2.34081773e-19
2.360194261e-19
2.377388994e-19
2.274142775e-17
6.574997769e-17
2.331527038e-12
6.632465213e-12
1.37246368e-11
8.399950049e-18
2.269633034e-17
3.375216674e-17
4.132590953e-17
4.529658371e-17
4.571259869e-17
4.283755792e-17
3.718169855e-17
2.950248613e-17
2.075969612e-17
1.201664561e-17
4.293553525e-18
1.704254512e-19
1.743284096e-19
1.7807086e-19
1.816673371e-19
1.851460509e-19
1.885425035e-19
1.918921734e-19
1.952241247e-19
1.98556762e-19
2.018964183e-19
2.052381872e-19
2.085681221e-19
2.118658252e-19
2.151068207e-19
2.182645494e-19
2.213120793e-19
2.242235357e-19
2.269750482e-19
2.295453357e-19
2.319164825e-19
2.340747496e-19
2.360135174e-19
2.377342478e-19
2.452580398e-17
6.83564191e-17
2.479084443e-12
6.873323236e-12
1.412503268e-11
8.454759388e-18
2.288625781e-17
3.411213509e-17
4.188478343e-17
4.607153175e-17
4.670243503e-17
4.401622733e-17
3.849329303e-17
3.086018674e-17
2.205081788e-17
1.31151264e-17
5.079167104e-18
1.7026679e-19
1.741968283e-19
1.779670989e-19
1.815897014e-19
1.850908707e-19
1.885049425e-19
1.918671485e-19
1.952070907e-19
1.985441837e-19
2.018859005e-19
2.052283369e-19
2.085582786e-19
2.118557834e-19
2.150966209e-19
2.182543468e-19
2.213020649e-19
2.242138788e-19
2.269658764e-19
2.295367491e-19
2.319085805e-19
2.340677395e-19
2.360076209e-19
2.377296238e-19
2.634746364e-17
7.101614941e-17
2.630125181e-12
7.119873123e-12
1.453491872e-11
8.508112025e-18
2.307094354e-17
3.446205649e-17
4.24283245e-17
4.682624673e-17
4.766870335e-17
4.517094907e-17
3.978485818e-17
3.220697962e-17
2.334536644e-17
1.423532715e-17
5.906159904e-18
1.701087845e-19
1.740648877e-19
1.778622319e-19
1.815105719e-19
1.850341355e-19
1.88466012e-19
1.918410736e-19
1.95189352e-19
1.985311969e-19
2.018751869e-19
2.052184202e-19
2.085484344e-19
2.118457671e-19
2.150864524e-19
2.182441721e-19
2.21292071e-19
2.242042353e-19
2.269567128e-19
2.295281693e-19
2.319006903e-19
2.340607423e-19
2.360017372e-19
2.377250288e-19
2.820716405e-17
7.373036285e-17
2.784729752e-12
7.372246606e-12
1.495451704e-11
8.560065443e-18
2.325061015e-17
3.480236616e-17
4.295717649e-17
4.756150003e-17
4.861213229e-17
4.630214472e-17
4.105618392e-17
3.354170725e-17
2.464102965e-17
1.537378693e-17
6.770197572e-18
1.699515278e-19
1.739326506e-19
1.777563746e-19
1.814300465e-19
1.849759092e-19
1.884257408e-19
1.918139509e-19
1.951708962e-19
1.985177845e-19
2.018642622e-19
2.052084264e-19
2.085385834e-19
2.118357732e-19
2.150763139e-19
2.182340248e-19
2.212820975e-19
2.241946052e-19
2.269475574e-19
2.295195966e-19
2.318928115e-19
2.340537579e-19
2.35995867e-19
2.377204638e-19
3.010565653e-17
3.911415418e-14
2.942981011e-12
7.630578616e-12
1.538405501e-11
8.610674635e-18
2.342546879e-17
3.513347606e-17
4.347195096e-17
4.827803336e-17
4.95334417e-17
4.741027419e-17
4.230717249e-17
3.486341681e-17
2.593579355e-17
1.652742107e-17
7.667436361e-18
2.565502805e-19
1.738003189e-19
1.7764965e-19
1.813482212e-19
1.849162554e-19
1.8838416e-19
1.917857855e-19
1.951517128e-19
1.985039305e-19
2.018531119e-19
2.051983451e-19
2.085287192e-19
2.118257987e-19
2.15066204e-19
2.182239043e-19
2.212721444e-19
2.241849885e-19
2.269384105e-19
2.295110311e-19
2.318849439e-19
2.340467861e-19
2.359900111e-19
3.08596185e-19
3.204370176e-17
1.39908138e-13
3.104964518e-12
7.895007401e-12
1.582376541e-11
8.659992164e-18
2.359571971e-17
3.545577623e-17
4.397322908e-17
4.897655813e-17
5.043333892e-17
4.849582559e-17
4.353781928e-17
3.617133124e-17
2.722790311e-17
1.769345601e-17
8.594269937e-18
8.470535385e-19
1.736679587e-19
1.775421676e-19
1.812651872e-19
1.84855238e-19
1.883413022e-19
1.91756585e-19
1.951317936e-19
1.984896206e-19
2.018417218e-19
2.051881657e-19
2.085188356e-19
2.118158402e-19
2.150561212e-19
2.1821381e-19
2.212622114e-19
2.241753852e-19
2.26929272e-19
2.295024728e-19
2.31877087e-19
2.340398268e-19
2.359841702e-19
1.678741962e-18
3.402210456e-17
2.431082209e-13
3.270768199e-12
8.165674552e-12
1.627388655e-11
8.70806819e-18
2.376155282e-17
3.576963608e-17
4.446156402e-17
4.965775498e-17
5.1312516e-17
4.955930678e-17
4.474819677e-17
3.74648245e-17
2.851582986e-17
1.886939729e-17
9.547358975e-18
1.479875397e-18
1.735356668e-19
1.774340302e-19
1.81181036e-19
1.847929209e-19
1.882972017e-19
1.917263591e-19
1.951111321e-19
1.984748413e-19
2.018300783e-19
2.051778778e-19
2.08508926e-19
2.118058943e-19
2.150460639e-19
2.182037413e-19
2.212522984e-19
2.241657951e-19
2.269201421e-19
2.294939219e-19
2.318692407e-19
2.340328798e-19
2.359783448e-19
3.077937771e-18
3.604167746e-17
3.487666656e-13
3.440481456e-12
8.442725009e-12
1.673466234e-11
8.754950597e-18
2.392314809e-17
3.607540482e-17
4.493747837e-17
5.032227825e-17
5.21716482e-17
5.060123863e-17
4.593844074e-17
3.874340028e-17
2.979824516e-17
2.005300478e-17
1.052365017e-17
2.15146038e-18
1.734035321e-19
1.773253356e-19
1.810958516e-19
1.847293669e-19
1.882518943e-19
1.916951194e-19
1.950897239e-19
1.984595807e-19
2.018181686e-19
2.051674713e-19
2.084989836e-19
2.117959573e-19
2.150360304e-19
2.181936973e-19
2.212424048e-19
2.241562185e-19
2.269110207e-19
2.294853783e-19
2.318614046e-19
2.340259451e-19
2.359725355e-19
4.50676032e-18
3.810323826e-17
4.569373357e-13
3.61419533e-12
8.726307031e-12
1.72063425e-11
8.800685032e-18
2.408067618e-17
3.637341305e-17
4.540146822e-17
5.097075417e-17
5.301139228e-17
5.162214944e-17
4.710873901e-17
4.00066743e-17
3.107399765e-17
2.124227067e-17
1.152035486e-17
2.858510786e-18
1.73271635e-19
1.772161772e-19
1.81009717e-19
1.846646379e-19
1.882054167e-19
1.916628791e-19
1.950675662e-19
1.984438279e-19
2.018059804e-19
2.051569359e-19
2.084890019e-19
2.117860253e-19
2.150260188e-19
2.181836773e-19
2.212325301e-19
2.241466556e-19
2.269019081e-19
2.294768422e-19
2.318535786e-19
2.340190226e-19
2.359667429e-19
5.965797516e-18
4.020761137e-17
5.6767567e-13
3.792002663e-12
9.016572261e-12
1.768918263e-11
8.845315029e-18
2.423429903e-17
3.666397419e-17
4.585400549e-17
5.160378077e-17
5.38323852e-17
5.26225703e-17
4.825932175e-17
4.125435888e-17
3.234209334e-17
2.243539865e-17
1.253492899e-17
3.59796318e-18
1.73140047e-19
1.771066266e-19
1.809227106e-19
1.845987947e-19
1.881578064e-19
1.916296531e-19
1.950446579e-19
1.984275734e-19
2.017935019e-19
2.05146262e-19
2.08478974e-19
2.117760946e-19
2.15016027e-19
2.181736801e-19
2.212226739e-19
2.241371062e-19
2.268928041e-19
2.294683134e-19
2.318457624e-19
2.340121123e-19