/*--------------------------------*- C++ -*----------------------------------*\
| =========                 |                                                 |
| \\      /  F ield         | OpenFOAM: The Open Source CFD Toolbox           |
|  \\    /   O peration     | Version:  v2006                                 |
|   \\  /    A nd           | Website:  www.openfoam.com                      |
|    \\/     M anipulation  |                                                 |
\*---------------------------------------------------------------------------*/
FoamFile
{
    version     2.0;
    format      ascii;
    class       volScalarField;
    location    "0.09";
    object      H2;
}
// * * * * * * * * * * * * * * * * * * * * * * * * * * * * * * * * * * * * * //

dimensions      [0 0 0 0 0 0 0];


internalField   nonuniform List<scalar> 
168000
(
3.552376457e-05
3.62441812e-05
3.679644528e-05
3.730155886e-05
3.778991921e-05
3.82719802e-05
3.875853234e-05
3.925271275e-05
3.974823368e-05
4.025266464e-05
4.076952941e-05
4.129145554e-05
4.182226767e-05
4.236744217e-05
4.291517976e-05
4.347435155e-05
4.404564375e-05
4.461684311e-05
4.5203612e-05
4.578773954e-05
4.638307313e-05
4.697734383e-05
4.763656372e-05
4.830171409e-05
4.896632144e-05
4.960908807e-05
5.025097816e-05
5.084653149e-05
5.143306432e-05
5.197791546e-05
5.248295241e-05
5.296018358e-05
5.338422124e-05
5.375984197e-05
5.409751045e-05
5.439405825e-05
5.464794964e-05
5.508934516e-05
5.598166419e-05
5.79365044e-05
3.460880628e-05
3.557474154e-05
3.631769959e-05
3.695364884e-05
3.753450122e-05
3.808530434e-05
3.862149555e-05
3.915090545e-05
3.967561732e-05
4.020137215e-05
4.073179214e-05
4.126549735e-05
4.180516044e-05
4.235380841e-05
4.290696035e-05
4.346885774e-05
4.404001804e-05
4.461464878e-05
4.519970424e-05
4.578612527e-05
4.638044644e-05
4.697565717e-05
4.763390799e-05
4.829993893e-05
4.896339792e-05
4.960797778e-05
5.024724682e-05
5.084556068e-05
5.143054099e-05
5.197584442e-05
5.248184155e-05
5.295805883e-05
5.338255465e-05
5.37588704e-05
5.409656577e-05
5.439299961e-05
5.465639555e-05
5.510226303e-05
5.604161649e-05
5.803457032e-05
3.40158073e-05
3.504233997e-05
3.588958727e-05
3.662104615e-05
3.727969178e-05
3.789224132e-05
3.847602479e-05
3.904167638e-05
3.959537283e-05
4.014314787e-05
4.068931274e-05
4.123549493e-05
4.178443274e-05
4.23385782e-05
4.28969166e-05
4.346195644e-05
4.403428045e-05
4.461124865e-05
4.519605775e-05
4.578395255e-05
4.637794436e-05
4.697377207e-05
4.76313925e-05
4.829801787e-05
4.896068508e-05
4.960657014e-05
5.02438662e-05
5.084433039e-05
5.142813031e-05
5.197380549e-05
5.248062739e-05
5.295600629e-05
5.338090352e-05
5.375786982e-05
5.409561535e-05
5.4391962e-05
5.466497658e-05
5.511547618e-05
5.610301145e-05
5.813474761e-05
3.35940712e-05
3.462235401e-05
3.552068782e-05
3.631566527e-05
3.703475794e-05
3.769977405e-05
3.83268751e-05
3.892744394e-05
3.950941977e-05
4.007940386e-05
4.064241692e-05
4.120173078e-05
4.176052907e-05
4.23214054e-05
4.288514752e-05
4.345376162e-05
4.402806323e-05
4.460708456e-05
4.519237443e-05
4.578140724e-05
4.637547095e-05
4.697174772e-05
4.762897403e-05
4.829599853e-05
4.895812233e-05
4.960494272e-05
5.024075576e-05
5.084289984e-05
5.142580737e-05
5.197179478e-05
5.247932645e-05
5.295401469e-05
5.337926792e-05
5.375684345e-05
5.409465949e-05
5.43909441e-05
5.467370752e-05
5.512898667e-05
5.616586863e-05
5.823710974e-05
3.327012589e-05
3.428466339e-05
3.520585248e-05
3.604106393e-05
3.680495897e-05
3.751279046e-05
3.817782196e-05
3.881064524e-05
3.941955541e-05
4.001140234e-05
4.059167694e-05
4.116457659e-05
4.173376368e-05
4.230219547e-05
4.28717103e-05
4.344432733e-05
4.402117765e-05
4.460226075e-05
4.518849164e-05
4.577855801e-05
4.637291969e-05
4.696961872e-05
4.76266238e-05
4.829391399e-05
4.895566625e-05
4.960315354e-05
5.023785377e-05
5.084131489e-05
5.142355298e-05
5.196980863e-05
5.247795264e-05
5.295207468e-05
5.337764764e-05
5.375579418e-05
5.409369854e-05
5.438994471e-05
5.468260115e-05
5.514279751e-05
5.623021045e-05
5.834172714e-05
3.300905069e-05
3.400681268e-05
3.49364378e-05
3.5796318e-05
3.659249132e-05
3.733431197e-05
3.803162282e-05
3.869339598e-05
3.932739265e-05
3.994029708e-05
4.053776024e-05
4.112445527e-05
4.170441822e-05
4.228098189e-05
4.285665882e-05
4.343368249e-05
4.401352569e-05
4.459681614e-05
4.518431532e-05
4.577542652e-05
4.637026388e-05
4.69673807e-05
4.762432259e-05
4.829178711e-05
4.895328589e-05
4.960124589e-05
5.023511292e-05
5.083961104e-05
5.142135233e-05
5.196784364e-05
5.247651768e-05
5.295017848e-05
5.337604222e-05
5.375472461e-05
5.409273288e-05
5.438896277e-05
5.469166869e-05
5.515691252e-05
5.629606183e-05
5.84486679e-05
3.279214413e-05
3.377343888e-05
3.470410386e-05
3.557855729e-05
3.639760874e-05
3.716592298e-05
3.789017417e-05
3.857739561e-05
3.923431336e-05
3.986712661e-05
4.048134976e-05
4.108181273e-05
4.167277388e-05
4.225786848e-05
4.284005759e-05
4.342185273e-05
4.400505791e-05
4.459075885e-05
4.517978802e-05
4.577202343e-05
4.636747452e-05
4.696504152e-05
4.762205776e-05
4.828963367e-05
4.895095933e-05
4.959925203e-05
5.023249698e-05
5.083781576e-05
5.141919407e-05
5.196589673e-05
5.247503146e-05
5.294831964e-05
5.337445108e-05
5.375363707e-05
5.409176292e-05
5.438799734e-05
5.470092009e-05
5.517133621e-05
5.636344983e-05
5.855799844e-05
3.260802069e-05
3.357402251e-05
3.450191101e-05
3.538450248e-05
3.621943076e-05
3.700820388e-05
3.775463719e-05
3.8463881e-05
3.914144535e-05
3.979279968e-05
4.042309904e-05
4.10370967e-05
4.163911971e-05
4.223299548e-05
4.2821986e-05
4.340886977e-05
4.399575336e-05
4.458408626e-05
4.517487188e-05
4.576834064e-05
4.636452994e-05
4.696259747e-05
4.761982085e-05
4.828746458e-05
4.894867119e-05
4.959719596e-05
5.022997821e-05
5.083595034e-05
5.141706941e-05
5.196396516e-05
5.24735023e-05
5.294649279e-05
5.337287352e-05
5.375253365e-05
5.409078909e-05
5.438704758e-05
5.47103643e-05
5.518607365e-05
5.643240347e-05
5.866978396e-05
3.244910886e-05
3.340115959e-05
3.432431686e-05
3.521089438e-05
3.605675672e-05
3.686112498e-05
3.76256307e-05
3.835373472e-05
3.904968331e-05
3.971808858e-05
4.036360658e-05
4.099073927e-05
4.160374455e-05
4.220652716e-05
4.280253737e-05
4.339477463e-05
4.398560965e-05
4.457679427e-05
4.516954118e-05
4.576436842e-05
4.63614132e-05
4.696004259e-05
4.761760722e-05
4.828528742e-05
4.894641075e-05
4.959509549e-05
5.022753534e-05
5.083403125e-05
5.141497157e-05
5.196204653e-05
5.247193722e-05
5.294469343e-05
5.337130879e-05
5.375141622e-05
5.408981182e-05
5.438611275e-05
5.472000952e-05
5.520113036e-05
5.650295344e-05
5.878408891e-05
3.231009238e-05
3.324948727e-05
3.416696119e-05
3.505483776e-05
3.590801317e-05
3.672413439e-05
3.750337145e-05
3.824751384e-05
3.895968394e-05
3.964362762e-05
4.030340239e-05
4.094314465e-05
4.156693123e-05
4.217864002e-05
4.278181646e-05
4.337961778e-05
4.397463767e-05
4.45688816e-05
4.516377849e-05
4.576009585e-05
4.635810563e-05
4.695736914e-05
4.76154142e-05
4.828310753e-05
4.894417066e-05
4.959296389e-05
5.02251521e-05
5.083207131e-05
5.141289528e-05
5.196013877e-05
5.247034212e-05
5.294291782e-05
5.336975613e-05
5.375028649e-05
5.408883155e-05
5.43851922e-05
5.472986332e-05
5.52165123e-05
5.657513201e-05
5.890097731e-05
3.218710045e-05
3.311502112e-05
3.40264145e-05
3.491385068e-05
3.577175137e-05
3.659678431e-05
3.738785454e-05
3.814553725e-05
3.887193239e-05
3.956992483e-05
4.024294355e-05
4.089468159e-05
4.152895107e-05
4.214951465e-05
4.275993569e-05
4.336345806e-05
4.396285853e-05
4.456035147e-05
4.515757273e-05
4.575551325e-05
4.635460007e-05
4.695456872e-05
4.761323837e-05
4.828092853e-05
4.89419459e-05
4.959081096e-05
5.022281598e-05
5.083008043e-05
5.141083648e-05
5.195824011e-05
5.246872199e-05
5.294116279e-05
5.336821478e-05
5.374914595e-05
5.408784872e-05
5.438428534e-05
5.473993283e-05
5.523222579e-05
5.664897283e-05
5.90205131e-05
3.207723645e-05
3.299473537e-05
3.389996139e-05
3.478583076e-05
3.56465794e-05
3.64782391e-05
3.727876039e-05
3.804793202e-05
3.878675331e-05
3.949738543e-05
4.018261535e-05
4.084567915e-05
4.1490059e-05
4.211933269e-05
4.273700831e-05
4.334636146e-05
4.395030142e-05
4.455121209e-05
4.515091798e-05
4.575061225e-05
4.635088361e-05
4.695163359e-05
4.761107916e-05
4.827875288e-05
4.893973313e-05
4.958864401e-05
5.022051742e-05
5.082806634e-05
5.140879197e-05
5.195634906e-05
5.2467081e-05
5.293942571e-05
5.336668399e-05
5.374799596e-05
5.408686377e-05
5.438339169e-05
5.475022483e-05
5.524827749e-05
5.672451087e-05
5.91427603e-05
3.197828385e-05
3.288628862e-05
3.37854338e-05
3.46690138e-05
3.553125038e-05
3.636779196e-05
3.717595677e-05
3.795473199e-05
3.87043477e-05
3.942628903e-05
4.012273187e-05
4.079642491e-05
4.145048948e-05
4.208826734e-05
4.271315149e-05
4.332839899e-05
4.393700194e-05
4.454147653e-05
4.514381286e-05
4.57453865e-05
4.634694721e-05
4.694855644e-05
4.760893589e-05
4.827658213e-05
4.893753017e-05
4.958646844e-05
5.021824906e-05
5.082603505e-05
5.140675926e-05
5.195446436e-05
5.24654227e-05
5.293770435e-05
5.336516304e-05
5.374683774e-05
5.408587711e-05
5.43825108e-05
5.476074584e-05
5.526467446e-05
5.680178235e-05
5.926778333e-05
3.188851423e-05
3.27878393e-05
3.368108448e-05
3.456192107e-05
3.542465603e-05
3.626472134e-05
3.707897532e-05
3.786575444e-05
3.862481383e-05
3.93568569e-05
4.006354692e-05
4.074716625e-05
4.141045458e-05
4.205648264e-05
4.268848135e-05
4.330964503e-05
4.392300055e-05
4.453116229e-05
4.513625992e-05
4.573983182e-05
4.634278334e-05
4.694532937e-05
4.760680836e-05
4.827441977e-05
4.893533582e-05
4.958428829e-05
5.021600526e-05
5.082399122e-05
5.140473643e-05
5.195258496e-05
5.246375004e-05
5.293599683e-05
5.336365125e-05
5.374567239e-05
5.408488916e-05
5.43816423e-05
5.477150225e-05
5.528142418e-05
5.688082472e-05
5.93956471e-05
3.18065577e-05
3.269791793e-05
3.358549223e-05
3.446331162e-05
3.532582412e-05
3.616835907e-05
3.69874596e-05
3.778101237e-05
3.854820677e-05
3.928923711e-05
4.000526706e-05
4.069811283e-05
4.137014334e-05
4.202413168e-05
4.266311018e-05
4.329017617e-05
4.390834124e-05
4.452029068e-05
4.512826524e-05
4.573394632e-05
4.633838609e-05
4.694194616e-05
4.760469632e-05
4.827226447e-05
4.893314925e-05
4.958210655e-05
5.021378169e-05
5.082193849e-05
5.140272192e-05
5.195071003e-05
5.246206554e-05
5.293430154e-05
5.336214799e-05
5.374450087e-05
5.408390033e-05
5.438078588e-05
5.478250035e-05
5.529853478e-05
5.696167665e-05
5.952641721e-05
3.173131298e-05
3.261533686e-05
3.349749057e-05
3.437214072e-05
3.523390572e-05
3.607808837e-05
3.690102028e-05
3.770023964e-05
3.847450868e-05
3.922351701e-05
3.994803335e-05
4.064943718e-05
4.132972179e-05
4.199135546e-05
4.263714681e-05
4.327006736e-05
4.389307054e-05
4.450888621e-05
4.511983798e-05
4.572773032e-05
4.633375122e-05
4.693840232e-05
4.760259967e-05
4.827011787e-05
4.893097008e-05
4.957992545e-05
5.021157501e-05
5.08198797e-05
5.140071454e-05
5.194883884e-05
5.246037131e-05
5.293261713e-05
5.336065265e-05
5.374332408e-05
5.408291101e-05
5.437994127e-05
5.479374633e-05
5.531723749e-05
5.704437818e-05
5.966016012e-05
3.166188364e-05
3.253912525e-05
3.341611376e-05
3.428752523e-05
3.51481614e-05
3.599334895e-05
3.681928293e-05
3.762322933e-05
3.840354943e-05
3.915973427e-05
3.989196262e-05
4.060128131e-05
4.128933415e-05
4.19582823e-05
4.261069552e-05
4.32493905e-05
4.387723658e-05
4.449697597e-05
4.511099001e-05
4.572118621e-05
4.632887588e-05
4.693469246e-05
4.760051829e-05
4.826798061e-05
4.892879818e-05
4.957774666e-05
5.020938267e-05
5.081781707e-05
5.139871339e-05
5.194697078e-05
5.245866915e-05
5.293094245e-05
5.335916468e-05
5.374214279e-05
5.408192155e-05
5.437910821e-05
5.480524603e-05
5.537020621e-05
5.712897077e-05
5.979694322e-05
3.15975318e-05
3.246848126e-05
3.334055588e-05
3.420871516e-05
3.506794744e-05
3.591363653e-05
3.674189767e-05
3.754979925e-05
3.833543805e-05
3.909792623e-05
3.983713659e-05
4.055375896e-05
4.124910425e-05
4.192502734e-05
4.25838516e-05
4.322821758e-05
4.386088817e-05
4.448458903e-05
4.510173548e-05
4.571431835e-05
4.63237587e-05
4.693081274e-05
4.759845202e-05
4.826585317e-05
4.89266335e-05
4.957557144e-05
5.02072027e-05
5.081575232e-05
5.139671774e-05
5.194510537e-05
5.245696055e-05
5.292927651e-05
5.335768358e-05
5.374095773e-05
5.408093234e-05
5.437828651e-05
5.48170054e-05
5.542440247e-05
5.721549704e-05
5.993683486e-05
3.153764401e-05
3.240273643e-05
3.327013914e-05
3.413507048e-05
3.499270277e-05
3.583849829e-05
3.666853381e-05
3.74797333e-05
3.826997264e-05
3.903807892e-05
3.978360675e-05
4.050696715e-05
4.120913749e-05
4.189169286e-05
4.255670311e-05
4.320661765e-05
4.38440741e-05
4.447175581e-05
4.509209044e-05
4.570713283e-05
4.63183997e-05
4.692727465e-05
4.759640062e-05
4.826373591e-05
4.892447583e-05
4.95734007e-05
5.02050336e-05
5.081368683e-05
5.139472699e-05
5.194324224e-05
5.245524677e-05
5.292761846e-05
5.335620885e-05
5.373976953e-05
5.40799437e-05
5.437747596e-05
5.482903035e-05
5.547985235e-05
5.730400029e-05
6.00799043e-05
3.148170566e-05
3.234132881e-05
3.320428951e-05
3.406604227e-05
3.492193744e-05
3.576752876e-05
3.659888445e-05
3.741282415e-05
3.820704019e-05
3.898009082e-05
3.973139545e-05
4.046096262e-05
4.116952036e-05
4.185836876e-05
4.252933079e-05
4.318465601e-05
4.382684255e-05
4.445850757e-05
4.508207247e-05
4.569963732e-05
4.63128002e-05
4.692533684e-05
4.759436377e-05
4.826162917e-05
4.892232673e-05
4.957123524e-05
5.02028742e-05
5.081162164e-05
5.139274067e-05
5.194138112e-05
5.245352888e-05
5.292596758e-05
5.335474009e-05
5.373857876e-05
5.407895597e-05
5.437667642e-05
5.484132681e-05
5.553658274e-05
5.739452457e-05
6.022622139e-05
3.142928155e-05
3.228378225e-05
3.314251754e-05
3.400115749e-05
3.485522257e-05
3.570036546e-05
3.65326675e-05
3.734887631e-05
3.814654159e-05
3.892403722e-05
3.968052822e-05
4.04158033e-05
4.113032539e-05
4.182513353e-05
4.2501808e-05
4.316239356e-05
4.380924102e-05
4.444487588e-05
4.507170033e-05
4.569184086e-05
4.630696265e-05
4.692341288e-05
4.759234108e-05
4.825953312e-05
4.892018497e-05
4.956907558e-05
5.020072363e-05
5.08095576e-05
5.139075839e-05
5.19395218e-05
5.245180779e-05
5.292432322e-05
5.335327689e-05
5.373738595e-05
5.407796946e-05
5.437588777e-05
5.485390069e-05
5.55946213e-05
5.748711476e-05
6.03758563e-05
3.138000084e-05
3.22296905e-05
3.308440335e-05
3.394000649e-05
3.479218176e-05
3.563668434e-05
3.646962429e-05
3.728770234e-05
3.808835634e-05
3.886980194e-05
3.963100079e-05
4.037152492e-05
4.109161111e-05
4.179205512e-05
4.247420106e-05
4.313988792e-05
4.379131446e-05
4.443089215e-05
4.506099364e-05
4.568375364e-05
4.630089063e-05
4.69215009e-05
4.759033185e-05
4.825744783e-05
4.891805123e-05
4.956692213e-05
5.019858121e-05
5.080749536e-05
5.138877986e-05
5.193766411e-05
5.245008424e-05
5.292268485e-05
5.33518189e-05
5.373619156e-05
5.407698451e-05
5.438234084e-05
5.486675793e-05
5.565399648e-05
5.758181655e-05
6.052888185e-05
3.13335454e-05
3.217870459e-05
3.302958459e-05
3.388223295e-05
3.473248368e-05
3.557619552e-05
3.64095183e-05
3.722912522e-05
3.803236671e-05
3.881732598e-05
3.958280437e-05
4.032814951e-05
4.105342592e-05
4.175919193e-05
4.244656953e-05
4.311719368e-05
4.377310413e-05
4.441658767e-05
4.504997262e-05
4.567538684e-05
4.629458872e-05
4.691959882e-05
4.758833545e-05
4.825537331e-05
4.891592571e-05
4.956477523e-05
5.019644642e-05
5.080543542e-05
5.138680483e-05
5.193580795e-05
5.244835888e-05
5.292105199e-05
5.33503658e-05
5.373499601e-05
5.407600139e-05
5.439077314e-05
5.487990452e-05
5.571473742e-05
5.767867648e-05
6.068537271e-05
3.128964058e-05
3.213052299e-05
3.29777469e-05
3.382752549e-05
3.467583582e-05
3.551863948e-05
3.635213371e-05
3.717297915e-05
3.797845814e-05
3.876653845e-05
3.953584342e-05
4.028568373e-05
4.101580509e-05
4.172659334e-05
4.241896633e-05
4.309436031e-05
4.375465e-05
4.440199299e-05
4.503865782e-05
4.56667524e-05
4.628806236e-05
4.691770431e-05
4.758635102e-05
4.825330948e-05
4.891380856e-05
4.956263513e-05
5.019431887e-05
5.080337821e-05
5.138483312e-05
5.193395321e-05
5.244663225e-05
5.291942422e-05
5.334891728e-05
5.37337997e-05
5.407502039e-05
5.439941049e-05
5.489334651e-05
5.5776874e-05
5.777774205e-05
6.084540494e-05
3.12480479e-05
3.208488369e-05
3.292861618e-05
3.377561084e-05
3.462197916e-05
3.546378353e-05
3.629727385e-05
3.711910994e-05
3.79265228e-05
3.871738832e-05
3.94902185e-05
4.024414508e-05
4.09787762e-05
4.169430079e-05
4.239143801e-05
4.307143216e-05
4.373599072e-05
4.438713786e-05
4.502706988e-05
4.565786291e-05
4.62813178e-05
4.691581487e-05
4.758437759e-05
4.825125618e-05
4.891169991e-05
4.956050203e-05
5.019219825e-05
5.080132402e-05
5.13828646e-05
5.193209983e-05
5.244490481e-05
5.291780118e-05
5.334747309e-05
5.373260298e-05
5.407404179e-05
5.440825689e-05
5.490709002e-05
5.584043681e-05
5.787906172e-05
6.100905601e-05
3.120855919e-05
3.204155783e-05
3.288195224e-05
3.372624825e-05
3.45706836e-05
3.54114187e-05
3.624475947e-05
3.706737402e-05
3.787645567e-05
3.8669805e-05
3.944583248e-05
4.020408621e-05
4.094508433e-05
4.166234878e-05
4.236402538e-05
4.304844967e-05
4.371716237e-05
4.437205097e-05
4.501522937e-05
4.564873138e-05
4.627436191e-05
4.691392781e-05
4.758241406e-05
4.824921315e-05
4.890959983e-05
4.955837606e-05
5.019008434e-05
5.079927312e-05
5.138089913e-05
5.193024777e-05
5.244317694e-05
5.291618255e-05
5.334603299e-05
5.373140617e-05
5.407306584e-05
5.441731642e-05
5.492114126e-05
5.590545711e-05
5.798268491e-05
6.117640489e-05
3.117099177e-05
3.200034449e-05
3.283754367e-05
3.367922479e-05
3.452174415e-05
3.536135694e-05
3.619442709e-05
3.701763804e-05
3.782815634e-05
3.862372055e-05
3.940265265e-05
4.016504753e-05
4.091412812e-05
4.163076533e-05
4.233676393e-05
4.302544951e-05
4.369819848e-05
4.435675989e-05
4.500315661e-05
4.563937115e-05
4.626720215e-05
4.691204027e-05
4.758045917e-05
4.824718004e-05
4.890750836e-05
4.955625733e-05
5.018797695e-05
5.079722571e-05
5.137893664e-05
5.192839704e-05
5.244144896e-05
5.291456804e-05
5.334459676e-05
5.373020956e-05
5.407209281e-05
5.442659327e-05
5.493550651e-05
5.597196687e-05
5.808866206e-05
6.134753206e-05
3.113518466e-05
3.196106654e-05
3.279520364e-05
3.363435138e-05
3.447497763e-05
3.531342873e-05
3.614612761e-05
3.696977837e-05
3.778152965e-05
3.857906881e-05
3.936063968e-05
4.012602773e-05
4.088285585e-05
4.160518834e-05
4.230968436e-05
4.300246472e-05
4.367913003e-05
4.434129098e-05
4.499087151e-05
4.562979571e-05
4.625984642e-05
4.691014927e-05
4.757851156e-05
4.824515643e-05
4.890542546e-05
4.955414579e-05
5.018587595e-05
5.079518194e-05
5.137697704e-05
5.192654761e-05
5.243972115e-05
5.29129574e-05
5.33431642e-05
5.372901343e-05
5.407112294e-05
5.443609171e-05
5.495019216e-05
5.603999877e-05
5.819704463e-05
6.152251958e-05
3.110099531e-05
3.19235671e-05
3.27547663e-05
3.359145964e-05
3.443021989e-05
3.526748092e-05
3.609972489e-05
3.692368058e-05
3.773648591e-05
3.853578644e-05
3.931975892e-05
4.008709073e-05
4.085133106e-05
4.158104658e-05
4.228281379e-05
4.29795249e-05
4.365998536e-05
4.432566953e-05
4.497839343e-05
4.56200186e-05
4.625230298e-05
4.690825172e-05
4.757656976e-05
4.824314181e-05
4.890335106e-05
4.955204137e-05
5.018378121e-05
5.079314194e-05
5.137502029e-05
5.192469951e-05
5.243799374e-05
5.291135042e-05
5.334173516e-05
5.372781803e-05
5.407015647e-05
5.444581611e-05
5.496520467e-05
5.610958618e-05
5.830788509e-05
6.170145109e-05
3.106829702e-05
3.188770669e-05
3.271608394e-05
3.355039903e-05
3.438732343e-05
3.52233749e-05
3.605509449e-05
3.687923873e-05
3.769294073e-05
3.849381234e-05
3.927997389e-05
4.005002867e-05
4.081961213e-05
4.155649585e-05
4.226239746e-05
4.295665632e-05
4.364079055e-05
4.430991947e-05
4.496574096e-05
4.56100533e-05
4.624458037e-05
4.690634443e-05
4.757463218e-05
4.824113559e-05
4.89012851e-05
4.954994507e-05
5.01816927e-05
5.07911058e-05
5.137306634e-05
5.192285274e-05
5.243626693e-05
5.290974689e-05
5.334030948e-05
5.372662361e-05
5.406919366e-05
5.445577092e-05
5.498055065e-05
5.618076316e-05
5.842123699e-05
6.18844119e-05
3.103697672e-05
3.185336084e-05
3.267902452e-05
3.351103452e-05
3.43461553e-05
3.518098493e-05
3.601212261e-05
3.683635482e-05
3.76508147e-05
3.845308727e-05
3.924124476e-05
4.001382642e-05
4.078775177e-05
4.153158394e-05
4.224398899e-05
4.293388266e-05
4.36215706e-05
4.429406184e-05
4.495293212e-05
4.559991319e-05
4.623787665e-05
4.690442412e-05
4.757269714e-05
4.823913711e-05
4.889922738e-05
4.954785571e-05
5.017961032e-05
5.07890736e-05
5.137111517e-05
5.192100735e-05
5.243454088e-05
5.290814664e-05
5.333888702e-05
5.372543036e-05
5.406823473e-05
5.446596072e-05
5.499623677e-05
5.625356449e-05
5.853715495e-05
6.207148901e-05
3.100693319e-05
3.182041808e-05
3.264346961e-05
3.347324468e-05
3.430659543e-05
3.514019675e-05
3.597070495e-05
3.679493809e-05
3.761003328e-05
3.841355434e-05
3.920353235e-05
3.997844994e-05
4.075579892e-05
4.150635635e-05
4.22251493e-05
4.291763195e-05
4.360234825e-05
4.427811625e-05
4.493998417e-05
4.558961144e-05
4.623576526e-05
4.690248743e-05
4.757076284e-05
4.823714559e-05
4.889717767e-05
4.954577363e-05
5.017753401e-05
5.078704541e-05
5.136916675e-05
5.191916334e-05
5.243281572e-05
5.290654951e-05
5.333746766e-05
5.372423851e-05
5.406727993e-05
5.447639017e-05
5.501226984e-05
5.632802569e-05
5.865569467e-05
6.226277114e-05
3.097807543e-05
3.178877824e-05
3.260931264e-05
3.343691995e-05
3.426853503e-05
3.510090627e-05
3.593074586e-05
3.675490453e-05
3.757052651e-05
3.837515921e-05
3.916679825e-05
3.994387605e-05
4.072379834e-05
4.148085548e-05
4.220591225e-05
4.290390624e-05
4.358314362e-05
4.426210178e-05
4.492691362e-05
4.557916078e-05
4.623359761e-05
4.690053107e-05
4.756882745e-05
4.82351602e-05
4.88951357e-05
4.954369879e-05
5.017546371e-05
5.078502126e-05
5.136722106e-05
5.191732076e-05
5.243109158e-05
5.290495535e-05
5.33360513e-05
5.372304825e-05
5.406632949e-05
5.448706403e-05
5.50286568e-05
5.640418297e-05
5.8776913e-05
6.245834882e-05
3.095032146e-05
3.175835102e-05
3.257645744e-05
3.34019612e-05
3.423187535e-05
3.506301853e-05
3.589215749e-05
3.671617629e-05
3.753222888e-05
3.833785022e-05
3.913100518e-05
3.991007855e-05
4.069177358e-05
4.145511934e-05
4.21863104e-05
4.288977637e-05
4.357229757e-05
4.424603638e-05
4.491373619e-05
4.556857362e-05
4.623136895e-05
4.689855168e-05
4.756688903e-05
4.823318006e-05
4.889310115e-05
4.954163107e-05
5.017339936e-05
5.07830012e-05
5.13652781e-05
5.191547962e-05
5.242936855e-05
5.290336404e-05
5.333463785e-05
5.372185976e-05
5.406538363e-05
5.449798718e-05
5.504540472e-05
5.648207329e-05
5.890086789e-05
6.265831439e-05
3.092359711e-05
3.172905478e-05
3.254481697e-05
3.336827853e-05
3.41965265e-05
3.502644671e-05
3.585485902e-05
3.667868121e-05
3.749507905e-05
3.830157853e-05
3.909611848e-05
3.98770447e-05
4.065978241e-05
4.142918635e-05
4.216637481e-05
4.287526388e-05
4.356226535e-05
4.423488999e-05
4.49004668e-05
4.55639109e-05
4.622907464e-05
4.689654596e-05
4.75649456e-05
4.823120419e-05
4.889107365e-05
4.953957036e-05
5.017134089e-05
5.078098524e-05
5.136333786e-05
5.191363997e-05
5.242764672e-05
5.290177546e-05
5.333322722e-05
5.372067322e-05
5.406444261e-05
5.450916463e-05
5.506252081e-05
5.656173439e-05
5.902761848e-05
6.286276209e-05
3.089783516e-05
3.170081552e-05
3.251431222e-05
3.333579016e-05
3.416240652e-05
3.499111129e-05
3.581877601e-05
3.664235235e-05
3.745901957e-05
3.826629767e-05
3.906210353e-05
3.984474914e-05
4.062784654e-05
4.140309096e-05
4.214613639e-05
4.286039028e-05
4.355188507e-05
4.422793826e-05
4.48956734e-05
4.556077556e-05
4.622671031e-05
4.689451061e-05
4.756299514e-05
4.822923158e-05
4.888905277e-05
4.953751651e-05
5.016928824e-05
5.077897339e-05
5.136140034e-05
5.191180182e-05
5.242592614e-05
5.290018951e-05
5.333181934e-05
5.371948879e-05
5.406350665e-05
5.45206015e-05
5.508001252e-05
5.664320479e-05
5.915722509e-05
6.307178806e-05
3.087297449e-05
3.167356593e-05
3.248487131e-05
3.330442155e-05
3.41294405e-05
3.495693925e-05
3.57838398e-05
3.660712753e-05
3.742399659e-05
3.823196352e-05
3.902892661e-05
3.981316799e-05
4.05959941e-05
4.137686541e-05
4.212562363e-05
4.284517673e-05
4.354116874e-05
4.422070261e-05
4.48908766e-05
4.555750558e-05
4.622427182e-05
4.689244237e-05
4.756103557e-05
4.822726114e-05
4.888703804e-05
4.953546934e-05
5.016724133e-05
5.077696567e-05
5.135946556e-05
5.19099652e-05
5.242420685e-05
5.28986061e-05
5.333041416e-05
5.371830663e-05
5.406257599e-05
5.453230308e-05
5.509788755e-05
5.672652385e-05
5.928974929e-05
6.328549044e-05
3.084895939e-05
3.16472447e-05
3.245642867e-05
3.32741046e-05
3.409755974e-05
3.492386353e-05
3.574998696e-05
3.657294897e-05
3.738995965e-05
3.81985342e-05
3.899655524e-05
3.978227833e-05
4.056425048e-05
4.135053973e-05
4.210486397e-05
4.282964403e-05
4.353012874e-05
4.421318771e-05
4.488586982e-05
4.555409756e-05
4.622175526e-05
4.689033806e-05
4.755906481e-05
4.822529174e-05
4.888502896e-05
4.953342866e-05
5.016520009e-05
5.077496207e-05
5.135753348e-05
5.190813018e-05
5.242248891e-05
5.289702513e-05
5.332901163e-05
5.37171269e-05
5.406165087e-05
5.45442748e-05
5.511615406e-05
5.681173186e-05
5.94252539e-05
6.350396943e-05
3.082573894e-05
3.162179578e-05
3.242892436e-05
3.324477699e-05
3.40667012e-05
3.489182229e-05
3.571715882e-05
3.653976289e-05
3.735686144e-05
3.81659701e-05
3.896495824e-05
3.975205775e-05
4.053263806e-05
4.132414214e-05
4.208388307e-05
4.281381246e-05
4.351877765e-05
4.420539882e-05
4.488065296e-05
4.555054856e-05
4.621915697e-05
4.688819456e-05
4.755708076e-05
4.822332219e-05
4.888302497e-05
4.953139423e-05
5.016316443e-05
5.077296257e-05
5.135560408e-05
5.19062968e-05
5.242077235e-05
5.289544652e-05
5.332761169e-05
5.371594974e-05
5.406073153e-05
5.455652224e-05
5.513482083e-05
5.689887016e-05
5.95638031e-05
6.372732731e-05
3.080326651e-05
3.159716788e-05
3.240230345e-05
3.321638148e-05
3.403680691e-05
3.486075854e-05
3.5685301e-05
3.650751923e-05
3.73246576e-05
3.813423373e-05
3.893410584e-05
3.972248447e-05
4.050117545e-05
4.129768526e-05
4.206270402e-05
4.279770161e-05
4.35071282e-05
4.41973417e-05
4.487522649e-05
4.554685607e-05
4.621647352e-05
4.688600884e-05
4.755508129e-05
4.822135128e-05
4.888102549e-05
4.95293658e-05
5.016113424e-05
5.077096716e-05
5.135367738e-05
5.190446507e-05
5.24190572e-05
5.28938702e-05
5.332621431e-05
5.371477529e-05
5.40598182e-05
5.456905093e-05
5.51688013e-05
5.698798131e-05
5.970546245e-05
6.395566853e-05
3.078149932e-05
3.157331389e-05
3.237651549e-05
3.318886547e-05
3.400782346e-05
3.483061957e-05
3.56543631e-05
3.64761713e-05
3.729330652e-05
3.810328964e-05
3.890396967e-05
3.969353842e-05
4.047050223e-05
4.127120943e-05
4.204135145e-05
4.278133069e-05
4.349519317e-05
4.418902256e-05
4.48695914e-05
4.554301802e-05
4.621370174e-05
4.688377797e-05
4.75530643e-05
4.821937775e-05
4.887902987e-05
4.952734309e-05
5.015910941e-05
5.076897582e-05
5.135175335e-05
5.190263502e-05
5.241734348e-05
5.289229611e-05
5.332481945e-05
5.371360369e-05
5.405940044e-05
5.458186633e-05
5.522677457e-05
5.707910916e-05
5.985029902e-05
6.418909975e-05
3.0760398e-05
3.155019052e-05
3.235151408e-05
3.316218048e-05
3.397970152e-05
3.480135662e-05
3.562429827e-05
3.644567555e-05
3.726276914e-05
3.807310433e-05
3.887452259e-05
3.966519937e-05
4.044361842e-05
4.12447279e-05
4.201984728e-05
4.276471794e-05
4.348298533e-05
4.418044793e-05
4.48637492e-05
4.553903274e-05
4.621083873e-05
4.688149914e-05
4.755102769e-05
4.821740031e-05
4.887703746e-05
4.952532582e-05
5.015708983e-05
5.076698852e-05
5.134983199e-05
5.190080667e-05
5.241563121e-05
5.289072418e-05
5.332342709e-05
5.371243508e-05
5.406795901e-05
5.459497408e-05
5.528608831e-05
5.717229842e-05
5.999838131e-05
6.442772988e-05
3.073992625e-05
3.152775784e-05
3.232725642e-05
3.313628178e-05
3.395239549e-05
3.477292446e-05
3.559506294e-05
3.641599129e-05
3.723300877e-05
3.804364605e-05
3.884573856e-05
3.963744734e-05
4.041723561e-05
4.121826006e-05
4.199821204e-05
4.274788167e-05
4.347051743e-05
4.417162467e-05
4.485770186e-05
4.553489896e-05
4.620788182e-05
4.687916961e-05
4.754896938e-05
4.821541767e-05
4.887504756e-05
4.952331364e-05
5.015507536e-05
5.07650052e-05
5.134791329e-05
5.189898003e-05
5.241392041e-05
5.288915435e-05
5.33220372e-05
5.371126958e-05
5.407672477e-05
5.460838001e-05
5.534677009e-05
5.72675944e-05
6.014977931e-05
6.467167015e-05
3.072005058e-05
3.150597901e-05
3.230370297e-05
3.311112798e-05
3.392586316e-05
3.474528112e-05
3.556661655e-05
3.638708048e-05
3.720399094e-05
3.801488478e-05
3.881759271e-05
3.961026297e-05
4.039134017e-05
4.119182364e-05
4.197646533e-05
4.27308387e-05
4.345780208e-05
4.416255994e-05
4.485145167e-05
4.553061578e-05
4.62048286e-05
4.687678682e-05
4.754688732e-05
4.821342849e-05
4.887305944e-05
4.952130622e-05
5.015306584e-05
5.076302577e-05
5.13459973e-05
5.189715511e-05
5.241221108e-05
5.288758658e-05
5.332064976e-05
5.371010731e-05
5.408570189e-05
5.462208998e-05
5.540884829e-05
5.736504313e-05
6.030456442e-05
6.492103415e-05
3.070073999e-05
3.148481993e-05
3.228081713e-05
3.308668075e-05
3.390006536e-05
3.471838759e-05
3.553892125e-05
3.63589075e-05
3.717568319e-05
3.798679208e-05
3.879006124e-05
3.958362757e-05
4.036591874e-05
4.116543477e-05
4.195462584e-05
4.27136056e-05
4.344485165e-05
4.415326109e-05
4.48450013e-05
4.552618266e-05
4.620167691e-05
4.68743483e-05
4.75447795e-05
4.821143143e-05
4.887107235e-05
4.951930318e-05
5.015106112e-05
5.076105012e-05
5.134408402e-05
5.189533192e-05
5.241050324e-05
5.288602081e-05
5.331926477e-05
5.370894838e-05
5.409489461e-05
5.463610998e-05
5.547235211e-05
5.746469143e-05
6.046280946e-05
6.517593787e-05
3.068196573e-05
3.146424902e-05
3.2258565e-05
3.30629045e-05
3.387496569e-05
3.469220751e-05
3.551194174e-05
3.633143899e-05
3.714805501e-05
3.795934101e-05
3.876312146e-05
3.955752313e-05
4.03409582e-05
4.113910774e-05
4.193270786e-05
4.269619808e-05
4.343167829e-05
4.414373563e-05
4.483835372e-05
4.552159937e-05
4.619842484e-05
4.687185171e-05
4.754264394e-05
4.820942514e-05
4.886908549e-05
4.951730411e-05
5.014906096e-05
5.075907819e-05
5.134217346e-05
5.189351048e-05
5.240879688e-05
5.288445701e-05
5.331788221e-05