/*--------------------------------*- C++ -*----------------------------------*\
| =========                 |                                                 |
| \\      /  F ield         | OpenFOAM: The Open Source CFD Toolbox           |
|  \\    /   O peration     | Version:  v2006                                 |
|   \\  /    A nd           | Website:  www.openfoam.com                      |
|    \\/     M anipulation  |                                                 |
\*---------------------------------------------------------------------------*/
FoamFile
{
    version     2.0;
    format      ascii;
    class       volScalarField;
    location    "0.09";
    object      H2O;
}
// * * * * * * * * * * * * * * * * * * * * * * * * * * * * * * * * * * * * * //

dimensions      [0 0 0 0 0 0 0];


internalField   nonuniform List<scalar> 
168000
(
4.722509877e-06
5.041962721e-06
5.324310729e-06
5.626007027e-06
5.922469529e-06
6.192316415e-06
6.468583669e-06
6.744804569e-06
6.955158036e-06
7.136752246e-06
7.3038424e-06
7.406861539e-06
7.461326756e-06
7.49556804e-06
7.459430767e-06
7.387008512e-06
7.287131048e-06
7.130750956e-06
6.954753549e-06
6.748381272e-06
6.521611262e-06
6.289955117e-06
6.329050149e-06
6.428741146e-06
6.528350756e-06
6.624686937e-06
6.720891743e-06
6.810151716e-06
6.898059721e-06
6.979720584e-06
7.055414202e-06
7.12694036e-06
7.190494015e-06
7.246791066e-06
7.297399933e-06
7.341845742e-06
7.399689923e-06
8.502395104e-06
1.795925592e-05
4.763602725e-05
4.59839819e-06
4.950506031e-06
5.17692758e-06
5.398225601e-06
5.639257746e-06
5.897223228e-06
6.17675007e-06
6.464004193e-06
6.721774145e-06
6.951389997e-06
7.15146307e-06
7.296261321e-06
7.387852017e-06
7.437635765e-06
7.425965265e-06
7.36766404e-06
7.270564677e-06
7.126169789e-06
6.949541778e-06
6.747515039e-06
6.521630411e-06
6.290338287e-06
6.328652115e-06
6.428475089e-06
6.527912586e-06
6.624520529e-06
6.720332499e-06
6.810006214e-06
6.897681532e-06
6.979410183e-06
7.055247707e-06
7.126621907e-06
7.19024423e-06
7.24664545e-06
7.297258347e-06
7.341687075e-06
7.441669214e-06
8.562200668e-06
1.891203488e-05
4.921571031e-05
4.498329729e-06
4.87009684e-06
5.076546607e-06
5.245039859e-06
5.432838193e-06
5.65768384e-06
5.921421291e-06
6.20933545e-06
6.493171755e-06
6.758052689e-06
6.991511905e-06
7.174025252e-06
7.300241792e-06
7.372863484e-06
7.384194692e-06
7.341633635e-06
7.252370875e-06
7.117006143e-06
6.943993975e-06
6.745096028e-06
6.5213217e-06
6.29040585e-06
6.328275101e-06
6.428187166e-06
6.527505993e-06
6.624309555e-06
6.71982582e-06
6.809821822e-06
6.897320225e-06
6.979104594e-06
7.055065733e-06
7.126314278e-06
7.189996763e-06
7.246495485e-06
7.297115901e-06
7.341531561e-06
7.484205579e-06
8.623327787e-06
1.988827837e-05
5.083041061e-05
4.42704053e-06
4.80683007e-06
5.008941915e-06
5.144968202e-06
5.287301416e-06
5.471368037e-06
5.706823423e-06
5.983300713e-06
6.276786614e-06
6.564806509e-06
6.827010436e-06
7.042981044e-06
7.201767251e-06
7.300342854e-06
7.334818636e-06
7.309490721e-06
7.2311869e-06
7.104755117e-06
6.937224179e-06
6.741535273e-06
6.52051431e-06
6.290200702e-06
6.327912627e-06
6.427884513e-06
6.527121895e-06
6.624065641e-06
6.719359636e-06
6.809607414e-06
6.89697207e-06
6.978803233e-06
7.054870751e-06
7.126015782e-06
7.189751623e-06
7.246341656e-06
7.29697264e-06
7.341379001e-06
7.527366467e-06
8.685780546e-06
2.088832721e-05
5.248134466e-05
4.374540305e-06
4.75932435e-06
4.964426443e-06
5.082235346e-06
5.188743552e-06
5.331975525e-06
5.532500555e-06
5.787494413e-06
6.077589585e-06
6.377506254e-06
6.661591427e-06
6.906091422e-06
7.094960017e-06
7.220357455e-06
7.278409732e-06
7.271604797e-06
7.206382168e-06
7.089612488e-06
6.928790743e-06
6.736872703e-06
6.518925754e-06
6.289721643e-06
6.327560381e-06
6.427572087e-06
6.526753784e-06
6.623797484e-06
6.718924693e-06
6.809369866e-06
6.896634187e-06
6.978505554e-06
7.054664848e-06
7.125725018e-06
7.189508779e-06
7.246184394e-06
7.296828615e-06
7.341229215e-06
7.571210264e-06
8.749567755e-06
2.191256791e-05
5.416968424e-05
4.334092762e-06
4.72428863e-06
4.936346452e-06
5.045682162e-06
5.125708253e-06
5.231937682e-06
5.395244495e-06
5.621919584e-06
5.8985532e-06
6.200361844e-06
6.498720061e-06
6.766234189e-06
6.982056118e-06
7.133761565e-06
7.215572775e-06
7.228279327e-06
7.177693021e-06
7.071602036e-06
6.918455398e-06
6.731029399e-06
6.516540431e-06
6.288854912e-06
6.327215481e-06
6.427253316e-06
6.526397022e-06
6.623511571e-06
6.718513902e-06
6.809114498e-06
6.89630436e-06
6.978211047e-06
7.05444978e-06
7.125440821e-06
7.189268164e-06
7.24602409e-06
7.296683885e-06
7.341082045e-06
7.615788124e-06
8.814702111e-06
2.296142666e-05
5.589656761e-05
4.301941936e-06
4.698605682e-06
4.919925926e-06
5.027355285e-06
5.089171781e-06
5.163877478e-06
5.290776746e-06
5.485312228e-06
5.741056073e-06
6.036247219e-06
6.341360339e-06
6.626054222e-06
6.865125373e-06
7.041682775e-06
7.146987741e-06
7.179838376e-06
7.145054664e-06
7.05068804e-06
6.906080346e-06
6.723945473e-06
6.51329595e-06
6.287565695e-06
6.326876034e-06
6.426930565e-06
6.526048323e-06
6.623212737e-06
6.718121832e-06
6.808845426e-06
6.895980885e-06
6.977919249e-06
7.054227029e-06
7.125162224e-06
7.189029688e-06
7.245861091e-06
7.296538509e-06
7.340937349e-06
7.661145456e-06
8.88119954e-06
2.403536465e-05
5.766310906e-05
4.275825897e-06
4.679892562e-06
4.911878896e-06
5.022035818e-06
5.072023586e-06
5.12124748e-06
5.214406691e-06
5.375338691e-06
5.605239147e-06
5.8869327e-06
6.191859887e-06
6.487875106e-06
6.746093479e-06
6.945349397e-06
7.073408735e-06
7.126658029e-06
7.108524108e-06
7.026840048e-06
6.891577884e-06
6.715513406e-06
6.509135844e-06
6.285791056e-06
6.326540772e-06
6.426605467e-06
6.525705382e-06
6.622904577e-06
6.717744325e-06
6.808565841e-06
6.895662447e-06
6.97762975e-06
7.053997843e-06
7.12488842e-06
7.188793247e-06
7.245695713e-06
7.296392554e-06
7.340795001e-06
7.707323109e-06
8.949078658e-06
2.513487412e-05
5.947040686e-05
4.254245308e-06
4.66638207e-06
4.909842007e-06
5.025835369e-06
5.069480058e-06
5.098647252e-06
5.161631516e-06
5.289338609e-06
5.490435362e-06
5.753304282e-06
6.051945123e-06
6.353650914e-06
6.626704444e-06
6.846015856e-06
6.995642861e-06
7.069170629e-06
7.068242622e-06
7.000058471e-06
6.87489415e-06
6.705647576e-06
6.504008425e-06
6.283472163e-06
6.326208998e-06
6.42627916e-06
6.525366594e-06
6.622589765e-06
6.717378195e-06
6.808278214e-06
6.895348028e-06
6.977342191e-06
7.053763273e-06
7.124618737e-06
7.18855873e-06
7.245528237e-06
7.296246083e-06
7.340654891e-06
7.754358333e-06
9.018360363e-06
2.626047515e-05
6.131954993e-05
4.23615069e-06
4.656777829e-06
4.912124244e-06
5.036042694e-06
5.077388321e-06
5.091221577e-06
5.128334588e-06
5.224424863e-06
5.395314131e-06
5.635547377e-06
5.922771967e-06
6.224954669e-06
6.508499527e-06
6.744900304e-06
6.91452512e-06
7.007856353e-06
7.024414829e-06
6.970382627e-06
6.856002334e-06
6.694275859e-06
6.49784285e-06
6.280551641e-06
6.325880315e-06
6.425952443e-06
6.525030854e-06
6.622270286e-06
6.717021e-06
6.807984462e-06
6.89503684e-06
6.977056261e-06
7.053524204e-06
7.124352612e-06
7.188326021e-06
7.245358915e-06
7.296099163e-06
7.340516921e-06
7.80228556e-06
9.08906752e-06
2.741271306e-05
6.321162328e-05
4.220784237e-06
4.650127806e-06
4.917511689e-06
5.050754628e-06
5.092983725e-06
5.096045305e-06
5.111061998e-06
5.177787494e-06
5.318311173e-06
5.533343003e-06
5.805007655e-06
6.102993082e-06
6.392804989e-06
6.643144498e-06
6.830890492e-06
6.943230007e-06
6.977294668e-06
6.937891035e-06
6.834900453e-06
6.681345618e-06
6.490618771e-06
6.27697662e-06
6.325554208e-06
6.42562586e-06
6.524697413e-06
6.621947611e-06
6.716670869e-06
6.807686075e-06
6.894728271e-06
6.976771695e-06
7.053281383e-06
7.124089573e-06
7.188095007e-06
7.245187974e-06
7.295951859e-06
7.340381004e-06
7.851137039e-06
9.161224747e-06
2.859215647e-05
6.514771279e-05
4.207586576e-06
4.64572729e-06
4.925121375e-06
5.068591811e-06
5.114096291e-06
5.109910806e-06
5.106408746e-06
5.146768992e-06
5.257685077e-06
5.446077659e-06
5.698921817e-06
5.988637374e-06
6.280728145e-06
6.541797923e-06
6.745539399e-06
6.875828739e-06
6.92717431e-06
6.902698291e-06
6.811609896e-06
6.666819991e-06
6.482284256e-06
6.272701573e-06
6.32523059e-06
6.42529978e-06
6.524365769e-06
6.621622834e-06
6.716326367e-06
6.807384209e-06
6.894421845e-06
6.976488269e-06
7.053035436e-06
7.123829225e-06
7.187865576e-06
7.245015617e-06
7.295804237e-06
7.340247065e-06
7.900943368e-06
9.234858319e-06
2.979939577e-05
6.712890916e-05
4.196137041e-06
4.643049949e-06
4.934306739e-06
5.088557841e-06
5.139144584e-06
5.130724653e-06
5.112446275e-06
5.12908182e-06
5.211662191e-06
5.372757942e-06
5.604451727e-06
5.882461371e-06
6.173160964e-06
6.441783594e-06
6.659242328e-06
6.80619687e-06
6.874374053e-06
6.864950437e-06
6.786174233e-06
6.650678998e-06
6.472805016e-06
6.26768646e-06
6.324909363e-06
6.424974433e-06
6.524035596e-06
6.621296766e-06
6.715986391e-06
6.807079764e-06
6.894117189e-06
6.976205795e-06
7.052786893e-06
7.123571232e-06
7.18763762e-06
7.244842026e-06
7.295656359e-06
7.34011504e-06
7.951733948e-06
9.309996249e-06
3.103504216e-05
6.915631134e-05
4.186114056e-06
4.641699192e-06
4.944590781e-06
5.109925913e-06
5.16694061e-06
5.156740255e-06
5.126708283e-06
5.122289545e-06
5.178509384e-06
5.312393807e-06
5.521306213e-06
5.784788693e-06
6.070794316e-06
6.343900496e-06
6.572716598e-06
6.734874109e-06
6.819232973e-06
6.824819758e-06
6.758657708e-06
6.632918873e-06
6.462154114e-06
6.261890734e-06
6.324590494e-06
6.424650344e-06
6.523706713e-06
6.62097001e-06
6.715650096e-06
6.80677344e-06
6.893814011e-06
6.975924116e-06
7.0525362e-06
7.123315312e-06
7.187411038e-06
7.244667366e-06
7.295508288e-06
7.339984872e-06
8.003537361e-06
9.386668668e-06
3.22997273e-05
7.123102945e-05
4.177268111e-06
4.641373334e-06
4.955619803e-06
5.132164041e-06
5.19659775e-06
5.186623685e-06
5.147573806e-06
5.125100268e-06
5.156694845e-06
5.263900488e-06
5.449063272e-06
5.695738643e-06
5.974136989e-06
6.248824232e-06
6.486614762e-06
6.662386305e-06
6.762099996e-06
6.782499468e-06
6.729143378e-06
6.613551254e-06
6.450313195e-06
6.255284217e-06
6.324273947e-06
6.424327313e-06
6.523378996e-06
6.620643016e-06
6.715316833e-06
6.806465782e-06
6.893512082e-06
6.975643106e-06
7.052283731e-06
7.123061226e-06
7.187185733e-06
7.244491782e-06
7.295360085e-06
7.339856514e-06
8.056381648e-06
9.464908753e-06
3.359410352e-05
7.335418752e-05
4.169403047e-06
4.641840999e-06
4.967130339e-06
5.15488151e-06
5.227450862e-06
5.219328512e-06
5.173621332e-06
5.135627605e-06
5.144741767e-06
5.226161547e-06
5.387086871e-06
5.615254703e-06
5.883536091e-06
6.157111608e-06
6.401526235e-06
6.589228024e-06
6.703327224e-06
6.738198665e-06
6.697730955e-06
6.592602156e-06
6.437272935e-06
6.247846632e-06
6.323959706e-06
6.424005587e-06
6.523052387e-06
6.620316118e-06
6.714986102e-06
6.806157216e-06
6.893211221e-06
6.975362658e-06
7.052029805e-06
7.122808772e-06
7.186961616e-06
7.244315407e-06
7.295211807e-06
7.339729925e-06
8.110294302e-06
9.571153154e-06
3.491884517e-05
7.552692586e-05
4.16236281e-06
4.642923401e-06
4.978925551e-06
5.177791155e-06
5.259000854e-06
5.2540398e-06
5.203705531e-06
5.152507816e-06
5.140944409e-06
5.198077014e-06
5.33475785e-06
5.543158234e-06
5.799200917e-06
6.069207829e-06
6.317974428e-06
6.515856259e-06
6.643263848e-06
6.692137571e-06
6.664534437e-06
6.570110739e-06
6.423032236e-06
6.239554706e-06
6.323647754e-06
6.42368526e-06
6.522726867e-06
6.619989568e-06
6.714657519e-06
6.805848074e-06
6.892911294e-06
6.975082677e-06
7.051774689e-06
7.122557775e-06
7.186738603e-06
7.24413836e-06
7.295063511e-06
7.33960507e-06
8.165301606e-06
1.04109119e-05
3.627465105e-05
7.775040304e-05
4.156021891e-06
4.644481337e-06
4.990858318e-06
5.200682331e-06
5.2908738e-06
5.290125675e-06
5.236915187e-06
5.174694027e-06
5.144788053e-06
5.178710589e-06
5.291403282e-06
5.479172346e-06
5.721224935e-06
5.98545458e-06
6.236403756e-06
6.44270097e-06
6.582250334e-06
6.644543082e-06
6.629679628e-06
6.546128015e-06
6.407598449e-06
6.230393987e-06
6.323338067e-06
6.423366406e-06
6.522402432e-06
6.619663551e-06
6.714330791e-06
6.805538616e-06
6.892612191e-06
6.974803094e-06
7.051518608e-06
7.122308089e-06
7.186516618e-06
7.243960746e-06
7.29491525e-06
7.339481914e-06
8.221430742e-06
1.127057187e-05
3.766224187e-05
8.002579604e-05
4.150278376e-06
4.646405845e-06
5.00281863e-06
5.223401107e-06
5.322789576e-06
5.327092919e-06
5.272500233e-06
5.2011945e-06
5.154856465e-06
5.167094867e-06
5.256330158e-06
5.422993734e-06
5.649608438e-06
5.906101092e-06
6.157190276e-06
6.370153467e-06
6.520614101e-06
6.595644734e-06
6.593301642e-06
6.520715479e-06
6.390987045e-06
6.22274376e-06
6.323030609e-06
6.423049076e-06
6.522079046e-06
6.619338207e-06
6.714005692e-06
6.805229044e-06
6.892313823e-06
6.974523853e-06
7.051261752e-06
7.122059585e-06
7.186295591e-06
7.243782661e-06
7.294767075e-06
7.339360432e-06
8.278708576e-06
1.21505632e-05
3.908235121e-05
8.235429912e-05
4.14504877e-06
4.648611156e-06
5.014724452e-06
5.245835844e-06
5.354539e-06
5.364557067e-06
5.309851878e-06
5.231188823e-06
5.170226207e-06
5.162115096e-06
5.2288308e-06
5.374169006e-06
5.584264582e-06
5.831314369e-06
6.080645656e-06
6.29856397e-06
6.458666404e-06
6.545671081e-06
6.555542458e-06
6.493943705e-06
6.373221096e-06
6.222453326e-06
6.322725331e-06
6.422733324e-06
6.521756943e-06
6.619013653e-06
6.713682047e-06
6.80491952e-06
6.892016119e-06
6.974244914e-06
7.05100428e-06
7.121812154e-06
7.186075457e-06
7.243604192e-06
7.294619037e-06
7.339240598e-06
8.337161744e-06
1.305132993e-05
4.053572617e-05
8.473711881e-05
4.140264096e-06
4.65102942e-06
5.02651494e-06
5.267906635e-06
5.385966931e-06
5.402219402e-06
5.348479003e-06
5.264001126e-06
5.190154412e-06
5.163391867e-06
5.208293264e-06
5.332315331e-06
5.525052611e-06
5.761191638e-06
6.007021652e-06
6.228240758e-06
6.396700821e-06
6.494846283e-06
6.5165486e-06
6.465890931e-06
6.354330557e-06
6.222164968e-06
6.322422175e-06
6.422419173e-06
6.521435942e-06
6.618689968e-06
6.713359725e-06
6.804610167e-06
6.891719021e-06
6.973966244e-06
7.050746326e-06
7.121565703e-06
7.185856156e-06
7.243425416e-06
7.294471182e-06
7.339122397e-06
8.396816741e-06
1.397332975e-05
4.202312929e-05
8.71754619e-05
4.135866936e-06
4.653606745e-06
5.038145373e-06
5.289557474e-06
5.416959472e-06
5.439848344e-06
5.387983973e-06
5.299058617e-06
5.21392837e-06
5.169971754e-06
5.194076877e-06
5.296998785e-06
5.471782859e-06
5.695770728e-06
5.93651579e-06
6.159455912e-06
6.334985864e-06
6.443387569e-06
6.476469047e-06
6.436641697e-06
6.334351913e-06
6.221878406e-06
6.322121038e-06
6.422106635e-06
6.521116144e-06
6.618367216e-06
6.713038625e-06
6.804301083e-06
6.891422483e-06
6.973687818e-06
7.050488005e-06
7.121320148e-06
7.185637637e-06
7.243246404e-06
7.294323559e-06
7.372276548e-06
8.457700005e-06
1.491703329e-05
4.354533677e-05
8.967058653e-05
4.131809158e-06
4.656300173e-06
5.049583317e-06
5.310750457e-06
5.447434285e-06
5.477265107e-06
5.428045223e-06
5.335880263e-06
5.240936456e-06
5.181207699e-06
5.185597456e-06
5.267778833e-06
5.424241367e-06
5.635040563e-06
5.869276809e-06
6.092447714e-06
6.273761358e-06
6.391504559e-06
6.435453447e-06
6.406285523e-06
6.313327405e-06
6.221593327e-06
6.321821822e-06
6.421795712e-06
6.520797576e-06
6.618045444e-06
6.712718668e-06
6.803992346e-06
6.891126471e-06
6.973409622e-06
7.050229413e-06
7.121075419e-06
7.185419849e-06
7.243067219e-06
7.294176212e-06
7.414489672e-06
8.519838066e-06
1.588292397e-05
4.510314044e-05
9.222378579e-05
4.128050149e-06
4.659075395e-06
5.060805819e-06
5.331461167e-06
5.47733336e-06
5.514332607e-06
5.468403404e-06
5.374063802e-06
5.27065152e-06
5.196495671e-06
5.182053138e-06
5.244207032e-06
5.382175957e-06
5.578947632e-06
5.805408927e-06
6.027414899e-06
6.213248025e-06
6.339396404e-06
6.393650393e-06
6.374915656e-06
6.291304325e-06
6.221309383e-06
6.321524402e-06
6.42148639e-06
6.520480263e-06
6.617724691e-06
6.712399796e-06
6.803684015e-06
6.890830956e-06
6.973131638e-06
7.04997063e-06
7.120831453e-06
7.185202749e-06
7.242887919e-06
7.294029183e-06
7.457598668e-06
8.583257587e-06
1.687149773e-05
4.669734895e-05
9.483637884e-05
4.124555437e-06
4.661904969e-06
5.071797264e-06
5.351675433e-06
5.506617281e-06
5.550946729e-06
5.508849991e-06
5.413274229e-06
5.302627737e-06
5.215370117e-06
5.183386602e-06
5.225912029e-06
5.345321134e-06
5.527404736e-06
5.744976901e-06
5.96451883e-06
6.153647637e-06
6.287251167e-06
6.351205981e-06
6.342627889e-06
6.268334303e-06
6.221026199e-06
6.32122863e-06
6.421178647e-06
6.520164224e-06
6.617404987e-06
6.712081963e-06
6.80337614e-06
6.890535919e-06
6.972853858e-06
7.049711726e-06
7.120588196e-06
7.184986298e-06
7.242708557e-06
7.293882512e-06
7.501621903e-06
8.647985415e-06
1.788326292e-05
4.832878823e-05
9.750971163e-05
4.12129559e-06
4.66476691e-06
5.082547562e-06
5.371386915e-06
5.535260939e-06
5.587029379e-06
5.549217543e-06
5.453230865e-06
5.336473693e-06
5.237350894e-06
5.18888411e-06
5.215089875e-06
5.326148734e-06
5.480298873e-06
5.688011676e-06
5.903890643e-06
6.095138833e-06
6.235244824e-06
6.308262577e-06
6.309519475e-06
6.244472591e-06
6.22074337e-06
6.32093434e-06
6.420872442e-06
6.51984947e-06
6.617086353e-06
6.711765136e-06
6.803068757e-06
6.89024134e-06
6.972576277e-06
7.049452757e-06
7.1203456e-06
7.184770459e-06
7.242529182e-06
7.29373624e-06
7.546578062e-06
8.714048622e-06
1.891874022e-05
4.999830181e-05
0.0001002451577
4.118245347e-06
4.667643601e-06
5.093050893e-06
5.390595117e-06
5.56325019e-06
5.622523028e-06
5.589372016e-06
5.493698744e-06
5.371850416e-06
5.262019532e-06
5.198122744e-06
5.20923886e-06
5.321509098e-06
5.437495562e-06
5.634515302e-06
5.845633553e-06
6.037878149e-06
6.183540787e-06
6.264957777e-06
6.275688133e-06
6.219777386e-06
6.220460471e-06
6.320641346e-06
6.420567725e-06
6.519536006e-06
6.616768803e-06
6.711449287e-06
6.802761896e-06
6.889947206e-06
6.972298893e-06
7.049193772e-06
7.120103622e-06
7.1845552e-06
7.242349838e-06
7.293590404e-06
7.592486146e-06
8.781474549e-06
1.997846266e-05
5.170675127e-05
0.000103044119
4.115382912e-06
4.670520939e-06
5.103304751e-06
5.409303868e-06
5.590579289e-06
5.65738643e-06
5.629206673e-06
5.534481635e-06
5.408465791e-06
5.289007298e-06
5.210701256e-06
5.203390674e-06
5.316822092e-06
5.425083394e-06
5.584465875e-06
5.789825466e-06
5.982000972e-06
6.132289904e-06
6.221423542e-06
6.241231154e-06
6.194309165e-06
6.220177053e-06
6.320349444e-06
6.420264432e-06
6.519223826e-06
6.61645233e-06
6.711134394e-06
6.802455581e-06
6.889653507e-06
6.972021706e-06
7.048934813e-06
7.119862224e-06
7.184340493e-06
7.242170565e-06
7.293445042e-06
7.639365482e-06
8.850290835e-06
2.106297569e-05
5.345501656e-05
0.0001059080264
4.112689394e-06
4.673387637e-06
5.113309032e-06
5.427520312e-06
5.617248903e-06
5.691591256e-06
5.668637146e-06
5.575416096e-06
5.446068908e-06
5.317991655e-06
5.226274997e-06
5.197554899e-06
5.312097239e-06
5.421465091e-06
5.5378245e-06
5.736521613e-06
5.927622242e-06
6.081631054e-06
6.177785397e-06
6.206244594e-06
6.168130057e-06
6.219892654e-06
6.320058412e-06
6.419962485e-06
6.51891292e-06
6.616136926e-06
6.71082044e-06
6.80214983e-06
6.889360235e-06
6.971744717e-06
7.048675914e-06
7.119621373e-06
7.184126312e-06
7.241991402e-06
7.293300191e-06
7.687235728e-06
8.920525446e-06
2.21728372e-05
5.524399642e-05
0.0001088383407
4.11014834e-06
4.6762347e-06
5.123065536e-06
5.445253928e-06
5.643264551e-06
5.725119402e-06
5.707597386e-06
5.616366244e-06
5.484444005e-06
5.348687487e-06
5.244525581e-06
5.199873549e-06
5.307343289e-06
5.417785492e-06
5.523584177e-06
5.685756525e-06
5.874839177e-06
6.031689993e-06
6.134161435e-06
6.170822595e-06
6.141303257e-06
6.219606794e-06
6.319768013e-06
6.419661799e-06
6.518603279e-06
6.615822738e-06
6.710507419e-06
6.801844659e-06
6.889067382e-06
6.971467929e-06
7.048417103e-06
7.119381041e-06
7.183912634e-06
7.241812384e-06
7.293155887e-06
7.736116882e-06
8.992206702e-06
2.330861769e-05
5.707460876e-05
0.0001118365531
4.107745369e-06
4.679055001e-06
5.132577516e-06
5.462515847e-06
5.668635382e-06
5.757960843e-06
5.746036328e-06
5.6572193e-06
5.523405218e-06
5.380841001e-06
5.265152607e-06
5.205401015e-06
5.302568142e-06
5.41405176e-06
5.520825164e-06
5.637548301e-06
5.823736364e-06
5.982574269e-06
6.090663081e-06
6.135056904e-06
6.119418593e-06
6.219318982e-06
6.319477993e-06
6.419362273e-06
6.518294873e-06
6.61550959e-06
6.710195318e-06
6.801540079e-06
6.888774946e-06
6.971191346e-06
7.048158407e-06
7.119141199e-06
7.18369944e-06
7.241633544e-06
7.293012166e-06
7.78602929e-06
9.065363298e-06
2.447090035e-05
5.894779104e-05
0.0001149041864
4.105467856e-06
4.681842937e-06
5.141849291e-06
5.479318346e-06
5.693373237e-06
5.790111926e-06
5.783915171e-06
5.697881934e-06
5.562792569e-06
5.414227442e-06
5.287885226e-06
5.213800775e-06
5.297779132e-06
5.410270715e-06
5.518001521e-06
5.621789008e-06
5.774382229e-06
5.934379468e-06
6.047394441e-06
6.099036311e-06
6.119102143e-06
6.219028717e-06
6.319188087e-06
6.419063788e-06
6.517987669e-06
6.615197534e-06
6.709884126e-06
6.801236098e-06
6.888482921e-06
6.970914971e-06
7.047899845e-06
7.118901825e-06
7.18348671e-06
7.241454913e-06
7.292869063e-06
7.836993665e-06
9.140024337e-06
2.566028126e-05
6.086450066e-05
0.0001180427951
4.10330468e-06
4.684594141e-06
5.150885953e-06
5.495674459e-06
5.717491907e-06
5.821574004e-06
5.821205174e-06
5.738277248e-06
5.60246862e-06
5.448648428e-06
5.312479154e-06
5.224812206e-06
5.292982969e-06
5.406448712e-06
5.515118323e-06
5.619731835e-06
5.726828347e-06
5.887193186e-06
6.004452287e-06
6.06284594e-06
6.118777262e-06
6.218735502e-06
6.318898015e-06
6.418766223e-06
6.517681624e-06
6.614886562e-06
6.709573835e-06
6.800932725e-06
6.888191307e-06
6.970638809e-06
7.047641435e-06
7.118662896e-06
7.18327443e-06
7.24127652e-06
7.292726612e-06
7.889031101e-06
9.216219362e-06
2.687736956e-05
6.282571542e-05
0.0001212539668
4.101246003e-06
4.68730526e-06
5.159693146e-06
5.511597665e-06
5.741006567e-06
5.852352341e-06
5.857885842e-06
5.778342244e-06
5.642315584e-06
5.483929466e-06
5.338715273e-06
5.238188554e-06
5.288183181e-06
5.402591446e-06
5.512180449e-06
5.617614087e-06
5.719908577e-06
5.841093013e-06
5.961926155e-06
6.026567327e-06
6.118443236e-06
6.218438837e-06
6.318607489e-06
6.418469445e-06
6.517376691e-06
6.614576658e-06
6.709264435e-06
6.800629963e-06
6.887900101e-06
6.970362865e-06
7.047383193e-06
7.118424395e-06
7.183062585e-06
7.241098392e-06
7.292584851e-06
7.942163103e-06
9.29397842e-06
2.812278768e-05
6.483243389e-05
0.0001245393225
4.099283099e-06
4.689973764e-06
5.168276884e-06
5.527101659e-06
5.763933331e-06
5.882455233e-06
5.893943432e-06
5.818025674e-06
5.682232713e-06
5.519917559e-06
5.366401415e-06
5.253749518e-06
5.283388428e-06
5.398704677e-06
5.509192554e-06
5.615438993e-06
5.718404974e-06
5.819216194e-06
5.919898304e-06
6.01840637e-06
6.11809937e-06
6.218138225e-06
6.318316213e-06
6.418173307e-06
6.517072814e-06
6.614267804e-06
6.708955917e-06
6.800327816e-06
6.887609303e-06
6.970087142e-06
7.047125129e-06
7.118186303e-06
7.182851163e-06
7.240920556e-06
7.292443812e-06
7.996411621e-06
9.373332155e-06
2.939717172e-05
6.688567591e-05
0.0001279005176
4.0974082e-06
4.692597801e-06
5.176643412e-06
5.542200154e-06
5.786288921e-06
5.911893294e-06
5.92936971e-06
5.857286169e-06
5.722133792e-06
5.556477423e-06
5.395359855e-06
5.271282685e-06
5.278601964e-06
5.394793569e-06
5.506159273e-06
5.613209776e-06
5.716849205e-06
5.818174288e-06
5.918252682e-06
6.017936453e-06
6.117745011e-06
6.217833171e-06
6.318023883e-06
6.417877658e-06
6.516769929e-06
6.613959978e-06
6.708648271e-06
6.800026286e-06
6.887318912e-06
6.969811645e-06
7.046867252e-06
7.117948606e-06
7.182640155e-06
7.240743037e-06
7.292303533e-06
8.051799105e-06
9.454312013e-06
3.070117189e-05
6.89864831e-05
0.0001313392428
4.095614371e-06
4.695176077e-06
5.184799098e-06
5.556906698e-06
5.808090438e-06
5.940678876e-06
5.964160922e-06
5.896090676e-06
5.761945106e-06
5.593489457e-06
5.425429274e-06
5.290598035e-06
5.273828003e-06
5.390862951e-06
5.503084875e-06
5.610929609e-06
5.71524307e-06
5.817089828e-06
5.917533751e-06
6.017446357e-06
6.117379536e-06
6.217523189e-06
6.317730188e-06
6.417582333e-06
6.516467967e-06
6.613653154e-06
6.708341486e-06
6.799725373e-06
6.887028932e-06
6.969536378e-06
7.046609571e-06
7.117711287e-06
7.18242955e-06
7.240565858e-06
7.292164048e-06
8.108348565e-06
9.536950617e-06
3.203545335e-05
7.113591952e-05
0.000134857225
4.093895401e-06
4.697707754e-06
5.192750392e-06
5.571234778e-06
5.829354838e-06
5.968825676e-06
5.998316958e-06
5.934413157e-06
5.801603775e-06
5.63084814e-06
5.456464249e-06
5.311523326e-06
5.269070354e-06
5.386917328e-06
5.499973471e-06
5.608601608e-06
5.713588423e-06
5.815963515e-06
5.916783348e-06
6.016935572e-06
6.117002361e-06
6.217207801e-06
6.317434816e-06
6.417287164e-06
6.516166852e-06
6.613347301e-06
6.70803555e-06
6.799425079e-06
6.886739357e-06
6.96926135e-06
7.04635209e-06
7.117474336e-06
7.182219342e-06
7.240389043e-06
7.292025394e-06
8.166083612e-06
9.621282515e-06
3.340069728e-05
7.333507244e-05
0.0001384562282
4.092245715e-06
4.700192372e-06
5.200503732e-06
5.585197607e-06
5.850099028e-06
5.996348274e-06
6.031840648e-06
5.972233503e-06
5.841056349e-06
5.668460579e-06
5.488334008e-06
5.333900905e-06
5.264332366e-06
5.382960926e-06
5.496828908e-06
5.606228815e-06
5.711887152e-06
5.814796136e-06
5.916001459e-06
6.016403657e-06
6.116612935e-06
6.216886538e-06
6.317137451e-06
6.416991973e-06
6.515866499e-06
6.613042386e-06
6.70773045e-06
6.7991254e-06
6.886450185e-06
6.968986567e-06
7.046094816e-06
7.117237738e-06
7.182009522e-06
7.240212614e-06
7.291887606e-06
8.225028335e-06
9.707345635e-06
3.47976027e-05
7.558505332e-05
0.000142138054
4.090660294e-06
4.702629774e-06
5.208065489e-06
5.598808032e-06
5.870339765e-06
6.023261874e-06
6.064737196e-06
6.009536627e-06
5.880257595e-06
5.70624518e-06
5.520921286e-06
5.357587074e-06
5.259616833e-06
5.378995637e-06
5.493654648e-06
5.603814162e-06
5.710141163e-06
5.813588556e-06
5.915188153e-06
6.015850237e-06
6.116210747e-06
6.216558949e-06
6.316837776e-06
6.416696578e-06
6.515566822e-06
6.61273837e-06
6.70742617e-06
6.798826333e-06
6.886161415e-06
6.968712033e-06
7.045837753e-06
7.117001484e-06
7.181800086e-06
7.24003659e-06
7.291750719e-06
8.285206631e-06
1.011726139e-05
3.622688934e-05
7.788699909e-05
0.0001459045435
4.089134606e-06
4.705020049e-06
5.215441927e-06
5.612078531e-06
5.890093527e-06
6.049582081e-06
6.097013705e-06
6.046311681e-06
5.919169417e-06
5.744130378e-06
5.554121231e-06
5.38245425e-06
5.257830675e-06
5.37502751e-06
5.490454381e-06
5.601360531e-06
5.708352372e-06
5.812341704e-06
5.91434358e-06
6.015274999e-06
6.115795321e-06
6.216224592e-06
6.316535475e-06
6.41640079e-06
6.515267724e-06
6.612435213e-06
6.707122695e-06
6.798527876e-06
6.885873047e-06
6.96843775e-06
7.045580906e-06
7.116765563e-06
7.181591029e-06
7.239860993e-06
7.293867165e-06
8.346642676e-06
1.103847027e-05
3.768929962e-05
8.024207311e-05
0.0001497575772
4.08766455e-06
4.707363482e-06
5.222639182e-06
5.625021195e-06
5.909376422e-06
6.075324702e-06
6.128678788e-06
6.082551391e-06
5.957759885e-06
5.782053345e-06
5.587839257e-06
5.408382463e-06
5.272942809e-06
5.371058528e-06
5.487231391e-06
5.598870656e-06
5.706522692e-06
5.811056562e-06
5.913467967e-06
6.014677696e-06
6.11536622e-06
6.215883046e-06
6.316230233e-06
6.416104418e-06
6.514969107e-06
6.612132869e-06
6.706820005e-06
6.798230024e-06
6.885585079e-06
6.968163721e-06
7.045324275e-06
7.116529967e-06
7.181382346e-06
7.239685845e-06
7.337272363e-06
8.409362029e-06
1.198135089e-05
3.918559414e-05
8.265146529e-05
0.0001536990761
4.086246403e-06
4.70966052e-06
5.229663243e-06
5.637647753e-06
5.928204111e-06
6.100505606e-06
6.159742239e-06
6.118251483e-06
5.996002396e-06
5.819958918e-06
5.621990003e-06
5.435260385e-06
5.289506283e-06
5.367091597e-06
5.483988759e-06
5.596347281e-06
5.704654036e-06
5.809734155e-06
5.912561608e-06
6.014058136e-06
6.114923046e-06
6.215533903e-06
6.315921739e-06
6.415807264e-06
6.514670866e-06
6.611831289e-06
6.706518081e-06
6.797932771e-06
6.885297508e-06
6.967889949e-06
7.045067865e-06
7.116294685e-06
7.181174033e-06
7.239511163e-06
7.381601981e-06
8.473390509e-06
1.294636364e-05
4.071654534e-05
8.511639192e-05
0.0001577310025
4.084876783e-06
4.711911729e-06
5.236519911e-06
5.649969419e-06
5.946591903e-06
6.125140618e-06
6.190214769e-06
6.153410198e-06
6.033874955e-06
5.857798719e-06
5.656496526e-06
5.462986018e-06
5.307404264e-06
5.363129375e-06
5.480729419e-06
5.593792924e-06
5.702748293e-06
5.808375557e-06
5.911624846e-06
6.013416185e-06
6.114465437e-06
6.215176777e-06
6.315609686e-06
6.415509131e-06
6.514372892e-06
6.611530422e-06
6.706216901e-06
6.797636098e-06
6.885010344e-06
6.967616435e-06
7.044811676e-06
7.116059711e-06
7.180966088e-06
7.239336965e-06
7.426874379e-06
8.538754108e-06
1.393398285e-05
4.228293878e-05
8.763809524e-05
0.0001618553607
4.083552602e-06
4.714117777e-06
5.243214807e-06
5.661996989e-06
5.96455465e-06
6.14924542e-06
6.220107777e-06
6.188027889e-06
6.071359566e-06
5.895530399e-06
5.691289598e-06
5.49146601e-06
5.32652825e-06
5.35917428e-06
5.477456173e-06
5.591210073e-06
5.700807316e-06
5.80698187e-06
5.910658082e-06
6.01275176e-06
6.11399307e-06
6.214811297e-06
6.315293771e-06
6.415209817e-06
6.514075071e-06
6.611230211e-06
6.705916438e-06
6.797339993e-06
6.884723588e-06
6.96734318e-06
7.044555708e-06
7.115825038e-06
7.180758508e-06
7.239163267e-06
7.473108274e-06
8.605479032e-06
1.494469648e-05
4.388557468e-05
9.021784393e-05
0.0001660741978
4.082271045e-06
4.716279413e-06
5.249753377e-06
5.673740873e-06
5.982106693e-06
6.172835463e-06
6.24943316e-06
6.222106669e-06
6.108441714e-06
5.933116988e-06
5.72630702e-06
5.520615013e-06
5.346777304e-06
5.355228455e-06
5.474171163e-06
5.588601079e-06
5.698832928e-06
5.805554217e-06
5.909661759e-06
6.012064829e-06
6.113505658e-06
6.214437115e-06
6.314973699e-06
6.414909119e-06
6.513777287e-06
6.610930596e-06
6.70561666e-06
6.797044445e-06
6.884437238e-06
6.967070187e-06
7.044299963e-06
7.115590659e-06
7.180551293e-06