/*--------------------------------*- C++ -*----------------------------------*\
| =========                 |                                                 |
| \\      /  F ield         | OpenFOAM: The Open Source CFD Toolbox           |
|  \\    /   O peration     | Version:  v2006                                 |
|   \\  /    A nd           | Website:  www.openfoam.com                      |
|    \\/     M anipulation  |                                                 |
\*---------------------------------------------------------------------------*/
FoamFile
{
    version     2.0;
    format      ascii;
    class       volScalarField;
    location    "0.09";
    object      H2O2;
}
// * * * * * * * * * * * * * * * * * * * * * * * * * * * * * * * * * * * * * //

dimensions      [0 0 0 0 0 0 0];


internalField   nonuniform List<scalar> 
168000
(
6.17731406e-09
6.729791177e-09
7.226376514e-09
7.765350004e-09
8.295580076e-09
8.774231672e-09
9.264799208e-09
9.754320586e-09
1.011486818e-08
1.041822193e-08
1.069189236e-08
1.08399058e-08
1.089225063e-08
1.090371559e-08
1.077773089e-08
1.057999239e-08
1.032771532e-08
9.96560246e-09
9.564033216e-09
9.103938201e-09
8.603421238e-09
8.093925533e-09
8.104937333e-09
8.233234582e-09
8.36142709e-09
8.485406861e-09
8.60921756e-09
8.724090612e-09
8.83722375e-09
8.942317132e-09
9.039730973e-09
9.131781506e-09
9.213571831e-09
9.286023277e-09
9.351154318e-09
9.408353817e-09
9.495672458e-09
1.158894303e-08
3.266398828e-08
9.984981182e-08
6.026514641e-09
6.618321485e-09
6.986390548e-09
7.355068054e-09
7.767732633e-09
8.216360768e-09
8.708419212e-09
9.216064092e-09
9.66639512e-09
1.006146805e-08
1.039824271e-08
1.062667851e-08
1.075062214e-08
1.079209231e-08
1.07133032e-08
1.054283644e-08
1.029599764e-08
9.956898103e-09
9.554274539e-09
9.102412668e-09
8.603718933e-09
8.094837379e-09
8.104425082e-09
8.23289218e-09
8.360863187e-09
8.485192703e-09
8.608497842e-09
8.723903358e-09
8.836737039e-09
8.941917661e-09
9.039516703e-09
9.131371673e-09
9.213250372e-09
9.285835876e-09
9.350972104e-09
9.408149621e-09
9.576185262e-09
1.170354687e-08
3.48175039e-08
1.034249131e-07
5.890351269e-09
6.514657819e-09
6.833189959e-09
7.089029301e-09
7.389867255e-09
7.767652e-09
8.22418315e-09
8.729586561e-09
9.228022824e-09
9.689839367e-09
1.009029047e-08
1.039115097e-08
1.058177949e-08
1.066728826e-08
1.063286473e-08
1.04927888e-08
1.026111967e-08
9.939387622e-09
9.543835334e-09
9.097919982e-09
8.603366279e-09
8.095154896e-09
8.103939884e-09
8.232521637e-09
8.360339923e-09
8.48492119e-09
8.607845772e-09
8.723666055e-09
8.836272056e-09
8.941524384e-09
9.039282511e-09
9.13097577e-09
9.212931893e-09
9.285642879e-09
9.350788784e-09
9.407949482e-09
9.657764297e-09
1.182068221e-08
3.702416909e-08
1.070794684e-07
5.793267266e-09
6.433203553e-09
6.738124775e-09
6.924079496e-09
7.129983074e-09
7.422860015e-09
7.819869322e-09
8.299527828e-09
8.81407547e-09
9.318940489e-09
9.77389967e-09
1.013881272e-08
1.039206004e-08
1.052756661e-08
1.053776964e-08
1.043095579e-08
1.022046274e-08
9.915939254e-09
9.53102008e-09
9.09124178e-09
8.602040379e-09
8.094955682e-09
8.103473399e-09
8.232132138e-09
8.359845609e-09
8.484607285e-09
8.607245816e-09
8.723390123e-09
8.835823997e-09
8.941136548e-09
9.03903158e-09
9.130591621e-09
9.212616411e-09
9.285444909e-09
9.350604414e-09
9.407753144e-09
9.740538806e-09
1.194035677e-08
3.928475981e-08
1.108162383e-07
5.723114973e-09
6.374297167e-09
6.682783607e-09
6.829043643e-09
6.960398556e-09
7.169196442e-09
7.494212668e-09
7.928756296e-09
8.434077199e-09
8.960073441e-09
9.456102461e-09
9.875407587e-09
1.018637124e-08
1.037348997e-08
1.042912877e-08
1.035805223e-08
1.017281699e-08
9.886923917e-09
9.514984972e-09
9.082448947e-09
8.599202089e-09
8.094233984e-09
8.103020076e-09
8.231730062e-09
8.359371869e-09
8.484262181e-09
8.606686068e-09
8.723084411e-09
8.835389159e-09
8.94075345e-09
9.038766593e-09
9.130217423e-09
9.212303884e-09
9.285242521e-09
9.350419061e-09
9.407560377e-09
9.824620663e-09
1.206258731e-08
4.160015542e-08
1.14637883e-07
5.670227139e-09
6.333765925e-09
6.655028821e-09
6.782208987e-09
6.858516295e-09
6.991581347e-09
7.240675946e-09
7.61706725e-09
8.093669837e-09
8.621340083e-09
9.143594314e-09
9.606508337e-09
9.96904699e-09
1.020672116e-08
1.030811599e-08
1.027466675e-08
1.011767846e-08
9.852384017e-09
9.495275403e-09
9.071385688e-09
8.59482369e-09
8.092768945e-09
8.102576207e-09
8.231319819e-09
8.358912733e-09
8.483894226e-09
8.6061574e-09
8.722755765e-09
8.834964689e-09
8.940374434e-09
9.038489812e-09
9.129851676e-09
9.211994224e-09
9.285036217e-09
9.3502328e-09
9.407370977e-09
9.910107892e-09
1.218739806e-08
4.397132516e-08
1.185469874e-07
5.629135118e-09
6.307059634e-09
6.646359471e-09
6.768317714e-09
6.806681755e-09
6.875450502e-09
7.05071791e-09
7.361824864e-09
7.795407268e-09
8.30824616e-09
8.842091003e-09
9.337230801e-09
9.744096845e-09
1.002944892e-08
1.017605065e-08
1.018142849e-08
1.005492584e-08
9.81224914e-09
9.471628757e-09
9.057934355e-09
8.588786645e-09
8.090492065e-09
8.102139357e-09
8.230904455e-09
8.358463976e-09
8.483509641e-09
8.605652826e-09
8.722409484e-09
8.834548393e-09
8.939998905e-09
9.038203142e-09
9.129493135e-09
9.211687317e-09
9.284826447e-09
9.35004571e-09
9.40718476e-09
9.997087502e-09
1.231481943e-08
4.639931754e-08
1.22546083e-07
5.596557553e-09
6.290575355e-09
6.651045935e-09
6.777495719e-09
6.791088359e-09
6.807958057e-09
6.91506503e-09
7.158351204e-09
7.539453084e-09
8.024156512e-09
8.556108418e-09
9.07206363e-09
9.515248312e-09
9.84405477e-09
1.003439515e-08
1.007906734e-08
9.984672311e-09
9.766460213e-09
9.443878017e-09
9.041886439e-09
8.580983212e-09
8.087281282e-09
8.101707891e-09
8.230486071e-09
8.358022628e-09
8.483113055e-09
8.605166993e-09
8.722049671e-09
8.834138579e-09
8.939626335e-09
9.037908191e-09
9.129140763e-09
9.21138303e-09
9.284613613e-09
9.349857872e-09
9.407001567e-09
1.008563776e-08
1.244488698e-08
4.888525145e-08
1.266376653e-07
5.57032159e-09
6.281600427e-09
6.665021645e-09
6.802465892e-09
6.802507551e-09
6.778557811e-09
6.824863589e-09
7.001365862e-09
7.324417171e-09
7.770723825e-09
8.288955775e-09
8.814776049e-09
9.285874414e-09
9.652968649e-09
9.884713794e-09
9.968421918e-09
9.907193409e-09
9.715018433e-09
9.411920851e-09
9.023076222e-09
8.571314484e-09
8.083022743e-09
8.101280916e-09
8.230066131e-09
8.357586625e-09
8.482707908e-09
8.604695802e-09
8.72167951e-09
8.833733937e-09
8.939256261e-09
9.037606312e-09
9.128793695e-09
9.211081218e-09
9.28439808e-09
9.349669371e-09
9.406821252e-09
1.017583005e-08
1.257764066e-08
5.143030891e-08
1.308242095e-07
5.548907817e-09
6.278137615e-09
6.685415936e-09
6.838215448e-09
6.832978247e-09
6.777818416e-09
6.772052992e-09
6.885177684e-09
7.14763786e-09
7.548247385e-09
8.042835974e-09
8.568396611e-09
9.05895322e-09
9.458548505e-09
9.728624106e-09
9.850423143e-09
9.822886766e-09
9.658000511e-09
9.375706785e-09
9.001364385e-09
8.559644452e-09
8.0776056e-09
8.100857916e-09
8.229645663e-09
8.357154545e-09
8.482296754e-09
8.604236111e-09
8.721301466e-09
8.833333454e-09
8.938888284e-09
9.037298643e-09
9.128451206e-09
9.210781734e-09
9.284180171e-09
9.349480293e-09
9.406643691e-09
1.026773034e-08
1.271312418e-08
5.403572922e-08
1.351081824e-07
5.53122224e-09
6.278724607e-09
6.710197801e-09
6.881270015e-09
6.877239981e-09
6.80006949e-09
6.749888303e-09
6.80426941e-09
7.00601441e-09
7.356054767e-09
7.819005719e-09
8.335242771e-09
8.837044538e-09
9.263002841e-09
9.567742775e-09
9.726068566e-09
9.732245096e-09
9.595559073e-09
9.335233055e-09
8.976649413e-09
8.545934221e-09
8.070927837e-09
8.100438233e-09
8.229225367e-09
8.356725423e-09
8.481881488e-09
8.60378551e-09
8.720917457e-09
8.832936342e-09
8.938522062e-09
9.036986143e-09
9.128112688e-09
9.210484431e-09
9.283960178e-09
9.34929072e-09
9.406468773e-09
1.036140042e-08
1.285138461e-08
5.670280453e-08
1.394920532e-07
5.516461241e-09
6.282286549e-09
6.737911923e-09
6.929141391e-09
6.931188393e-09
6.839125148e-09
6.751749906e-09
6.753439968e-09
6.896116082e-09
7.192909099e-09
7.617953124e-09
8.116981479e-09
8.622282737e-09
9.068360081e-09
9.403619001e-09
9.596398558e-09
9.635834797e-09
9.527916519e-09
9.290541895e-09
8.948860375e-09
8.530084009e-09
8.06290165e-09
8.100021754e-09
8.228805719e-09
8.356298614e-09
8.481463517e-09
8.603342153e-09
8.720528971e-09
8.832541988e-09
8.938157307e-09
9.036669623e-09
9.127777633e-09
9.210189164e-09
9.283738364e-09
9.349100738e-09
9.406296401e-09
1.045689891e-08
1.299247221e-08
5.943287644e-08
1.439783026e-07
5.504024294e-09
6.288028796e-09
6.76751055e-09
6.980056481e-09
6.991855012e-09
6.890964033e-09
6.773884234e-09
6.728219637e-09
6.814461257e-09
7.056844414e-09
7.439524942e-09
7.914703671e-09
8.416384195e-09
8.876402842e-09
9.237743206e-09
9.46246696e-09
9.534276432e-09
9.455356027e-09
9.241718278e-09
8.917958999e-09
8.512027979e-09
8.053449873e-09
8.09960835e-09
8.228387013e-09
8.355873699e-09
8.481043883e-09
8.602904622e-09
8.720137166e-09
8.832149911e-09
8.937793777e-09
9.036349761e-09
9.127445609e-09
9.209895797e-09
9.283514961e-09
9.348910427e-09
9.406126491e-09
1.055428214e-08
1.313644054e-08
6.222733386e-08
1.485694307e-07
5.493455737e-09
6.29536033e-09
6.798235475e-09
7.032740952e-09
7.057026647e-09
6.952243565e-09
6.811518973e-09
6.72386846e-09
6.757657353e-09
6.945907167e-09
7.283128225e-09
7.729016237e-09
8.2206753e-09
8.688672772e-09
9.071502247e-09
9.325318272e-09
9.428226655e-09
9.378211446e-09
9.188887049e-09
8.883938363e-09
8.491714456e-09
8.042494408e-09
8.099197982e-09
8.227969927e-09
8.355450442e-09
8.480623365e-09
8.602471827e-09
8.719742942e-09
8.831759737e-09
8.937431271e-09
9.036027131e-09
9.127116253e-09
9.209604197e-09
9.283290182e-09
9.348719868e-09
9.405958971e-09
1.065360487e-08
1.328334725e-08
6.508761211e-08
1.532679633e-07
5.484404922e-09
6.303838462e-09
6.829537063e-09
7.086277798e-09
7.125065764e-09
7.020422203e-09
6.861522298e-09
6.737862843e-09
6.722708954e-09
6.857966109e-09
7.147919502e-09
7.56013128e-09
8.036129623e-09
8.506472012e-09
8.906157074e-09
9.185969746e-09
9.318360964e-09
9.296857014e-09
9.132209334e-09
8.846821301e-09
8.469108299e-09
8.029977161e-09
8.098790603e-09
8.227554203e-09
8.355028687e-09
8.480202541e-09
8.602042934e-09
8.719347002e-09
8.831371169e-09
8.937069625e-09
9.035702216e-09
9.126789258e-09
9.209314241e-09
9.283064215e-09
9.348529137e-09
9.405793781e-09
1.075492081e-08
1.343325581e-08
6.801519345e-08
1.580764581e-07
5.476598615e-09
6.313129767e-09
6.861016708e-09
7.140006798e-09
7.194755625e-09
7.093515088e-09
6.921154942e-09
6.766544629e-09
6.706734938e-09
6.790834062e-09
7.032644094e-09
7.407921633e-09
7.863407712e-09
8.330872254e-09
8.742845884e-09
9.045377814e-09
9.205360779e-09
9.211697589e-09
9.071878384e-09
8.806658421e-09
8.444191783e-09
8.015859128e-09
8.098386191e-09
8.227140158e-09
8.354608359e-09
8.47978184e-09
8.6016173e-09
8.718949894e-09
8.830983976e-09
8.936708702e-09
9.035375426e-09
9.126464362e-09
9.209025813e-09
9.28283723e-09
9.348338311e-09
9.405630868e-09
1.085828262e-08
1.364685294e-08
7.101161011e-08
1.629975106e-07
5.469821495e-09
6.322981958e-09
6.892386067e-09
7.193454186e-09
7.265193318e-09
7.169984186e-09
6.988215603e-09
6.807270563e-09
6.706421658e-09
6.74236078e-09
6.936082706e-09
7.272024969e-09
7.702903524e-09
8.162728852e-09
8.58257865e-09
8.904425967e-09
9.089901682e-09
9.123159436e-09
9.008114998e-09
8.763525705e-09
8.416963043e-09
8.000095565e-09
8.097984724e-09
8.226727914e-09
8.354189431e-09
8.479361587e-09
8.601194431e-09
8.718552043e-09
8.830597986e-09
8.936348381e-09
9.035047105e-09
9.126141342e-09
9.208738807e-09
9.282609378e-09
9.348147461e-09
9.405470185e-09
1.096374067e-08
1.554404678e-08
7.407844965e-08
1.680337579e-07
5.463902092e-09
6.333203233e-09
6.923438077e-09
7.246282637e-09
7.335711225e-09
7.248643733e-09
7.060957891e-09
6.858013763e-09
6.720754133e-09
6.71071549e-09
6.856914561e-09
7.151890111e-09
7.554787168e-09
8.002696625e-09
8.42621223e-09
8.763944999e-09
8.972642181e-09
9.031681623e-09
8.941162739e-09
8.717522018e-09
8.387436513e-09
7.982658734e-09
8.097586173e-09
8.226317564e-09
8.353771899e-09
8.47894202e-09
8.600773949e-09
8.718153786e-09
8.830213055e-09
8.935988572e-09
9.034717542e-09
9.125820008e-09
9.208453124e-09
9.282380798e-09
9.347956657e-09
9.405311691e-09
1.107134703e-08
1.748629993e-08
7.721735008e-08
1.731878797e-07
5.45870261e-09
6.343647575e-09
6.954025459e-09
7.298254822e-09
7.40581698e-09
7.328573909e-09
7.13794832e-09
6.916858136e-09
6.746986759e-09
6.694011579e-09
6.793782637e-09
7.046916057e-09
7.419048891e-09
7.851251404e-09
8.274470947e-09
8.62469066e-09
8.854215362e-09
8.937708223e-09
8.871283107e-09
8.668766454e-09
8.355642296e-09
7.968126409e-09
8.09719049e-09
8.225909176e-09
8.353355718e-09
8.478523318e-09
8.600355562e-09
8.717755384e-09
8.829829071e-09
8.935629204e-09
9.034386981e-09
9.125500196e-09
9.208168673e-09
9.282151612e-09
9.347765963e-09
9.405155348e-09
1.118115319e-08
1.947458871e-08
8.042997888e-08
1.784625951e-07
5.454111367e-09
6.354203657e-09
6.984045288e-09
7.34920709e-09
7.475149938e-09
7.409062827e-09
7.218027072e-09
6.982221265e-09
6.783327529e-09
6.690083139e-09
6.7453041e-09
6.95621292e-09
7.295510885e-09
7.708709945e-09
8.127954332e-09
8.487338985e-09
8.735222868e-09
8.841681302e-09
8.798750819e-09
8.617395627e-09
8.32162515e-09
7.967752635e-09
8.096797613e-09
8.225502819e-09
8.352941188e-09
8.478105634e-09
8.599939048e-09
8.717357041e-09
8.82944594e-09
8.935270223e-09
9.034055628e-09
9.125181766e-09
9.207885372e-09
9.281921932e-09
9.347575446e-09
9.405001129e-09
1.129321016e-08
2.150992104e-08
8.37180344e-08
1.83860652e-07
5.450037125e-09
6.364786599e-09
7.013427636e-09
7.399030317e-09
7.543449104e-09
7.489562002e-09
7.300261812e-09
7.052801849e-09
6.828335614e-09
6.698182661e-09
6.71028261e-09
6.879028421e-09
7.183891597e-09
7.57525409e-09
7.987145865e-09
8.35248471e-09
8.616231966e-09
8.744034345e-09
8.72384932e-09
8.563560936e-09
8.285443117e-09
7.967381533e-09
8.096407467e-09
8.225098523e-09
8.352528076e-09
8.477689068e-09
8.599524236e-09
8.71695892e-09
8.82906359e-09
8.934911588e-09
9.033723655e-09
9.124864595e-09
9.207603143e-09
9.281691856e-09
9.347385164e-09
9.40484901e-09
1.140756872e-08
2.359333578e-08
8.708325028e-08
1.893847988e-07
5.446404795e-09
6.375331819e-09
7.04212716e-09
7.447655831e-09
7.61052897e-09
7.569650429e-09
7.383900574e-09
7.12749909e-09
6.880631014e-09
6.716460394e-09
6.687468613e-09
6.814512755e-09
7.083815485e-09
7.45095093e-09
7.852424016e-09
8.220652343e-09
8.497761331e-09
8.645187341e-09
8.646866752e-09
8.507425925e-09
8.247166832e-09
7.967012743e-09
8.096019918e-09
8.224696303e-09
8.352116511e-09
8.477273701e-09
8.599110996e-09
8.716561145e-09
8.828681962e-09
8.934553269e-09
9.033391209e-09
9.124548579e-09
9.207321919e-09
9.281461476e-09
9.347195181e-09
9.468465664e-09
1.152427949e-08
2.572590122e-08
9.052739134e-08
1.950379011e-07
5.443152166e-09
6.385790375e-09
7.070116792e-09
7.495045072e-09
7.676261306e-09
7.649006966e-09
7.468337877e-09
7.205390374e-09
6.939030786e-09
6.743659099e-09
6.67572318e-09
6.76180455e-09
6.994860645e-09
7.335773159e-09
7.724072835e-09
8.092300834e-09
8.380274115e-09
8.54554547e-09
8.5680925e-09
8.449163742e-09
8.206878041e-09
7.96664586e-09
8.095634843e-09
8.22429616e-09
8.351706531e-09
8.476859598e-09
8.598699228e-09
8.716163815e-09
8.828301008e-09
8.934195244e-09
9.033058413e-09
9.124233625e-09
9.207041638e-09
9.281230874e-09
9.347005553e-09
9.549443789e-09
1.164339331e-08
2.790871474e-08
9.405225817e-08
2.008229045e-07
5.440227372e-09
6.396125484e-09
7.097383217e-09
7.541181392e-09
7.74056163e-09
7.727389036e-09
7.553087798e-09
7.285705838e-09
7.002516574e-09
6.778606606e-09
6.673490887e-09
6.720028496e-09
6.916531925e-09
7.229611639e-09
7.602290256e-09
7.967812567e-09
8.264196372e-09
8.445493593e-09
8.487813856e-09
8.388954709e-09
8.164668222e-09
7.966280439e-09
8.095252077e-09
8.22389808e-09
8.351298166e-09
8.476446805e-09
8.598288856e-09
8.71576701e-09
8.827920696e-09
8.933837493e-09
9.032725373e-09
9.123919653e-09
9.206762241e-09
9.281000125e-09
9.346816334e-09
9.632137996e-09
1.176496123e-08
3.014290222e-08
9.765968974e-08
2.067428142e-07
5.437586939e-09
6.406309836e-09
7.123923441e-09
7.586064395e-09
7.80337853e-09
7.804615894e-09
7.63776188e-09
7.36780587e-09
7.070228147e-09
6.820399121e-09
6.680650438e-09
6.688458618e-09
6.848308955e-09
7.132292338e-09
7.487197921e-09
7.847497606e-09
8.149917367e-09
8.345395048e-09
8.406313243e-09
8.326984042e-09
8.12063722e-09
7.965915995e-09
8.094871434e-09
8.223502029e-09
8.350891439e-09
8.476035362e-09
8.597879821e-09
8.715370789e-09
8.827540998e-09
8.933480004e-09
9.032392176e-09
9.123606594e-09
9.206483679e-09
9.280769295e-09
9.346627576e-09
9.716583486e-09
1.188903468e-08
3.242961774e-08
1.013515645e-07
2.12800697e-07
5.435194203e-09
6.416323461e-09
7.149741883e-09
7.629705771e-09
7.864685716e-09
7.880555354e-09
7.722050259e-09
7.451155933e-09
7.141411212e-09
6.868106177e-09
6.695818435e-09
6.671327042e-09
6.814254152e-09
7.043591614e-09
7.378852154e-09
7.731607503e-09
8.037781553e-09
8.245589736e-09
8.323865824e-09
8.263439753e-09
8.074891868e-09
7.965552009e-09
8.094492698e-09
8.223107959e-09
8.350486367e-09
8.475625296e-09
8.59747208e-09
8.714975203e-09
8.82716189e-09
8.933122771e-09
9.032058896e-09
9.123294384e-09
9.206205905e-09
9.280538448e-09
9.346439331e-09
9.80281607e-09
1.20156655e-08
3.477004345e-08
1.051298011e-07
2.18999683e-07
5.4330181e-09
6.426152132e-09
7.174848435e-09
7.672125872e-09
7.924475879e-09
7.955113391e-09
7.805706813e-09
7.535309797e-09
7.215413414e-09
6.920917415e-09
6.718172816e-09
6.663797083e-09
6.808283177e-09
6.963244588e-09
7.27725348e-09
7.620339768e-09
7.928090572e-09
8.146393199e-09
8.240737501e-09
8.198510735e-09
8.027544668e-09
7.965187932e-09
8.09411563e-09
8.222715804e-09
8.350082954e-09
8.475216626e-09
8.597065599e-09
8.714580288e-09
8.826783355e-09
8.932765792e-09
9.031725596e-09
9.122982971e-09
9.205928878e-09
9.280307641e-09
9.346251648e-09
9.890872161e-09
1.214490606e-08
3.71653897e-08
1.089963594e-07
2.25342967e-07
5.431032175e-09
6.435786108e-09
7.199257007e-09
7.713351131e-09
7.982755973e-09
8.028226015e-09
7.888537395e-09
7.619895966e-09
7.291673377e-09
6.978119362e-09
6.746934408e-09
6.656270764e-09
6.802251238e-09
6.941578035e-09
7.182356216e-09
7.513842968e-09
7.821105111e-09
8.048096622e-09
8.157183242e-09
8.132385023e-09
7.978712518e-09
7.964823188e-09
8.093739967e-09
8.222325481e-09
8.349681195e-09
8.474809341e-09
8.596660348e-09
8.714186077e-09
8.826405379e-09
8.932409067e-09
9.031392329e-09
9.122672304e-09
9.205652561e-09
9.280076927e-09
9.346064574e-09
9.980788795e-09
1.227680927e-08
3.961689503e-08
1.129532414e-07
2.318338107e-07
5.429213797e-09
6.445219122e-09
7.222984102e-09
7.75341241e-09
8.039543627e-09
8.099852885e-09
7.970390327e-09
7.704606106e-09
7.369709649e-09
7.039088431e-09
6.781434018e-09
6.648760418e-09
6.796170591e-09
6.936921462e-09
7.094081919e-09
7.412221816e-09
7.717046293e-09
7.950967985e-09
8.073445533e-09
8.065248251e-09
7.928515491e-09
7.96445718e-09
8.093365423e-09
8.221936891e-09
8.349281075e-09
8.474403431e-09
8.596256305e-09
8.713792591e-09
8.826027952e-09
8.932052596e-09
9.031059139e-09
9.122362342e-09
9.205376921e-09
9.279846353e-09
9.345878158e-09
1.007260364e-08
1.241142869e-08
4.212582644e-08
1.170024919e-07
2.384755441e-07
5.427543518e-09
6.454447639e-09
7.246048137e-09
7.79234336e-09
8.094864307e-09
8.169972238e-09
8.051148596e-09
7.789184903e-09
7.449108899e-09
7.103273851e-09
6.82105385e-09
6.656981581e-09
6.7900525e-09
6.932186006e-09
7.068343539e-09
7.315541025e-09
7.616100934e-09
7.855249847e-09
7.989752469e-09
7.997282325e-09
7.877075712e-09
7.964089293e-09
8.092991694e-09
8.221549923e-09
8.348882582e-09
8.473999088e-09
8.595853463e-09
8.713399851e-09
8.825651066e-09
8.931696384e-09
9.030726063e-09
9.122053046e-09
9.205101929e-09
9.279615966e-09
9.345692447e-09
1.016635501e-08
1.254881854e-08
4.469347962e-08
1.211461995e-07
2.452715669e-07
5.426004571e-09
6.463470273e-09
7.268468792e-09
7.830179313e-09
8.148749148e-09
8.238576852e-09
8.13072345e-09
7.873421425e-09
7.529515698e-09
7.170185798e-09
6.865211505e-09
6.671381753e-09
6.783907128e-09
6.927380882e-09
7.06479283e-09
7.223833547e-09
7.518431358e-09
7.761149583e-09
7.906319216e-09
7.928664507e-09
7.835152168e-09
7.963718894e-09
8.092618454e-09
8.221164448e-09
8.34848568e-09
8.473596082e-09
8.595451805e-09
8.713007872e-09
8.825274715e-09
8.931340435e-09
9.030393134e-09
9.121744382e-09
9.204827558e-09
9.279385808e-09
9.345507485e-09
1.026208189e-08
1.268903377e-08
4.732117921e-08
1.253864978e-07
2.52225351e-07
5.424582439e-09
6.472287309e-09
7.290266467e-09
7.866956492e-09
8.201233274e-09
8.305670843e-09
8.209049193e-09
7.957142034e-09
7.6106247e-09
7.239390898e-09
6.913382168e-09
6.691307725e-09
6.777743916e-09
6.922514869e-09
7.061158944e-09
7.194728169e-09
7.424168624e-09
7.668851417e-09
7.823346766e-09
7.859566319e-09
7.834744912e-09
7.963345338e-09
8.092245359e-09
8.220780313e-09
8.348090323e-09
8.473194482e-09
8.595051317e-09
8.712616665e-09
8.824898894e-09
8.930984755e-09
9.030060378e-09
9.121436319e-09
9.204553786e-09
9.279155919e-09
9.345323318e-09
1.035982396e-08
1.28321301e-08
5.001027925e-08
1.297255656e-07
2.593404414e-07
5.423264514e-09
6.480900316e-09
7.311461886e-09
7.902711407e-09
8.25235451e-09
8.371267116e-09
8.286078953e-09
8.040204551e-09
7.692174135e-09
7.310507004e-09
6.965092775e-09
6.716253318e-09
6.771571497e-09
6.917596145e-09
7.057448414e-09
7.192080691e-09
7.333411229e-09
7.578524062e-09
7.741021899e-09
7.790152185e-09
7.834326807e-09
7.962967984e-09
8.091872051e-09
8.220397362e-09
8.347696459e-09
8.472794276e-09
8.594651987e-09
8.712226239e-09
8.824523601e-09
8.930629349e-09
9.029727818e-09
9.121128831e-09
9.204280592e-09
9.278926336e-09
9.345139992e-09
1.045962164e-08
1.297816408e-08
5.276216358e-08
1.341656286e-07
2.666204586e-07
5.422039802e-09
6.489311851e-09
7.332075805e-09
7.937480407e-09
8.302152395e-09
8.435385336e-09
8.361781224e-09
8.122493366e-09
7.77394018e-09
7.383198346e-09
7.019919257e-09
6.745739683e-09
6.765394414e-09
6.912632039e-09
7.05366752e-09
7.189355256e-09
7.32100307e-09
7.490316859e-09
7.65951739e-09
7.720579587e-09
7.833896933e-09
7.962586192e-09
8.09149816e-09
8.220015424e-09
8.347304026e-09
8.472395446e-09
8.594253805e-09
8.711836599e-09
8.824148834e-09
8.930274223e-09
9.029395472e-09
9.120821891e-09
9.204007958e-09
9.278697094e-09
9.344957552e-09
1.056151612e-08
1.312719325e-08
5.557824635e-08
1.387089599e-07
2.740690997e-07
5.420898689e-09
6.497525213e-09
7.352128788e-09
7.971299334e-09
8.350667425e-09
8.498050303e-09
8.43613702e-09
8.203915281e-09
7.855731895e-09
7.457170844e-09
7.077489875e-09
6.779416327e-09
6.759223811e-09
6.907629966e-09
7.049822251e-09
7.186556021e-09
7.319068009e-09
7.448806929e-09
7.578991923e-09
7.705154568e-09
7.833454395e-09
7.962199319e-09
8.091123302e-09
8.21963431e-09
8.346912952e-09
8.471997967e-09
8.593856758e-09
8.711447751e-09
8.823774591e-09
8.929919381e-09
9.029063358e-09
9.120515479e-09
9.20373587e-09
9.278468229e-09
9.344776042e-09
1.066554944e-08
1.327927626e-08
5.845997288e-08
1.433578815e-07
2.81690141e-07
5.419832742e-09
6.505544258e-09
7.371641042e-09
8.004203254e-09
8.397940502e-09
8.559290634e-09
8.509137504e-09
8.2843959e-09
7.93738635e-09
7.532164763e-09
7.137461058e-09
6.816871288e-09
6.753063875e-09
6.902596568e-09
7.045918572e-09
7.183687133e-09
7.317065813e-09
7.447466048e-09
7.576261859e-09
7.704549809e-09
7.832998352e-09
7.961806731e-09
8.090747088e-09
8.219253824e-09
8.346523154e-09
8.471601811e-09
8.593460833e-09
8.711059697e-09
8.823400874e-09
8.929564831e-09
9.028731484e-09
9.120209575e-09
9.203464313e-09
9.27823977e-09
9.34459551e-09
1.077176462e-08
1.343447331e-08
6.140882073e-08
1.481147649e-07
2.894874391e-07
5.418834545e-09
6.513373252e-09
7.390632302e-09
8.036226191e-09
8.444012573e-09
8.619137705e-09
8.580782039e-09
8.363876621e-09
8.018764683e-09
7.607950758e-09
7.19952116e-09
6.857736141e-09
6.74692003e-09
6.897538062e-09
7.041961978e-09
7.180752674e-09
7.314998799e-09
7.446070403e-09
7.57533663e-09
7.70391908e-09
7.832528005e-09
7.9614078e-09
8.090369118e-09
8.218873756e-09
8.346134545e-09
8.471206943e-09
8.593066017e-09
8.710672439e-09
8.823027684e-09
8.929210576e-09
9.02839986e-09
9.119904158e-09
9.203193275e-09
9.278011751e-09
9.344416e-09
1.088020572e-08
1.359284685e-08
6.442630145e-08
1.529820331e-07
2.974649338e-07
5.417897555e-09
6.521016761e-09
7.40912182e-09
8.067401395e-09
8.488923684e-09
8.677624941e-09
8.651076608e-09
8.442312128e-09
8.099748871e-09
7.684326756e-09
7.263389432e-09
6.901677039e-09
6.740797176e-09
6.892460245e-09
7.037957759e-09
7.177756655e-09
7.312869352e-09
7.444620895e-09
7.5743709e-09
7.703261725e-09
7.832042599e-09
7.961001911e-09
8.089988989e-09
8.218493888e-09
8.345747024e-09
8.470813326e-09
8.592672293e-09
8.710285974e-09
8.822655015e-09
8.928856629e-09
9.028068496e-09
9.119599213e-09
9.202922747e-09
9.277784199e-09
9.344237559e-09
1.099091797e-08
1.375446303e-08
6.751396311e-08
1.579621622e-07
3.056266495e-07
5.417015989e-09
6.52847955e-09
7.427128266e-09
8.097761012e-09
8.53271322e-09
8.73478698e-09
8.720032479e-09
8.519668309e-09
8.180239012e-09
7.761115125e-09
7.328813584e-09
6.948388543e-09
6.734699627e-09
6.887368558e-09
7.033910866e-09
7.17470299e-09
7.310679903e-09
7.443118538e-09
7.573364648e-09
7.702577178e-09
7.831541429e-09
7.960588463e-09
8.089606295e-09
8.218113993e-09
8.345360486e-09
8.470420916e-09
8.592279645e-09
8.709900303e-09
8.822282865e-09
8.928502997e-09
9.027737397e-09
9.119294725e-09
9.202652721e-09
9.277557143e-09
9.344060233e-09
1.11039475e-08
1.391939446e-08
7.067339431e-08
1.630576836e-07
3.139766977e-07
5.416184721e-09
6.535766504e-09
7.444669667e-09
8.127335959e-09
8.575419773e-09
8.790659213e-09
8.787665145e-09
8.595920509e-09
8.260150969e-09
7.838160084e-09
7.395567551e-09
6.997592372e-09
6.728630974e-09
6.882265433e-09
7.029825755e-09
7.171595454e-09
7.308432903e-09
7.441564444e-09
7.572317964e-09
7.701864954e-09
7.831023833e-09
7.960166871e-09
8.089220628e-09
8.217733834e-09
8.344974816e-09
8.470029663e-09
8.591888052e-09
8.70951542e-09
8.821911234e-09
8.928149685e-09
9.027406571e-09
9.118990678e-09
9.202383187e-09
9.277330609e-09
9.343884066e-09
1.121934008e-08
1.482728166e-08
7.390623054e-08
1.682711869e-07
3.22519279e-07
5.415399194e-09
6.54288256e-09
7.461763394e-09
8.15615596e-09
8.617080937e-09
8.845277384e-09
8.853993427e-09
8.671052033e-09
8.33941429e-09
7.915325239e-09
7.463449356e-09
7.049041514e-09
6.72820093e-09
6.877158654e-09
7.025707174e-09
7.168437756e-09
7.30613082e-09
7.439959809e-09
7.571231043e-09
7.701124653e-09
7.8304892e-09
7.959736572e-09
8.088831582e-09
8.21735317e-09
8.344589893e-09
8.469639515e-09
8.591497495e-09
8.70913132e-09
8.821540119e-09
8.927796698e-09
9.027076021e-09
9.118687059e-09
9.202114141e-09
9.277104625e-09
9.348026755e-09
1.133714203e-08
1.690851426e-08
7.721415906e-08
1.736053221e-07
3.312586852e-07
5.414655349e-09
6.549832665e-09
7.478426159e-09
8.184249577e-09
8.657733173e-09
8.898677254e-09
8.919038757e-09
8.745052871e-09
8.417970321e-09
7.992491074e-09
7.532276938e-09
7.102503818e-09
6.760374387e-09
6.872050776e-09
7.02155935e-09
7.165233413e-09
7.303776115e-09
7.438305896e-09
7.570104173e-09
7.700355953e-09
7.829936969e-09
7.959297019e-09
8.088438751e-09
8.216971754e-09
8.344205588e-09
8.469250414e-09
8.591107948e-09
8.708748e-09
8.821169518e-09
8.927444037e-09
9.026745751e-09
9.118383858e-09
9.201845576e-09
9.276879218e-09
9.431315784e-09
1.145740233e-08
1.90388109e-08
8.05989092e-08
1.790628001e-07
3.401993006e-07
5.413949557e-09
6.556621729e-09
7.49467402e-09
8.21164428e-09
8.697411698e-09
8.950894349e-09
8.982824555e-09
8.817918602e-09
8.495770586e-09
8.069552866e-09
7.601886129e-09
7.157763964e-09
6.795331781e-09
6.866945538e-09
7.017386247e-09
7.161985957e-09
7.30137125e-09
7.436604026e-09
7.568937734e-09
7.699558611e-09
7.829366626e-09
7.95884769e-09
8.088041736e-09
8.216589333e-09
8.343821767e-09
8.468862296e-09
8.590719388e-09
8.70836545e-09
8.82079943e-09
8.927091706e-09
9.026415763e-09
9.118081063e-09
9.201577488e-09
9.276654411e-09
9.516376302e-09
1.158017043e-08
2.121921686e-08
8.406223735e-08
1.846463918e-07
3.493456036e-07
5.413278572e-09
6.563254598e-09
7.510522342e-09
8.238366204e-09
8.736150709e-09
9.001963799e-09
9.045375743e-09
8.88964947e-09
8.572775404e-09
8.146418973e-09
7.672129084e-09
7.21462477e-09
6.83284655e-09
6.861846359e-09
7.013191642e-09
7.15869863e-09
7.298918655e-09
7.434855579e-09
7.56773217e-09
7.698732453e-09
7.828777707e-09
7.958388086e-09
8.087640139e-09
8.21620565e-09
8.343438289e-09
8.468475095e-09
8.590331784e-09
8.707983647e-09
8.820429864e-09
8.926739707e-09
9.026086061e-09
9.117778663e-09
9.201309873e-09
9.276430227e-09
9.603243488e-09
1.170549614e-08
2.345080911e-08
8.760593007e-08
1.903589279e-07
3.587021691e-07
5.41263948e-09
6.569736032e-09
7.525985836e-09
8.264440354e-09
8.773983196e-09
9.051920155e-09
9.106718321e-09
8.960249605e-09
8.648952715e-09
8.223009387e-09
7.742872904e-09
7.272905855e-09
6.872708353e-09
6.856756353e-09
7.00897914e-09
7.155374632e-09
7.296420717e-09
7.433061974e-09
7.566487993e-09
7.697877372e-09
7.828169795e-09
7.957917732e-09
8.087233573e-09
8.215820448e-09
8.343055009e-09
8.468088739e-09
8.589945103e-09
8.707602575e-09
8.820060824e-09
8.926388042e-09
9.025756644e-09
9.117476651e-09
9.201042729e-09
9.276206687e-09
9.691953204e-09
1.183342964e-08
2.573469562e-08
9.123180732e-08
1.962032994e-07
3.682736697e-07
5.412029663e-09
6.576070693e-09
7.541078606e-09
8.289890702e-09
8.810940878e-09
9.100797257e-09
9.166879027e-09
9.029726372e-09
8.724277072e-09
8.29925445e-09
7.81399831e-09
7.332442387e-09
6.914721574e-09
6.851678276e-09
7.0047515e-09
7.152016989e-09
7.29387978e-09
7.431224658e-09
7.565205777e-09
7.696993326e-09
7.82754252e-09
7.957436179e-09
8.086821656e-09
8.215433466e-09
8.342671775e-09
8.46770315e-09
8.589559304e-09
8.70722222e-09
8.819692305e-09
8.926036714e-09
9.025427513e-09
9.117175017e-09
9.200776054e-09
9.275983812e-09