/*--------------------------------*- C++ -*----------------------------------*\
| =========                 |                                                 |
| \\      /  F ield         | OpenFOAM: The Open Source CFD Toolbox           |
|  \\    /   O peration     | Version:  v2006                                 |
|   \\  /    A nd           | Website:  www.openfoam.com                      |
|    \\/     M anipulation  |                                                 |
\*---------------------------------------------------------------------------*/
FoamFile
{
    version     2.0;
    format      ascii;
    class       volScalarField;
    location    "0.09";
    object      HCO;
}
// * * * * * * * * * * * * * * * * * * * * * * * * * * * * * * * * * * * * * //

dimensions      [0 0 0 0 0 0 0];


internalField   nonuniform List<scalar> 
168000
(
8.117016069e-17
1.634539432e-16
2.412679219e-16
3.29507608e-16
4.168533166e-16
4.943573499e-16
5.742635041e-16
6.538754492e-16
7.078209564e-16
7.501158284e-16
7.86110318e-16
7.967644391e-16
7.878661478e-16
7.701699237e-16
7.245687343e-16
6.638816159e-16
5.914876929e-16
4.965527404e-16
3.926697125e-16
2.765904985e-16
1.514053174e-16
2.396768591e-17
2.046162363e-19
2.079275455e-19
2.112361514e-19
2.14436028e-19
2.176315409e-19
2.20596376e-19
2.235163046e-19
2.262287298e-19
2.287429485e-19
2.311187421e-19
2.332297231e-19
2.350996708e-19
2.367806812e-19
2.382569812e-19
8.251059285e-18
4.280360366e-16
1.550087967e-12
6.948734e-12
8.603451045e-17
1.66642947e-16
2.116271582e-16
2.609398031e-16
3.212489589e-16
3.9003761e-16
4.682381857e-16
5.500192431e-16
6.207190897e-16
6.804939334e-16
7.285587008e-16
7.548615771e-16
7.599874335e-16
7.481694135e-16
7.118632075e-16
6.565703865e-16
5.852713545e-16
4.948685797e-16
3.908338583e-16
2.763418199e-16
1.51568476e-16
2.422072465e-17
2.046030153e-19
2.079187083e-19
2.112215973e-19
2.144305007e-19
2.176129652e-19
2.205915431e-19
2.235037428e-19
2.262184196e-19
2.287374183e-19
2.311081644e-19
2.332214264e-19
2.35094834e-19
2.367759784e-19
2.38251711e-19
2.473165251e-17
4.514718316e-16
1.72106033e-12
7.23516631e-12
8.158901134e-17
1.661990781e-16
1.973643491e-16
2.205780217e-16
2.555876373e-16
3.077982398e-16
3.769794855e-16
4.568171989e-16
5.359338567e-16
6.081513383e-16
6.683128283e-16
7.086258993e-16
7.267643327e-16
7.235707123e-16
6.959922828e-16
6.467039626e-16
5.784188943e-16
4.914422617e-16
3.888496412e-16
2.755099605e-16
1.515939681e-16
2.435996536e-17
2.045904925e-19
2.079091447e-19
2.11208092e-19
2.14423493e-19
2.175961355e-19
2.205854184e-19
2.234917417e-19
2.262082692e-19
2.287313739e-19
2.310979463e-19
2.332132065e-19
2.350898528e-19
2.367712469e-19
2.382465455e-19
4.142949965e-17
4.75424903e-16
1.896306778e-12
7.528068994e-12
7.838769555e-17
1.659128034e-16
1.924210222e-16
1.993309893e-16
2.131069789e-16
2.463160832e-16
3.018622568e-16
3.751115666e-16
4.562667993e-16
5.361672428e-16
6.065395069e-16
6.59151155e-16
6.894563937e-16
6.96036514e-16
6.77225777e-16
6.345019066e-16
5.704134664e-16
4.868393942e-16
3.863835633e-16
2.742470627e-16
1.514195963e-16
2.439895625e-17
2.045784527e-19
2.078990918e-19
2.111953339e-19
2.144153912e-19
2.175806508e-19
2.205782966e-19
2.234801775e-19
2.261982593e-19
2.287248974e-19
2.310880316e-19
2.332050641e-19
2.350847433e-19
2.367664884e-19
2.382414781e-19
5.837100769e-17
4.998967849e-16
2.075891729e-12
7.827667642e-12
7.680425532e-17
1.669834727e-16
1.933155478e-16
1.908288791e-16
1.880620068e-16
2.028365937e-16
2.424848798e-16
3.053851263e-16
3.835609745e-16
4.667634662e-16
5.446310401e-16
6.075791181e-16
6.490402614e-16
6.656838604e-16
6.557859314e-16
6.201068229e-16
5.610169919e-16
4.811313539e-16
3.832702065e-16
2.725649332e-16
1.509394171e-16
2.433515835e-17
2.045667525e-19
2.078887144e-19
2.111831069e-19
2.144064842e-19
2.175662039e-19
2.205704063e-19
2.234689544e-19
2.261883717e-19
2.287180582e-19
2.310783736e-19
2.331969978e-19
2.350795197e-19
2.367617045e-19
2.382365028e-19
7.557903457e-17
5.248908637e-16
2.259887896e-12
8.134180204e-12
7.624839109e-17
1.694286111e-16
1.979569658e-16
1.90770719e-16
1.758460923e-16
1.742192608e-16
1.974275841e-16
2.475145488e-16
3.188867964e-16
4.015234902e-16
4.83908519e-16
5.550154115e-16
6.063784429e-16
6.328469348e-16
6.319078577e-16
6.036367289e-16
5.501310412e-16
4.743252939e-16
3.794207023e-16
2.704309934e-16
1.501488174e-16
2.412355454e-17
2.045552964e-19
2.078781262e-19
2.111712567e-19
2.143969874e-19
2.175525591e-19
2.205619241e-19
2.23457999e-19
2.261785894e-19
2.287109146e-19
2.310689338e-19
2.331890056e-19
2.350741951e-19
2.367568972e-19
2.382316145e-19
9.307360876e-17
5.504120517e-16
2.448375223e-12
8.447818996e-12
7.634734161e-17
1.729258436e-16
2.049711965e-16
1.962237621e-16
1.729197653e-16
1.574844631e-16
1.649021036e-16
2.00903652e-16
2.62703056e-16
3.415135968e-16
4.254954937e-16
5.02472972e-16
5.622682617e-16
5.979634182e-16
6.058556819e-16
5.8521796e-16
5.377329032e-16
4.664066256e-16
3.747838371e-16
2.678208622e-16
1.490247262e-16
2.37498208e-17
2.045440215e-19
2.078674057e-19
2.111596744e-19
2.143870614e-19
2.175395363e-19
2.205529867e-19
2.234472545e-19
2.261688971e-19
2.287035157e-19
2.3105968e-19
2.331810844e-19
2.35068781e-19
2.367520684e-19
2.382268083e-19
1.108725077e-16
5.764665286e-16
2.641440056e-12
8.768792393e-12
7.688409163e-17
1.771589801e-16
2.13484005e-16
2.053467046e-16
1.765599196e-16
1.500377433e-16
1.430027856e-16
1.645643057e-16
2.149979605e-16
2.873746588e-16
3.702752968e-16
4.508385167e-16
5.174500199e-16
5.615085588e-16
5.77921888e-16
5.649970226e-16
5.238463196e-16
4.573634705e-16
3.693270948e-16
2.646923667e-16
1.475459916e-16
2.31891305e-17
2.045328855e-19
2.078566074e-19
2.111482834e-19
2.143768256e-19
2.175269971e-19
2.205437e-19
2.234366774e-19
2.261592812e-19
2.286959031e-19
2.310505854e-19
2.331732309e-19
2.350632878e-19
2.367472204e-19
2.382220801e-19
1.289917232e-16
6.030615294e-16
2.839174436e-12
9.097306266e-12
7.77164338e-17
1.818711688e-16
2.228995542e-16
2.168170419e-16
1.849710783e-16
1.49770256e-16
1.299302104e-16
1.374011466e-16
1.754563994e-16
2.394084703e-16
3.188905615e-16
4.008545615e-16
4.725926738e-16
5.239665285e-16
5.484190552e-16
5.431420802e-16
5.085272356e-16
4.471962401e-16
3.630306531e-16
2.610121164e-16
1.456930826e-16
2.241842547e-17
2.045218654e-19
2.078457689e-19
2.111370303e-19
2.143663689e-19
2.175148358e-19
2.205341463e-19
2.234262337e-19
2.261497297e-19
2.286881117e-19
2.310416277e-19
2.331654412e-19
2.35057725e-19
2.367423553e-19
2.382174263e-19
1.474458379e-16
6.302051854e-16
3.041675535e-12
9.433565174e-12
7.874591978e-17
1.868703664e-16
2.328149523e-16
2.297499011e-16
1.966277164e-16
1.54818874e-16
1.24060667e-16
1.18249543e-16
1.435171771e-16
1.976499371e-16
2.717638709e-16
3.531155427e-16
4.282858547e-16
4.858065533e-16
5.17670108e-16
5.198396238e-16
4.918558458e-16
4.359205713e-16
3.558849217e-16
2.567521479e-16
1.434389592e-16
2.141533322e-17
2.045109479e-19
2.078349167e-19
2.111258785e-19
2.143557572e-19
2.175029713e-19
2.205243891e-19
2.234158974e-19
2.261402323e-19
2.286801709e-19
2.310327882e-19
2.331577116e-19
2.350521008e-19
2.367374752e-19
2.382128435e-19
1.662483304e-16
6.579063991e-16
3.249045196e-12
9.777773357e-12
7.990339726e-17
1.920183971e-16
2.429586777e-16
2.435509651e-16
2.1053838e-16
1.640676368e-16
1.2404335e-16
1.059895099e-16
1.185375572e-16
1.619433893e-16
2.291301174e-16
3.080740151e-16
3.850353435e-16
4.474675857e-16
4.859975432e-16
4.952893312e-16
4.739312351e-16
4.235673432e-16
3.47889773e-16
2.51892154e-16
1.407759645e-16
2.015931403e-17
2.04500116e-19
2.07824069e-19
2.11114803e-19
2.143450393e-19
2.174913415e-19
2.20514478e-19
2.23405648e-19
2.261307803e-19
2.286721054e-19
2.310240511e-19
2.331500383e-19
2.350464229e-19
2.367325824e-19
2.382083289e-19
1.85411823e-16
6.861747612e-16
3.461389588e-12
1.01301356e-11
8.11401442e-17
1.972175138e-16
2.531462471e-16
2.578076048e-16
2.259405594e-16
1.763150567e-16
1.285664517e-16
9.957255849e-17
9.981500089e-17
1.320235528e-16
1.910721926e-16
2.660529813e-16
3.432617786e-16
4.09352217e-16
4.537102129e-16
4.696992857e-16
4.548671217e-16
4.101814133e-16
3.390540331e-16
2.464180104e-16
1.376842316e-16
1.863271203e-17
2.044893669e-19
2.078132381e-19
2.111037872e-19
2.143342516e-19
2.174798986e-19
2.205044513e-19
2.233954699e-19
2.261213661e-19
2.286639361e-19
2.310154035e-19
2.331424176e-19
2.350406979e-19
2.36727679e-19
2.3820388e-19
2.049482911e-16
7.150205122e-16
3.678818936e-12
1.049085795e-11
8.242175428e-17
2.02399488e-16
2.63253115e-16
2.722363394e-16
2.422926202e-16
1.907867366e-16
1.368836039e-16
9.810082682e-17
8.664183287e-17
1.074836431e-16
1.575466113e-16
2.272609488e-16
3.033022885e-16
3.718137627e-16
4.211049613e-16
4.432801215e-16
4.347879673e-16
3.958197949e-16
3.293950507e-16
2.403221712e-16
1.34150676e-16
1.682003003e-17
2.04478697e-19
2.078024314e-19
2.110928203e-19
2.14323421e-19
2.17468606e-19
2.204943389e-19
2.233853505e-19
2.261119835e-19
2.286556806e-19
2.31006834e-19
2.331348459e-19
2.35034932e-19
2.367227672e-19
2.381994947e-19
2.248692398e-16
7.44454574e-16
3.90144736e-12
1.086014835e-11
8.372390488e-17
2.075174163e-16
2.731960435e-16
2.866417584e-16
2.591980779e-16
2.068448723e-16
1.480596357e-16
1.006318528e-16
7.833256456e-17
8.79215603e-17
1.284236743e-16
1.918104003e-16
2.654161902e-16
3.351572492e-16
3.884577569e-16
4.162404672e-16
4.138253694e-16
3.805496253e-16
3.189381331e-16
2.336033948e-16
1.301650452e-16
1.470560453e-17
2.044681056e-19
2.077916666e-19
2.110818961e-19
2.143125676e-19
2.174574357e-19
2.204841641e-19
2.233752802e-19
2.261026273e-19
2.286473536e-19
2.309983335e-19
2.331273198e-19
2.350291305e-19
2.367178489e-19
2.381951711e-19
2.451858528e-16
7.744886998e-16
4.1293928e-12
1.12382172e-11
8.502939887e-17
2.125396062e-16
2.829206415e-16
3.008901989e-16
2.763697721e-16
2.240095705e-16
1.614828449e-16
1.066588339e-16
7.428327357e-17
7.290247559e-17
1.03525038e-16
1.597356826e-16
2.297924991e-16
2.996397629e-16
3.560192753e-16
3.887833635e-16
3.921146201e-16
3.64446098e-16
3.077158339e-16
2.262664161e-16
1.257204001e-16
1.227779835e-17
2.044575913e-19
2.077809369e-19
2.110710108e-19
2.143017062e-19
2.174463662e-19
2.204739451e-19
2.233652515e-19
2.260932933e-19
2.286389677e-19
2.309898938e-19
2.331198361e-19
2.350232984e-19
2.367129262e-19
2.381909076e-19
2.659091003e-16
8.051358377e-16
4.362777047e-12
1.162527782e-11
8.632612265e-17
2.174452638e-16
2.923926751e-16
3.148913503e-16
2.935994604e-16
2.419100835e-16
1.766217067e-16
1.154600373e-16
7.391618513e-17
6.198284274e-17
8.259225292e-17
1.310041865e-16
1.965579466e-16
2.65472312e-16
3.240155139e-16
3.610996133e-16
3.697921216e-16
3.475905058e-16
2.957671236e-16
2.183215455e-16
1.208132937e-16
9.528812735e-18
2.044471535e-19
2.077702505e-19
2.110601623e-19
2.142908481e-19
2.174353807e-19
2.204636958e-19
2.233552581e-19
2.260839781e-19
2.286305333e-19
2.309815084e-19
2.331123919e-19
2.3501744e-19
2.36708001e-19
2.381867028e-19
2.870497362e-16
6.057347785e-15
4.60172597e-12
1.202154695e-11
8.760561594e-17
2.222213966e-16
3.01592046e-16
3.285856161e-16
3.107370219e-16
2.602625948e-16
1.930517905e-16
1.265146102e-16
7.657345278e-17
5.4728638e-17
6.537487797e-17
1.055370706e-16
1.657862966e-16
2.328226912e-16
2.92646723e-16
3.333653772e-16
3.469930366e-16
3.30068393e-16
2.831364743e-16
2.09784184e-16
1.154434621e-16
6.449710022e-18
2.044367918e-19
2.077596106e-19
2.110493499e-19
2.142800015e-19
2.174244666e-19
2.204534274e-19
2.233452958e-19
2.260746783e-19
2.286220595e-19
2.309731713e-19
2.331049844e-19
2.350115592e-19
2.367030753e-19
2.381825557e-19
3.086180456e-16
1.560554096e-13
4.846369917e-12
1.242724511e-11
8.886205152e-17
2.268605438e-16
3.105086175e-16
3.419352774e-16
3.27675342e-16
2.788513131e-16
2.104386788e-16
1.394241927e-16
8.204632994e-17
5.077006142e-17
5.160348172e-17
8.321852459e-17
1.375069145e-16
2.018186855e-16
2.620825368e-16
3.057461493e-16
3.238490466e-16
3.119678312e-16
2.698729017e-16
2.006743208e-16
1.096139131e-16
3.034971102e-18
2.044265053e-19
2.077490196e-19
2.110385735e-19
2.142691726e-19
2.174136141e-19
2.204431485e-19
2.233353609e-19
2.260653917e-19
2.286135535e-19
2.309648778e-19
2.33097611e-19
2.350056596e-19
2.366981507e-19
2.38178465e-19
3.306246723e-16
3.09661853e-13
5.0968437e-12
1.284259663e-11
9.00915223e-17
2.313592203e-16
3.19139168e-16
3.549181603e-16
3.443388713e-16
2.975114099e-16
2.285097859e-16
1.538142367e-16
8.979255009e-17
4.972834476e-17
4.100258616e-17
6.392330514e-17
1.117135641e-16
1.725524061e-16
2.324660638e-16
2.783923451e-16
3.004866853e-16
2.933778596e-16
2.560289993e-16
1.910160007e-16
1.033307992e-16
2.01085192e-19
2.044162929e-19
2.077384793e-19
2.11027832e-19
2.14258366e-19
2.174028156e-19
2.204328659e-19
2.233254504e-19
2.260561166e-19
2.286050219e-19
2.309566236e-19
2.330902694e-19
2.349997444e-19
2.366932289e-19
2.381744298e-19
3.530801332e-16
4.669561173e-13
5.353284674e-12
1.326782948e-11
9.129151978e-17
2.357167466e-16
3.274852722e-16
3.675231437e-16
3.606754143e-16
3.161175931e-16
2.47046275e-16
1.693767238e-16
9.945735351e-17
5.117244517e-17
3.329275092e-17
4.746962805e-17
8.836682578e-17
1.450842925e-16
2.039154503e-16
2.51438385e-16
2.77026136e-16
2.743870804e-16
2.416599909e-16
1.808367787e-16
9.66032153e-17
2.01075545e-19
2.044061528e-19
2.077279913e-19
2.110171331e-19
2.142475858e-19
2.173920656e-19
2.204225848e-19
2.233155619e-19
2.260468514e-19
2.285964698e-19
2.30948405e-19
2.330829575e-19
2.349938164e-19
2.366883117e-19
2.381704495e-19
3.759948521e-16
6.280202158e-13
5.61583284e-12
1.370317435e-11
9.246055443e-17
2.399344055e-16
3.35551786e-16
3.797469544e-16
3.766501445e-16
3.345753901e-16
2.658737573e-16
1.858594799e-16
1.107558885e-16
5.494866675e-17
2.823192953e-17
3.370332037e-17
6.740687114e-17
1.194479546e-16
1.76525646e-16
2.25002394e-16
2.535806411e-16
2.55082345e-16
2.268228329e-16
1.701671708e-16
8.944292418e-17
2.01065967e-19
2.043960833e-19
2.077175566e-19
2.110064708e-19
2.142368343e-19
2.173813594e-19
2.204123094e-19
2.233056936e-19
2.260375951e-19
2.285879016e-19
2.309402189e-19
2.330756733e-19
2.349878783e-19
2.366834006e-19
2.381665233e-19
3.993791962e-16
7.929386949e-13
5.884631223e-12
1.414886233e-11
9.359787852e-17
2.440148331e-16
3.433457609e-16
3.915918614e-16
3.92241141e-16
3.528141619e-16
2.848529189e-16
2.030501871e-16
1.234165239e-16
6.069026018e-17
2.556866428e-17
2.24514792e-17
4.875544652e-17
9.565421328e-17
1.503706237e-16
1.991883999e-16
2.302536896e-16
2.355477715e-16
2.11575405e-16
1.590401236e-16
8.186421657e-17
2.010564486e-19
2.043860808e-19
2.077071754e-19
2.109958485e-19
2.142261139e-19
2.173706938e-19
2.20402043e-19
2.232958439e-19
2.260283471e-19
2.285793213e-19
2.309320627e-19
2.33068415e-19
2.349819322e-19
2.366784972e-19
1.325975503e-17
4.232435084e-16
9.617985165e-13
6.15982553e-12
1.460513442e-11
9.470328356e-17
2.47961577e-16
3.508756553e-16
4.03064019e-16
4.074360611e-16
3.70781766e-16
3.0387279e-16
2.207717902e-16
1.372070878e-16
6.814707401e-17
2.507398005e-17
1.35394395e-17
3.23253275e-17
7.369517388e-17
1.25505507e-16
1.740872647e-16
2.071376533e-16
2.158644768e-16
1.959758187e-16
1.47490504e-16
7.388361283e-17
2.010469795e-19
2.043761421e-19
2.076968479e-19
2.10985267e-19
2.14215426e-19
2.173600662e-19
2.203917881e-19
2.232860116e-19
2.260191065e-19
2.28570732e-19
2.309239338e-19
2.33061181e-19
2.349759805e-19
2.36673603e-19
2.982619128e-17
4.475981665e-16
1.13468904e-12
6.441564536e-12
1.507223857e-11
9.577695086e-17
2.517787834e-16
3.581508073e-16
4.141721697e-16
4.222296998e-16
3.884404652e-16
3.228454154e-16
2.388773555e-16
1.519283266e-16
7.708661609e-17
2.643887632e-17
6.79037507e-18
1.801503514e-17
5.354674968e-17
1.019682468e-16
1.49774535e-16
1.843174301e-16
1.961094809e-16
1.800817474e-16
1.355546108e-16
6.551958698e-17
2.010375481e-19
2.043662631e-19
2.076865735e-19
2.109747273e-19
2.142047719e-19
2.173494746e-19
2.203815466e-19
2.232761959e-19
2.260098731e-19
2.285621363e-19
2.309158303e-19
2.330539699e-19
2.349700249e-19
2.366687193e-19
4.674257407e-17
4.724535975e-16
1.311701985e-12
6.730000301e-12
1.55504281e-11
9.681934355e-17
2.554709682e-16
3.651810531e-16
4.249267882e-16
4.366220824e-16
4.057637353e-16
3.417015017e-16
2.572455391e-16
1.674124374e-16
8.732947351e-17
2.9634423e-17
2.057093453e-18
5.718308588e-18
3.517204148e-17
7.978159631e-17
1.263113048e-16
1.618705051e-16
1.763554645e-16
1.639498715e-16
1.232697173e-16
5.679229099e-17
2.010281419e-19
2.043564388e-19
2.076763516e-19
2.109642298e-19
2.141941527e-19
2.173389176e-19
2.203713203e-19
2.23266396e-19
2.260006464e-19
2.285535366e-19
2.309077503e-19
2.330467803e-19
2.349640673e-19
2.366638475e-19
6.401609076e-17
4.978202991e-16
1.49293141e-12
7.025288266e-12
1.60399618e-11
9.783111926e-17
2.590428387e-16
3.719763947e-16
4.353394751e-16
4.506170657e-16
4.227337466e-16
3.603867157e-16
2.757755816e-16
1.835127737e-16
9.869178431e-17
3.438639149e-17
1.676152326e-19
1.713041337e-19
1.852439192e-17
5.895530883e-17
1.037469585e-16
1.398653717e-16
1.56670388e-16
1.476353988e-16
1.106736499e-16
4.772327799e-17
2.010187476e-19
2.043466638e-19
2.076661808e-19
2.10953775e-19
2.141835691e-19
2.173283939e-19
2.203611104e-19
2.232566114e-19
2.259914264e-19
2.285449348e-19
2.308996923e-19
2.33039611e-19
2.349581092e-19
2.36658989e-19
8.165405239e-17
5.237088554e-16
1.678473707e-12
7.327587333e-12
1.654110414e-11
9.881307057e-17
2.624991733e-16
3.785468144e-16
4.454224628e-16
4.642212726e-16
4.393394065e-16
3.788587826e-16
2.943839642e-16
2.001029509e-16
1.110137293e-16
4.053071212e-17
1.674208869e-19
1.711500248e-19
3.549061161e-18
3.948804663e-17
8.212007393e-17
1.183619354e-16
1.371173078e-16
1.311916631e-16
9.780440261e-17
3.833523774e-17
2.010093509e-19
2.043369318e-19
2.076560594e-19
2.109433631e-19
2.141730214e-19
2.173179028e-19
2.203509178e-19
2.232468415e-19
2.259822129e-19
2.285363324e-19
2.308916548e-19
2.330324611e-19
2.349521521e-19
2.36654145e-19
9.966389213e-17
5.50129955e-16
1.868427621e-12
7.637059942e-12
1.705412541e-11
9.976607793e-17
2.658447359e-16
3.849021484e-16
4.551882573e-16
4.774432861e-16
4.555748405e-16
3.970851979e-16
3.13001707e-16
2.170746147e-16
1.241549006e-16
4.791226262e-17
1.672266351e-19
1.709943425e-19
1.745903207e-19
2.136930088e-17
6.145944757e-17
9.741189011e-17
1.177543786e-16
1.146697898e-16
8.469978918e-17
2.865173927e-17
2.009999369e-19
2.04327236e-19
2.076459853e-19
2.109329938e-19
2.141625095e-19
2.173074434e-19
2.203407433e-19
2.232370861e-19
2.259730059e-19
2.285277309e-19
2.308836366e-19
2.330253294e-19
2.349461975e-19
2.366493166e-19
1.180531692e-16
5.770944004e-16
2.062894254e-12
7.953872158e-12
1.757930189e-11
1.006910749e-16
2.690842064e-16
3.910519423e-16
4.646494381e-16
4.902930487e-16
4.714382069e-16
4.150413832e-16
3.315720741e-16
2.343352077e-16
1.379928423e-16
5.639786594e-17
1.670327956e-19
1.70837403e-19
1.744701361e-19
4.582066714e-18
4.178511893e-17
7.705900278e-17
9.863508074e-17
9.811838598e-17
7.13971325e-17
1.869698647e-17
2.009904904e-19
2.043175692e-19
2.076359559e-19
2.109226668e-19
2.141520331e-19
2.172970152e-19
2.203305875e-19
2.232273448e-19
2.259638055e-19
2.285191314e-19
2.308756366e-19
2.330182152e-19
2.349402464e-19
2.366445053e-19
1.36829571e-16
6.046131225e-16
2.261977093e-12
8.27819375e-12
1.811691597e-11
1.015890229e-16
2.722221448e-16
3.970054275e-16
4.738184417e-16
5.02781395e-16
4.86930765e-16
4.327091818e-16
3.500485686e-16
2.518056072e-16
1.52419646e-16
6.586479143e-17
3.252734366e-18
1.706794971e-19
1.743479155e-19
1.778620961e-19
2.310914702e-17
5.734016425e-17
7.980778214e-17
8.158316099e-17
5.793299811e-17
8.495591716e-18
2.009809953e-19
2.043079234e-19
2.076259684e-19
2.109123819e-19
2.141415972e-19
2.17286618e-19
2.203204511e-19
2.232176175e-19
2.259546118e-19
2.285105348e-19
2.308676538e-19
2.330111178e-19
2.349343002e-19
2.366397122e-19
1.560009167e-16
6.326971876e-16
2.465782033e-12
8.610198272e-12
1.866725635e-11
1.02460894e-16
2.75262967e-16
4.027714859e-16
4.827074343e-16
5.149197031e-16
5.02056138e-16
4.500756275e-16
3.683932303e-16
2.694180845e-16
1.673395781e-16
7.619759995e-17
7.544943264e-18
1.705208871e-19
1.742238969e-19
1.777704534e-19
5.437249954e-18
3.82873335e-17
6.131381358e-17
6.510721537e-17
4.434300981e-17
1.976531711e-19
2.009714355e-19
2.042982901e-19
2.076160194e-19
2.10902138e-19
2.141311957e-19
2.172762513e-19
2.203103342e-19
2.23207904e-19
2.259454249e-19
2.28501942e-19
2.308596873e-19
2.330040364e-19
2.349283599e-19
2.366349383e-19
1.755751609e-16
6.613578091e-16
2.674417402e-12
8.950063151e-12
1.923061821e-11
1.033076563e-16
2.782109257e-16
4.083586229e-16
4.913282316e-16
5.267196318e-16
5.168197347e-16
4.671319489e-16
3.865752429e-16
2.871147434e-16
1.826681527e-16
8.729242769e-17
1.291347628e-17
1.703618167e-19
1.740983067e-19
1.776766641e-19
1.811240412e-19
1.992620961e-17
4.31898568e-17
4.873079375e-17
3.066162933e-17
1.9764266e-19
2.009617941e-19
2.042886607e-19
2.07606105e-19
2.108919339e-19
2.141208306e-19
2.172659148e-19
2.203002373e-19
2.231982042e-19
2.259362449e-19
2.284933537e-19
2.308517363e-19
2.329969704e-19
2.349224266e-19
2.366301851e-19
1.955603997e-16
6.906063574e-16
2.887994004e-12
9.297969768e-12
1.98073033e-11
1.041302646e-16
2.810700995e-16
4.137749547e-16
4.996922456e-16
5.381929261e-16
5.312282938e-16
4.838727645e-16
4.045697899e-16
3.048462208e-16
1.983310683e-16
9.905580368e-17
1.925730228e-17
1.702025086e-19
1.739713561e-19
1.775808965e-19
1.810557107e-19
2.27598419e-18
2.546945899e-17
3.249127887e-17
1.692188863e-17
1.976318688e-19
2.009520548e-19
2.042790257e-19
2.075962212e-19
2.108817684e-19
2.141105014e-19
2.172556083e-19
2.202901605e-19
2.23188518e-19
2.25927072e-19
2.284847704e-19
2.308438001e-19
2.329899193e-19
2.349165011e-19
2.366254535e-19
2.159648774e-16
7.204543752e-16
3.106625158e-12
9.654103549e-12
2.039762021e-11
1.049296527e-16
2.838443879e-16
4.190282079e-16
5.078104512e-16
5.493512724e-16
5.452895258e-16
5.002954276e-16
4.223570984e-16
3.225705666e-16
2.142632253e-16
1.114040758e-16
2.648104069e-17
1.700430802e-19
1.738432342e-19
1.774833129e-19
1.809853681e-19
1.843831543e-19
8.182272991e-18
1.642323216e-17
3.155417295e-18
1.976207739e-19
2.009422008e-19
2.042693757e-19
2.075863635e-19
2.108716399e-19
2.141002077e-19
2.172453313e-19
2.202801041e-19
2.231788454e-19
2.259179063e-19
2.284761927e-19
2.308358781e-19
2.329828828e-19
2.349105845e-19
2.366207448e-19
2.367969981e-16
7.509135995e-16
3.330426739e-12
1.001865406e-11
2.100188444e-11
1.057067284e-16
2.865375099e-16
4.241257239e-16
5.156933665e-16
5.60206195e-16
5.590118287e-16
5.163994898e-16
4.399216292e-16
3.402522367e-16
2.304077772e-16
1.242640131e-16
3.451459211e-17
1.698838189e-19
1.737141323e-19
1.773840678e-19
1.809131208e-19
1.843332111e-19
1.876817293e-19
5.583781576e-19
1.942979764e-19
1.976093522e-19
2.009322158e-19
2.042597008e-19
2.075765271e-19
2.108615464e-19
2.140899489e-19
2.172350837e-19
2.20270068e-19
2.231691863e-19
2.259087479e-19
2.284676209e-19
2.308279697e-19
2.329758602e-19
2.349046775e-19
2.366160601e-19
2.580653384e-16
7.819960015e-16
3.559517254e-12
1.039181508e-11
2.162041865e-11
1.064623701e-16
2.891530059e-16
4.290744671e-16
5.233510416e-16
5.707689852e-16
5.724040618e-16
5.321862568e-16
4.572513753e-16
3.578611286e-16
2.467146727e-16
1.375680626e-16
4.327604862e-17
1.69724833e-19
1.73584222e-19
1.772833151e-19
1.808390758e-19
1.84281535e-19
1.876471216e-19
1.909712986e-19
1.942823678e-19
1.975975819e-19
2.009220832e-19
2.042499908e-19
2.075667068e-19
2.108514858e-19
2.140797242e-19
2.17224865e-19
2.202600525e-19
2.231595408e-19
2.258995971e-19
2.284590554e-19
2.308200744e-19
2.329688514e-19
2.348987811e-19
2.366114006e-19
2.797786695e-16
8.137138636e-16
3.794017925e-12
1.077378477e-11
2.225355279e-11
1.071974252e-16
2.916942432e-16
4.338810384e-16
5.307930413e-16
5.810506637e-16
5.85475366e-16
5.476584255e-16
4.743372782e-16
3.75371803e-16
2.631398628e-16
1.512550616e-16
5.269221753e-17
1.695662624e-19
1.734536637e-19
1.771811968e-19
1.807633384e-19
1.842281861e-19
1.876111005e-19
1.909474187e-19
1.942660889e-19
1.975854424e-19
2.009117869e-19
2.042402355e-19
2.075568974e-19
2.108414559e-19
2.140695329e-19
2.172146749e-19
2.202500575e-19
2.231499089e-19
2.258904539e-19
2.284504963e-19
2.308121917e-19
2.32961856e-19
2.34892896e-19
2.366067675e-19
3.019459803e-16
8.460799287e-16
4.034052834e-12
1.116476571e-11
2.290162433e-11
1.079127094e-16
2.941644232e-16
4.385517028e-16
5.380285277e-16
5.910618259e-16
5.982350489e-16
5.628197911e-16
4.911727444e-16
3.927628461e-16
2.796446752e-16
1.652700141e-16
6.269684166e-17
1.694082336e-19
1.733226069e-19
1.770778492e-19
1.806860121e-19
1.841732258e-19
1.875736892e-19
1.909224936e-19
1.942491228e-19
1.975729142e-19
2.00901311e-19
2.042304245e-19
2.075470931e-19
2.108314542e-19
2.140593737e-19
2.17204513e-19
2.202400829e-19
2.231402904e-19
2.258813187e-19
2.284419439e-19
2.308043212e-19
2.329548738e-19
2.348870229e-19
2.36602162e-19
3.245764925e-16
8.791076926e-16
4.279749106e-12
1.156496516e-11
2.356497844e-11
1.086090051e-16
2.965665865e-16
4.430923967e-16
5.450662226e-16
6.008127146e-16
6.106924435e-16
5.776750024e-16
5.077532441e-16
4.100163342e-16
2.961952468e-16
1.795635959e-16
7.322937303e-17
1.692508579e-19
1.731911921e-19
1.769734003e-19
1.80607198e-19
1.841167168e-19
1.875349139e-19
1.908965225e-19
1.942314548e-19
1.975599792e-19
2.008906401e-19
2.042205473e-19
2.075372882e-19
2.108214777e-19
2.140492457e-19
2.171943789e-19
2.202301289e-19
2.231306854e-19
2.258721916e-19
2.284333983e-19
2.307964624e-19
2.329479045e-19
2.348811627e-19
2.365975853e-19
3.476796139e-16
9.128119809e-16
4.531237214e-12
1.197459515e-11
2.424396819e-11
1.092870628e-16
2.989036191e-16
4.475087398e-16
5.519144076e-16
6.103132143e-16
6.228568386e-16
5.922293674e-16
5.240759764e-16
4.271173702e-16
3.127620063e-16
1.940917002e-16
8.423471584e-17
1.69094228e-19
1.730594822e-19
1.768679649e-19
1.805269936e-19
1.840587225e-19
1.874948032e-19
1.90869508e-19
1.942130726e-19
1.975466202e-19
2.00879759e-19
2.042105934e-19
2.075274764e-19
2.108115237e-19
2.140391476e-19
2.17184272e-19
2.202201952e-19
2.231210937e-19
2.258630727e-19
2.284248598e-19
2.307886151e-19
2.32940948e-19
2.348753159e-19
2.365930385e-19
3.712646778e-16
6.45571245e-14
4.788651426e-12
1.239387283e-11
2.493895476e-11
1.099476001e-16
3.011782585e-16
4.518060517e-16
5.585809516e-16
6.195728319e-16
6.347374161e-16
6.064886929e-16
5.401395831e-16
4.440536753e-16
3.293191835e-16
2.088150043e-16
9.566400383e-17
1.271752724e-18
1.729276779e-19
1.767616657e-19
1.804454944e-19
1.839993065e-19
1.874533881e-19
1.908414549e-19
1.941939656e-19
1.975328215e-19
2.008686531e-19
2.042005522e-19
2.075176516e-19
2.10801589e-19
2.140290781e-19
2.171741919e-19
2.202102817e-19
2.231115153e-19
2.258539622e-19
2.284163284e-19
2.307807788e-19
2.32934004e-19
2.348694833e-19
1.117547475e-18
3.953411335e-16
2.28825962e-13
5.052130382e-12
1.282302058e-11
2.565030764e-11
1.105913025e-16
3.03393101e-16
4.559893697e-16
5.650733335e-16
6.286006891e-16
6.463432036e-16
6.204591541e-16
5.559439054e-16
4.608152195e-16
3.458443095e-16
2.236981413e-16
1.074713792e-16
8.780398694e-18
1.727958453e-19
1.766546117e-19
1.803627914e-19
1.839385324e-19
1.874107012e-19
1.908123708e-19
1.941741258e-19
1.975185686e-19
2.008573084e-19
2.041904134e-19
2.075078074e-19
2.107916702e-19
2.140190355e-19
2.171641378e-19
2.202003883e-19
2.231019502e-19
2.258448601e-19
2.284078043e-19
2.307729533e-19
2.329270724e-19
2.348636657e-19
1.814693939e-17
4.19918979e-16
3.970153034e-13
5.321816527e-12
1.326226608e-11
2.637840478e-11
1.112188245e-16
3.055506084e-16
4.600634646e-16
5.713986732e-16
6.374055146e-16
6.576830372e-16
6.341471857e-16
5.714897763e-16
4.773939058e-16
3.623178051e-16
2.387092941e-16
1.196143709e-16
1.682784249e-17
1.726640808e-19
1.765469053e-19
1.802789757e-19
1.838764636e-19
1.873667765e-19
1.907822654e-19
1.941535466e-19
1.975038482e-19
2.008457113e-19
2.041801666e-19
2.074979372e-19
2.107817639e-19
2.140090183e-19
2.171541092e-19
2.201905148e-19
2.230923984e-19
2.258357666e-19
2.283992874e-19
2.307651382e-19
2.329201531e-19
2.348578635e-19
3.553743813e-17
4.450083077e-16
5.692101808e-13
5.597854668e-12
1.371184231e-11
2.712363271e-11
1.118307904e-16
3.076531142e-16
4.640328472e-16
5.77563698e-16
6.459957023e-16
6.687655427e-16
6.475593956e-16
5.867788455e-16
4.937832992e-16
3.787226404e-16
2.5381988e-16
1.320541379e-16
2.536895786e-17
1.725324727e-19
1.76438644e-19
1.801941308e-19
1.83813163e-19
1.873216496e-19
1.907511501e-19
1.941322238e-19
1.974886484e-19
2.008338491e-19
2.041698015e-19
2.074880345e-19
2.107718665e-19
2.139990248e-19
2.171441053e-19
2.201806606e-19
2.2308286e-19
2.258266816e-19
2.283907779e-19
2.307573334e-19
2.329132461e-19
2.348520774e-19
5.329621247e-17
4.706192785e-16
7.454982242e-13
5.880392236e-12
1.417198749e-11
2.788638685e-11
1.124277954e-16
3.097028309e-16
4.679017881e-16
5.835747953e-16
6.543792871e-16
6.795991123e-16
6.607024923e-16
6.018134339e-16
5.099783995e-16
3.950440476e-16
2.69004273e-16
1.447551985e-16
3.436188478e-17
1.724011013e-19
1.763299207e-19
1.801083396e-19
1.83748692e-19
1.872753573e-19
1.907190384e-19
1.941101544e-19
1.974729584e-19
2.008217094e-19
2.041593082e-19
2.074780925e-19
2.107619741e-19
2.13989053e-19
2.171341252e-19
2.201708253e-19
2.230733352e-19
2.258176053e-19
2.283822757e-19
2.307495386e-19
2.329063512e-19
2.348463079e-19
7.143057043e-17
4.967621323e-16
9.259696179e-13
6.169579548e-12
1.464294516e-11
2.866707156e-11
1.13010407e-16
3.117018581e-16
4.716743367e-16
5.894380418e-16
6.625639437e-16
6.901918885e-16
6.735832253e-16
6.165964099e-16
5.259754452e-16
4.112692679e-16
2.842395381e-16
1.576851767e-16
4.37677317e-17
1.722700379e-19
1.762208067e-19
1.800216799e-19
1.836831112e-19
1.872279368e-19
1.906859448e-19
1.940873375e-19
1.974567687e-19
2.008092807e-19
2.041486767e-19
2.074681047e-19
2.10752083e-19
2.139791011e-19
2.171241678e-19
2.201610085e-19
2.230638239e-19
2.258085376e-19
2.28373781e-19
2.307417535e-19
2.328994684e-19
2.348405556e-19