/*--------------------------------*- C++ -*----------------------------------*\
| =========                 |                                                 |
| \\      /  F ield         | OpenFOAM: The Open Source CFD Toolbox           |
|  \\    /   O peration     | Version:  v2006                                 |
|   \\  /    A nd           | Website:  www.openfoam.com                      |
|    \\/     M anipulation  |                                                 |
\*---------------------------------------------------------------------------*/
FoamFile
{
    version     2.0;
    format      ascii;
    class       volScalarField;
    location    "0.09";
    object      HO2;
}
// * * * * * * * * * * * * * * * * * * * * * * * * * * * * * * * * * * * * * //

dimensions      [0 0 0 0 0 0 0];


internalField   nonuniform List<scalar> 
168000
(
7.744867705e-09
8.39503008e-09
8.978352225e-09
9.610238762e-09
1.023283242e-08
1.079709873e-08
1.137625874e-08
1.195553044e-08
1.238712993e-08
1.27537096e-08
1.308697446e-08
1.327540355e-08
1.335331012e-08
1.338402193e-08
1.325458178e-08
1.304104303e-08
1.276306144e-08
1.235526663e-08
1.189980461e-08
1.137354422e-08
1.079767585e-08
1.020869037e-08
1.023264967e-08
1.039491968e-08
1.055705721e-08
1.071386649e-08
1.087046192e-08
1.101575304e-08
1.115884353e-08
1.129176535e-08
1.141497411e-08
1.153139937e-08
1.163484755e-08
1.172648394e-08
1.18088615e-08
1.188120727e-08
1.198924202e-08
1.451214204e-08
5.136783503e-08
1.722607548e-07
7.549789164e-09
8.250201769e-09
8.690735673e-09
9.130097825e-09
9.619390468e-09
1.015020056e-08
1.073165995e-08
1.133205356e-08
1.186737297e-08
1.233992754e-08
1.274608478e-08
1.302758926e-08
1.318848506e-08
1.325392608e-08
1.317937092e-08
1.299758087e-08
1.272587803e-08
1.234503016e-08
1.18882775e-08
1.137171843e-08
1.079797505e-08
1.020973615e-08
1.023200178e-08
1.039448661e-08
1.055634399e-08
1.071359562e-08
1.086955162e-08
1.10155162e-08
1.115822794e-08
1.12912601e-08
1.14147031e-08
1.153088101e-08
1.163444097e-08
1.172624692e-08
1.180863104e-08
1.188094901e-08
1.20861255e-08
1.465013088e-08
5.522709368e-08
1.786867026e-07
7.379534076e-09
8.117836433e-09
8.504122618e-09
8.816296954e-09
9.178710397e-09
9.629025672e-09
1.017012245e-08
1.076817885e-08
1.135910888e-08
1.190877453e-08
1.238851161e-08
1.275381936e-08
1.299197975e-08
1.31084696e-08
1.308547673e-08
1.293905394e-08
1.268500255e-08
1.23244639e-08
1.187595944e-08
1.136639755e-08
1.079751179e-08
1.02100782e-08
1.02313881e-08
1.039401795e-08
1.055568217e-08
1.071325221e-08
1.086872689e-08
1.101521606e-08
1.115763983e-08
1.129076268e-08
1.141440689e-08
1.153038028e-08
1.163403816e-08
1.172600281e-08
1.180839918e-08
1.188069587e-08
1.218429196e-08
1.479116789e-08
5.918198416e-08
1.852561995e-07
7.25821871e-09
8.013788067e-09
8.385681343e-09
8.619336264e-09
8.874072416e-09
9.227651321e-09
9.700730788e-09
1.026934943e-08
1.087895258e-08
1.147834173e-08
1.202105876e-08
1.246046593e-08
1.277116089e-08
1.29456245e-08
1.2974478e-08
1.286675501e-08
1.26373678e-08
1.229693378e-08
1.186085677e-08
1.135850319e-08
1.079590445e-08
1.020980896e-08
1.023079809e-08
1.039352531e-08
1.055505696e-08
1.071285519e-08
1.086796807e-08
1.101486707e-08
1.115707312e-08
1.129027215e-08
1.141408952e-08
1.152989441e-08
1.163363914e-08
1.172575242e-08
1.180816599e-08
1.188044754e-08
1.228389693e-08
1.493526241e-08
6.323391668e-08
1.91974238e-07
7.170082877e-09
7.937630669e-09
8.314085617e-09
8.50336429e-09
8.673644131e-09
8.931393433e-09
9.32209156e-09
9.838941973e-09
1.043796482e-08
1.106174211e-08
1.165188969e-08
1.21541995e-08
1.253173314e-08
1.276604218e-08
1.28476692e-08
1.278151887e-08
1.258155621e-08
1.226287636e-08
1.184197702e-08
1.134812008e-08
1.079251692e-08
1.020892228e-08
1.023022473e-08
1.039301677e-08
1.055445777e-08
1.07124187e-08
1.08672601e-08
1.10144804e-08
1.115652314e-08
1.128978761e-08
1.141375436e-08
1.152942112e-08
1.163324385e-08
1.172549644e-08
1.180793155e-08
1.188020373e-08
1.238507506e-08
1.508243464e-08
6.738448734e-08
1.988456331e-07
7.103206535e-09
7.883991258e-09
8.275172948e-09
8.443361261e-09
8.55140715e-09
8.72288766e-09
9.026694676e-09
9.476761837e-09
1.004270833e-08
1.06683831e-08
1.128878066e-08
1.18414947e-08
1.227873543e-08
1.257165646e-08
1.270641817e-08
1.268403253e-08
1.251697683e-08
1.222234234e-08
1.181878536e-08
1.133506585e-08
1.07873161e-08
1.020715782e-08
1.022966332e-08
1.039249789e-08
1.055387706e-08
1.071195331e-08
1.086659144e-08
1.101406473e-08
1.115598627e-08
1.128930823e-08
1.141340429e-08
1.152895853e-08
1.16328522e-08
1.172523551e-08
1.180769597e-08
1.187996418e-08
1.248794431e-08
1.52327138e-08
7.163545396e-08
2.058750676e-07
7.050879136e-09
7.847265244e-09
8.258986999e-09
8.421719248e-09
8.487019876e-09
8.585345977e-09
8.804696079e-09
9.17978778e-09
9.696164531e-09
1.030466328e-08
1.093837321e-08
1.152829756e-08
1.201683092e-08
1.236501466e-08
1.255226247e-08
1.257503011e-08
1.244348677e-08
1.217524965e-08
1.179097278e-08
1.131920268e-08
1.078016205e-08
1.020443502e-08
1.02291108e-08
1.039197254e-08
1.055330947e-08
1.071146689e-08
1.086595326e-08
1.101362676e-08
1.115545974e-08
1.128883326e-08
1.141304171e-08
1.152850504e-08
1.163246402e-08
1.172497019e-08
1.180745934e-08
1.187972865e-08
1.259260939e-08
1.538613652e-08
7.598871719e-08
2.130671301e-07
7.009072394e-09
7.823064277e-09
8.258794449e-09
8.427022387e-09
8.464569183e-09
8.503955013e-09
8.645395493e-09
8.942626681e-09
9.398540823e-09
9.974497857e-09
1.060591735e-08
1.121982718e-08
1.175035605e-08
1.214888944e-08
1.238690673e-08
1.245536344e-08
1.23612177e-08
1.21215292e-08
1.175834276e-08
1.130028568e-08
1.077092768e-08
1.020061001e-08
1.022856508e-08
1.039144337e-08
1.055275126e-08
1.071096529e-08
1.086533878e-08
1.101317167e-08
1.115494141e-08
1.128836204e-08
1.141266866e-08
1.152805937e-08
1.163207916e-08
1.1724701e-08
1.180722176e-08
1.187949695e-08
1.269916451e-08
1.554274567e-08
8.044630454e-08
2.204263479e-07
6.975119551e-09
7.80810165e-09
8.269807708e-09
8.450850295e-09
8.473411219e-09
8.466551333e-09
8.538572382e-09
8.759180972e-09
9.148239651e-09
9.679814634e-09
1.029526253e-08
1.092046782e-08
1.148323606e-08
1.192611072e-08
1.221217471e-08
1.232601138e-08
1.227049135e-08
1.206118238e-08
1.172077485e-08
1.127812016e-08
1.075949636e-08
1.019554854e-08
1.022802504e-08
1.039091223e-08
1.05521998e-08
1.071045286e-08
1.086474281e-08
1.101270349e-08
1.115442962e-08
1.128789397e-08
1.141228684e-08
1.152762039e-08
1.163169743e-08
1.17244284e-08
1.180698335e-08
1.187926889e-08
1.280769555e-08
1.570258939e-08
8.501035747e-08
2.279572135e-07
6.947156209e-09
7.799962032e-09
8.288639953e-09
8.487394378e-09
8.5043668e-09
8.462259895e-09
8.4749206e-09
8.622874292e-09
8.942187106e-09
9.420969679e-09
1.000897339e-08
1.063374359e-08
1.121893762e-08
1.169942527e-08
1.202995258e-08
1.21880607e-08
1.217177238e-08
1.199429895e-08
1.167820955e-08
1.125254239e-08
1.074570782e-08
1.018911988e-08
1.022749003e-08
1.039038042e-08
1.055165331e-08
1.070993283e-08
1.08641614e-08
1.101222534e-08
1.115392309e-08
1.128742855e-08
1.14118977e-08
1.152718722e-08
1.163131864e-08
1.172415278e-08
1.18067442e-08
1.187904431e-08
1.291828193e-08
1.586572034e-08
8.968312099e-08
2.356642071e-07
6.923839443e-09
7.796876836e-09
8.312888829e-09
8.532622061e-09
8.551366109e-09
8.484538326e-09
8.446652776e-09
8.527329382e-09
8.776797479e-09
9.197189965e-09
9.748515147e-09
1.036235234e-08
1.096044137e-08
1.14714064e-08
1.184212591e-08
1.204267617e-08
1.206563676e-08
1.192105757e-08
1.163064344e-08
1.122343305e-08
1.07295162e-08
1.018120372e-08
1.022695922e-08
1.038984883e-08
1.055111056e-08
1.070940761e-08
1.086359148e-08
1.101173965e-08
1.115342082e-08
1.128696535e-08
1.141150246e-08
1.152675906e-08
1.163094261e-08
1.172387454e-08
1.180650443e-08
1.187882307e-08
1.3030998e-08
1.603219524e-08
9.446693568e-08
2.435518158e-07
6.904181751e-09
7.797544385e-09
8.34082805e-09
8.583640929e-09
8.609672962e-09
8.526255968e-09
8.446129132e-09
8.466534106e-09
8.648101175e-09
9.007045751e-09
9.514459584e-09
1.01082357e-08
1.071023335e-08
1.124441815e-08
1.165050182e-08
1.189107273e-08
1.195274674e-08
1.184171865e-08
1.157812589e-08
1.119070874e-08
1.071080394e-08
1.017169647e-08
1.022643246e-08
1.038931806e-08
1.055057073e-08
1.070887896e-08
1.086303072e-08
1.101124829e-08
1.115292205e-08
1.128650401e-08
1.141110212e-08
1.152633528e-08
1.163056916e-08
1.172359399e-08
1.180626414e-08
1.187860506e-08
1.314591432e-08
1.620207463e-08
9.936423166e-08
2.516245496e-07
6.887444067e-09
7.801000144e-09
8.371210468e-09
8.638385736e-09
8.675859967e-09
8.582775754e-09
8.46901518e-09
8.435321686e-09
8.552068763e-09
8.84826105e-09
9.306632827e-09
9.872665397e-09
1.047031338e-08
1.102053856e-08
1.145681921e-08
1.173448124e-08
1.183382803e-08
1.175661381e-08
1.152075651e-08
1.115432444e-08
1.068949347e-08
1.016050711e-08
1.022590959e-08
1.038878849e-08
1.05500333e-08
1.070834821e-08
1.086247733e-08
1.101075273e-08
1.115242615e-08
1.128604422e-08
1.141069756e-08
1.152591534e-08
1.163019811e-08
1.172331143e-08
1.180602344e-08
1.187839016e-08
1.326309868e-08
1.637542308e-08
1.043775248e-07
2.598869559e-07
6.873064533e-09
7.806524454e-09
8.403129798e-09
8.695368718e-09
8.747370384e-09
8.650244342e-09
8.509805596e-09
8.42821513e-09
8.48477354e-09
8.718572673e-09
9.124349477e-09
9.656350014e-09
1.024222746e-08
1.080156521e-08
1.126269646e-08
1.15741218e-08
1.170964863e-08
1.166613405e-08
1.14586817e-08
1.1114272e-08
1.066552392e-08
1.014754351e-08
1.022539055e-08
1.038826096e-08
1.054949796e-08
1.070781634e-08
1.086192994e-08
1.101025412e-08
1.115193266e-08
1.128558572e-08
1.14102895e-08
1.152549877e-08
1.16298293e-08
1.172302713e-08
1.180578242e-08
1.187817828e-08
1.338261698e-08
1.655231004e-08
1.09509415e-07
2.683436309e-07
6.860609831e-09
7.813576127e-09
8.435925648e-09
8.753516199e-09
8.822311009e-09
8.725731735e-09
8.56488706e-09
8.44229657e-09
8.442748338e-09
8.615510904e-09
8.96663229e-09
9.459538677e-09
1.002711087e-08
1.058901674e-08
1.106960523e-08
1.141118289e-08
1.158099866e-08
1.157071774e-08
1.139209044e-08
1.107057822e-08
1.063885387e-08
1.013273715e-08
1.02248753e-08
1.038773515e-08
1.054896453e-08
1.070728408e-08
1.086138747e-08
1.100975334e-08
1.11514412e-08
1.128512832e-08
1.140987855e-08
1.152508519e-08
1.162946256e-08
1.172274133e-08
1.180554118e-08
1.187796935e-08
1.350453387e-08
1.673281197e-08
1.147625873e-07
2.769992314e-07
6.849741488e-09
7.821745577e-09
8.469116005e-09
8.812052378e-09
8.899273754e-09
8.806949705e-09
8.631100307e-09
8.473340762e-09
8.422658802e-09
8.53654094e-09
8.832026373e-09
9.282085634e-09
9.82573438e-09
1.038414337e-08
1.087887419e-08
1.124678205e-08
1.144867528e-08
1.147083914e-08
1.132120944e-08
1.102330255e-08
1.060946244e-08
1.0116042e-08
1.02243638e-08
1.038721147e-08
1.05484329e-08
1.070675198e-08
1.086084913e-08
1.100925108e-08
1.115095148e-08
1.128467182e-08
1.140946522e-08
1.152467426e-08
1.162909776e-08
1.172245424e-08
1.180529983e-08
1.187776329e-08
1.362891274e-08
1.702866563e-08
1.201398169e-07
2.858584841e-07
6.840192057e-09
7.830721086e-09
8.502349366e-09
8.87041801e-09
8.977212385e-09
8.892124968e-09
8.705907031e-09
8.518294839e-09
8.420671722e-09
8.479170687e-09
8.719117095e-09
9.123571272e-09
9.638558256e-09
1.018794323e-08
1.069168253e-08
1.108195172e-08
1.13134689e-08
1.136699764e-08
1.124629776e-08
1.097253428e-08
1.057734741e-08
1.009740528e-08
1.022385603e-08
1.038669006e-08
1.054790304e-08
1.070622044e-08
1.086031429e-08
1.100874788e-08
1.115046328e-08
1.128421609e-08
1.140904996e-08
1.152426571e-08
1.162873475e-08
1.172216605e-08
1.180505844e-08
1.187756006e-08
1.375581419e-08
2.042364533e-08
1.256439787e-07
2.949261944e-07
6.831747952e-09
7.840264055e-09
8.535370653e-09
8.928212513e-09
9.055352023e-09
8.979890109e-09
8.7872938e-09
8.574818029e-09
8.43561077e-09
8.441278114e-09
8.626371797e-09
8.983356051e-09
9.465781945e-09
1.000118068e-08
1.050903086e-08
1.091766292e-08
1.117615001e-08
1.125970766e-08
1.116764119e-08
1.091838961e-08
1.054252576e-08
1.007679428e-08
1.022335194e-08
1.038617105e-08
1.054737495e-08
1.070568977e-08
1.085978246e-08
1.100824416e-08
1.114997642e-08
1.1283761e-08
1.140863313e-08
1.152385928e-08
1.162837342e-08
1.172187694e-08
1.180481711e-08
1.18773596e-08
1.388530091e-08
2.389957996e-08
1.312780414e-07
3.042072467e-07
6.824237016e-09
7.850191357e-09
8.567995943e-09
8.985151787e-09
9.133119976e-09
9.069184098e-09
8.873608288e-09
8.640698458e-09
8.464301054e-09
8.420676916e-09
8.552215584e-09
8.860742007e-09
9.307395266e-09
9.82441144e-09
1.033176519e-08
1.075479907e-08
1.103745947e-08
1.114948953e-08
1.108554659e-08
1.086100851e-08
1.050503295e-08
1.005961159e-08
1.022285148e-08
1.038565453e-08
1.054684856e-08
1.07051602e-08
1.085925329e-08
1.100774026e-08
1.114949076e-08
1.128330647e-08
1.140821504e-08
1.152345479e-08
1.162801365e-08
1.172158707e-08
1.180457592e-08
1.187716186e-08
1.401743485e-08
2.745823227e-08
1.370450278e-07
3.137065999e-07
6.817519267e-09
7.860362017e-09
8.600094282e-09
9.041037719e-09
9.210095586e-09
9.159185418e-09
8.963513827e-09
8.714109868e-09
8.504670186e-09
8.414858048e-09
8.495043591e-09
8.754695503e-09
9.163192214e-09
9.658005686e-09
1.016058592e-08
1.059415051e-08
1.089810138e-08
1.103686128e-08
1.100033633e-08
1.080055157e-08
1.046492165e-08
1.005913884e-08
1.022235457e-08
1.038514057e-08
1.054632427e-08
1.070463192e-08
1.085872648e-08
1.100723644e-08
1.114900617e-08
1.128285244e-08
1.140779595e-08
1.152305204e-08
1.162765533e-08
1.172129657e-08
1.180433495e-08
1.18769668e-08
1.415227743e-08
3.110142202e-08
1.429480177e-07
3.234292674e-07
6.811479964e-09
7.870667316e-09
8.631574282e-09
9.095735968e-09
9.28597327e-09
9.249260748e-09
9.055936043e-09
8.793550786e-09
8.555052098e-09
8.422954223e-09
8.453467229e-09
8.664342318e-09
9.032845787e-09
9.502176242e-09
9.996058e-09
1.043641265e-08
1.075873971e-08
1.09223309e-08
1.091234306e-08
1.073719673e-08
1.042226022e-08
1.005866947e-08
1.022186112e-08
1.038462921e-08
1.054580176e-08
1.070410504e-08
1.085820183e-08
1.10067329e-08
1.114852258e-08
1.128239884e-08
1.140737607e-08
1.152265088e-08
1.162729837e-08
1.172100557e-08
1.180409429e-08
1.18767744e-08
1.428988975e-08
3.483102497e-08
1.489901554e-07
3.333802665e-07
6.806024346e-09
7.881023373e-09
8.662374186e-09
9.149159642e-09
9.360534682e-09
9.338923572e-09
9.150008488e-09
8.877751431e-09
8.613851657e-09
8.442823311e-09
8.426036372e-09
8.58869487e-09
8.915919395e-09
9.357002053e-09
9.838623813e-09
1.028219886e-08
1.061998159e-08
1.080639062e-08
1.082190497e-08
1.067113626e-08
1.037713183e-08
1.005820303e-08
1.022137095e-08
1.038412049e-08
1.054528122e-08
1.070357969e-08
1.085767917e-08
1.100622979e-08
1.11480399e-08
1.128194564e-08
1.140695559e-08
1.152225118e-08
1.162694268e-08
1.172071419e-08
1.1803854e-08
1.19532722e-08
1.443033276e-08
3.864897015e-08
1.551746426e-07
3.435648288e-07
6.801073618e-09
7.891365552e-09
8.692454392e-09
9.201257266e-09
9.433627716e-09
9.427802382e-09
9.245033528e-09
8.96564783e-09
8.679701828e-09
8.473009181e-09
8.411429342e-09
8.526752072e-09
8.811922288e-09
9.222451904e-09
9.688615494e-09
1.013204593e-08
1.048236924e-08
1.068951534e-08
1.07293617e-08
1.060257368e-08
1.032963274e-08
1.005773899e-08
1.022088391e-08
1.038361439e-08
1.054476268e-08
1.070305593e-08
1.085715836e-08
1.100572725e-08
1.114755807e-08
1.128149281e-08
1.140653467e-08
1.152185283e-08
1.162658818e-08
1.172042252e-08
1.180361416e-08
1.205064917e-08
1.457366763e-08
4.25572393e-08
1.615047467e-07
3.539883334e-07
6.796561843e-09
7.901644232e-09
8.721792078e-09
9.252003264e-09
9.505150915e-09
9.51561614e-09
9.340451276e-09
9.056352384e-09
8.751426073e-09
8.512154541e-09
8.407842017e-09
8.477496622e-09
8.720278376e-09
9.098399081e-09
9.54626461e-09
9.986401165e-09
1.034640148e-08
1.057215617e-08
1.063505047e-08
1.0531721e-08
1.027987068e-08
1.005727681e-08
1.022039978e-08
1.03831109e-08
1.054424618e-08
1.070253383e-08
1.085663933e-08
1.100522537e-08
1.114707705e-08
1.128104032e-08
1.140611344e-08
1.152145572e-08
1.16262348e-08
1.172013067e-08
1.180337483e-08
1.215008969e-08
1.471995583e-08
4.655786591e-08
1.679838057e-07
3.646562708e-07
6.792433526e-09
7.911821565e-09
8.750377117e-09
9.301391356e-09
9.575041158e-09
9.602155023e-09
9.435814112e-09
9.149127833e-09
8.828030776e-09
8.559212882e-09
8.415132358e-09
8.440084639e-09
8.640382133e-09
8.984641115e-09
9.411713627e-09
9.84562736e-09
1.021253411e-08
1.045473905e-08
1.05393028e-08
1.045879595e-08
1.022796322e-08
1.005681586e-08
1.021991835e-08
1.038260997e-08
1.054373175e-08
1.070201344e-08
1.085612198e-08
1.100472424e-08
1.114659681e-08
1.128058817e-08
1.140569202e-08
1.152105976e-08
1.162588247e-08
1.171983872e-08
1.180313609e-08
1.225163611e-08
1.486925925e-08
5.065293469e-08
1.746152299e-07
3.755742465e-07
6.788641687e-09
7.921868889e-09
8.778208614e-09
9.349429693e-09
9.643264491e-09
9.687265137e-09
9.530764919e-09
9.243358178e-09
8.908644933e-09
8.613107244e-09
8.431696217e-09
8.419423295e-09
8.600197113e-09
8.880917618e-09
9.285028701e-09
9.710018894e-09
1.008117051e-08
1.033766246e-08
1.04424417e-08
1.038401957e-08
1.017403616e-08
1.005635549e-08
1.021943932e-08
1.038211155e-08
1.054321942e-08
1.070149479e-08
1.085560627e-08
1.10042239e-08
1.114611731e-08
1.128013635e-08
1.140527049e-08
1.152066488e-08
1.162553115e-08
1.171954674e-08
1.1802898e-08
1.235533148e-08
1.50216403e-08
5.484458141e-08
1.814025036e-07
3.867479838e-07
6.785146349e-09
7.931764775e-09
8.80529258e-09
9.396136859e-09
9.709809043e-09
9.770836554e-09
9.625019971e-09
9.338529301e-09
8.992515461e-09
8.672899876e-09
8.456580075e-09
8.409899423e-09
8.59264504e-09
8.78692005e-09
9.166210797e-09
9.579806967e-09
9.95266396e-09
1.022129634e-08
1.034477934e-08
1.030761395e-08
1.011822201e-08
1.005589501e-08
1.021896241e-08
1.038161556e-08
1.054270918e-08
1.070097791e-08
1.085509215e-08
1.100372441e-08
1.114563854e-08
1.127968484e-08
1.140484893e-08
1.152027101e-08
1.162518076e-08
1.171925482e-08
1.180266062e-08
1.246121959e-08
1.517716202e-08
5.913499309e-08
1.883491869e-07
3.981833271e-07
6.781913322e-09
7.941493504e-09
8.831640179e-09
9.441538845e-09
9.774679573e-09
9.852793959e-09
9.718355377e-09
9.434213273e-09
9.078994475e-09
8.737765323e-09
8.488880343e-09
8.400380156e-09
8.58501586e-09
8.761236011e-09
9.055206878e-09
9.455165543e-09
9.82731982e-09
1.010598213e-08
1.024661504e-08
1.022980017e-08
1.006065842e-08
1.005543368e-08
1.021848727e-08
1.038112188e-08
1.054220104e-08
1.070046277e-08
1.085457959e-08
1.100322581e-08
1.114516048e-08
1.127923365e-08
1.140442741e-08
1.151987808e-08
1.162483128e-08
1.171896301e-08
1.180242401e-08
1.256934498e-08
1.533588812e-08
6.352640814e-08
1.954589173e-07
4.098862456e-07
6.77891323e-09
7.951043816e-09
8.857266023e-09
9.485667111e-09
9.837893333e-09
9.9330893e-09
9.810596116e-09
9.530054992e-09
9.167526484e-09
8.806982292e-09
8.527821045e-09
8.390881091e-09
8.577325075e-09
8.755346392e-09
8.9519256e-09
9.336217301e-09
9.705397132e-09
9.992034062e-09
1.014823351e-08
1.01507965e-08
1.000148681e-08
1.005497076e-08
1.021801355e-08
1.038063039e-08
1.054169497e-08
1.069994938e-08
1.085406856e-08
1.100272813e-08
1.114468311e-08
1.127878279e-08
1.1404006e-08
1.151948604e-08
1.162448265e-08
1.171867138e-08
1.180218823e-08
1.267975295e-08
1.549788306e-08
6.802111679e-08
2.027354112e-07
4.21862836e-07
6.776120715e-09
7.960408003e-09
8.882187329e-09
9.52855665e-09
9.899476782e-09
1.001169595e-08
9.901607063e-09
9.62576047e-09
9.257634727e-09
8.879913868e-09
8.572685952e-09
8.399624919e-09
8.56958693e-09
8.749356999e-09
8.921568674e-09
9.223038128e-09
9.58711478e-09
9.879736589e-09
1.004990258e-08
1.007081683e-08
9.940851005e-09
1.005450545e-08
1.021754086e-08
1.038014095e-08
1.054119095e-08
1.069943797e-08
1.085355905e-08
1.10022314e-08
1.114420643e-08
1.127833226e-08
1.140358472e-08
1.151909484e-08
1.162413484e-08
1.171837999e-08
1.180195334e-08
1.279248957e-08
1.566321212e-08
7.262146163e-08
2.101824658e-07
4.341193259e-07
6.773513814e-09
7.969581184e-09
8.906423127e-09
9.570244687e-09
9.959463078e-09
1.008860408e-08
9.991285607e-09
9.721086864e-09
9.348909344e-09
8.955993765e-09
8.622800029e-09
8.415532379e-09
8.56181428e-09
8.743279492e-09
8.917077747e-09
9.115666754e-09
9.47266297e-09
9.769332927e-09
9.951874885e-09
9.990069597e-09
9.89142613e-09
1.005403697e-08
1.021706878e-08
1.037965341e-08
1.054068895e-08
1.069892825e-08
1.085305103e-08
1.100173562e-08
1.114373042e-08
1.127788205e-08
1.140316363e-08
1.151870444e-08
1.162378782e-08
1.171808889e-08
1.18017194e-08
1.290760173e-08
1.583194145e-08
7.732983803e-08
2.178039607e-07
4.46662077e-07
6.771073416e-09
7.978560711e-09
8.929993593e-09
9.610769739e-09
1.001789013e-08
1.016381694e-08
1.007955566e-08
9.815834295e-09
9.440998328e-09
9.034721087e-09
8.677555102e-09
8.437844947e-09
8.554019066e-09
8.737124972e-09
8.912481618e-09
9.081419608e-09
9.3621953e-09
9.661039156e-09
9.854386457e-09
9.908756501e-09
9.890911035e-09
1.00535645e-08
1.02165969e-08
1.037916755e-08
1.054018891e-08
1.06984203e-08
1.08525445e-08
1.100124083e-08
1.114325508e-08
1.127743219e-08
1.140274277e-08
1.151831481e-08
1.162344155e-08
1.171779812e-08
1.180148647e-08
1.302513714e-08
1.600413813e-08
8.214869505e-08
2.256038596e-07
4.594975885e-07
6.768782845e-09
7.987345683e-09
8.952919553e-09
9.650170894e-09
1.007479912e-08
1.023734796e-08
1.01663628e-08
9.909839115e-09
9.533599993e-09
9.115654263e-09
8.736403076e-09
8.465974752e-09
8.546212208e-09
8.730903783e-09
8.907788551e-09
9.078071086e-09
9.255827237e-09
9.555053178e-09
9.757656641e-09
9.8270709e-09
9.890382216e-09
1.005308723e-08
1.021612474e-08
1.03786832e-08
1.053969075e-08
1.069791413e-08
1.085203942e-08
1.100074702e-08
1.114278041e-08
1.127698267e-08
1.140232214e-08
1.15179259e-08
1.162309602e-08
1.171750775e-08
1.18012546e-08
1.314514442e-08
1.617987027e-08
8.708053614e-08
2.335862121e-07
4.726325003e-07
6.766627486e-09
7.995936579e-09
8.975222122e-09
9.688487267e-09
1.013023333e-08
1.030921838e-08
1.025167025e-08
1.000296827e-08
9.626456463e-09
9.198405411e-09
8.798852718e-09
8.49936574e-09
8.538399451e-09
8.724625196e-09
8.903006486e-09
9.074623964e-09
9.241131758e-09
9.451550182e-09
9.661888348e-09
9.745197991e-09
9.889838512e-09
1.005260434e-08
1.021565184e-08
1.037820012e-08
1.05391944e-08
1.069740969e-08
1.08515358e-08
1.10002542e-08
1.114230641e-08
1.127653351e-08
1.14019018e-08
1.151753768e-08
1.162275119e-08
1.17172178e-08
1.180102385e-08
1.326767309e-08
1.635920711e-08
9.212792015e-08
2.417551557e-07
4.860735967e-07
6.764594494e-09
8.004334944e-09
8.996922418e-09
9.725757588e-09
1.018423727e-08
1.037945542e-08
1.033545568e-08
1.00951145e-08
9.719347812e-09
9.282634903e-09
8.864473493e-09
8.537610848e-09
8.530594888e-09
8.718298587e-09
8.898143e-09
9.071083499e-09
9.238684299e-09
9.402777729e-09
9.567267947e-09
9.727005521e-09
9.889278792e-09
1.005211502e-08
1.021517772e-08
1.037771809e-08
1.053869977e-08
1.069690695e-08
1.085103362e-08
1.099976239e-08
1.114183307e-08
1.127608471e-08
1.140148174e-08
1.151715013e-08
1.162240705e-08
1.171692834e-08
1.180079428e-08
1.339277374e-08
1.65422193e-08
9.729346285e-08
2.501149177e-07
4.998278095e-07
6.762672539e-09
8.012543155e-09
9.018041348e-09
9.762019875e-09
1.023685605e-08
1.044809073e-08
1.041770839e-08
1.018619218e-08
9.812086432e-09
9.368042861e-09
8.93286759e-09
8.580231851e-09
8.522803818e-09
8.711932359e-09
8.893205638e-09
9.067454936e-09
9.236151926e-09
9.401081787e-09
9.563982376e-09
9.726240624e-09
9.88870199e-09
1.005161848e-08
1.021470189e-08
1.037723685e-08
1.053820676e-08
1.06964059e-08
1.085053286e-08
1.099927158e-08
1.114136039e-08
1.127563627e-08
1.140106198e-08
1.151676322e-08
1.162206359e-08
1.171663938e-08
1.180056594e-08
1.352049808e-08
1.672897932e-08
1.025798388e-07
2.586698175e-07
5.139022216e-07
6.760851604e-09
8.020564228e-09
9.038599458e-09
9.797311107e-09
1.028813494e-08
1.051515919e-08
1.049842713e-08
1.027613388e-08
9.904512482e-09
9.454364571e-09
9.003674248e-09
8.626801121e-09
8.515033099e-09
8.705534375e-09
8.888201348e-09
9.063743441e-09
9.233537573e-09
9.399316579e-09
9.562812149e-09
9.72544288e-09
9.888107096e-09
1.005111391e-08
1.021422383e-08
1.037675615e-08
1.053771524e-08
1.069590647e-08
1.085003349e-08
1.099878177e-08
1.114088838e-08
1.127518821e-08
1.140064255e-08
1.151637693e-08
1.162172078e-08
1.171635098e-08
1.18003389e-08
1.365089911e-08
1.691956236e-08
1.079897848e-07
2.674242691e-07
5.283040715e-07
6.759122806e-09
8.028401678e-09
9.058616896e-09
9.83166752e-09
1.033811828e-08
1.058069806e-08
1.057761828e-08
1.036488742e-08
9.996490148e-09
9.541366863e-09
9.076568546e-09
8.676931222e-09
8.50728893e-09
8.699111966e-09
8.883136823e-09
9.059954084e-09
9.230844254e-09
9.397483245e-09
9.561590696e-09
9.72461146e-09
9.887493157e-09
1.005060054e-08
1.021374304e-08
1.037627569e-08
1.053722511e-08
1.069540862e-08
1.084953551e-08
1.099829298e-08
1.114041703e-08
1.127474054e-08
1.140022344e-08
1.151599124e-08
1.162137862e-08
1.171606318e-08
1.18001132e-08
1.378403124e-08
1.711404806e-08
1.135261037e-07
2.763827848e-07
5.43040757e-07
6.757478244e-09
8.036059382e-09
9.078113292e-09
9.865124213e-09
1.038684975e-08
1.064474607e-08
1.065529428e-08
1.045241351e-08
1.008790451e-08
9.628844834e-09
9.15125857e-09
8.730267745e-09
8.499576767e-09
8.692672013e-09
8.878018324e-09
9.056091817e-09
9.228075045e-09
9.395583068e-09
9.560317991e-09
9.723745646e-09
9.886859278e-09
1.005007761e-08
1.021325901e-08
1.03757952e-08
1.053673622e-08
1.069491231e-08
1.084903889e-08
1.099780518e-08
1.113994634e-08
1.127429327e-08
1.139980467e-08
1.151560612e-08
1.162103709e-08
1.1715776e-08
1.179988892e-08
1.391994994e-08
1.731252386e-08
1.191916722e-07
2.855499789e-07
5.581198392e-07
6.755910876e-09
8.04354148e-09
9.097107665e-09
9.897714993e-09
1.043437221e-08
1.070734286e-08
1.073147245e-08
1.053868375e-08
1.017865882e-08
9.716618841e-09
9.227482812e-09
8.786487846e-09
8.491901152e-09
8.686217595e-09
8.872851487e-09
9.052161415e-09
9.225233046e-09
9.393617455e-09
9.558994149e-09
9.722844827e-09
9.886204624e-09
1.004954439e-08
1.021277122e-08
1.037531438e-08
1.053624842e-08
1.069441745e-08
1.084854361e-08
1.099731838e-08
1.11394763e-08
1.12738464e-08
1.139938624e-08
1.151522157e-08
1.162069618e-08
1.171548948e-08
1.179966611e-08
1.405871026e-08
1.887645498e-08
1.249894512e-07
2.949305735e-07
5.735490465e-07
6.754414403e-09
8.050852281e-09
9.115618403e-09
9.929472413e-09
1.048072744e-08
1.076852849e-08
1.080617393e-08
1.062367888e-08
1.02686721e-08
9.804531651e-09
9.305007688e-09
8.845305003e-09
8.490773837e-09
8.679758555e-09
8.867642316e-09
9.048167566e-09
9.222321378e-09
9.391587917e-09
9.557619414e-09
9.721908496e-09
9.885528422e-09
1.004900014e-08
1.021227916e-08
1.037483291e-08
1.053576157e-08
1.069392399e-08
1.084804963e-08
1.099683257e-08
1.113900691e-08
1.127339994e-08
1.139896816e-08
1.151483755e-08
1.162035589e-08
1.171520365e-08
1.180463322e-08
1.420036791e-08
2.259804871e-08
1.309224965e-07
3.045294023e-07
5.893362789e-07
6.752983183e-09
8.057996203e-09
9.133663243e-09
9.960427789e-09
1.052595603e-08
1.082834312e-08
1.087942287e-08
1.070738732e-08
1.035787694e-08
9.892445533e-09
9.3836227e-09
8.90644999e-09
8.527490037e-09
8.673298125e-09
8.86239616e-09
9.044114722e-09
9.219343153e-09
9.389496052e-09
9.556194152e-09
9.720936247e-09
9.884829962e-09
1.00484442e-08
1.021178231e-08
1.03743505e-08
1.05352755e-08
1.069343186e-08
1.084755693e-08
1.099634775e-08
1.113853818e-08
1.12729539e-08
1.139855043e-08
1.151445406e-08
1.162001621e-08
1.171491856e-08
1.190470826e-08
1.43449818e-08
2.640771111e-08
1.369939424e-07
3.143514111e-07
6.054896101e-07
6.75161214e-09
8.064977717e-09
9.151259273e-09
9.990611276e-09
1.057009717e-08
1.088682664e-08
1.095124572e-08
1.07898039e-08
1.044621768e-08
9.980239846e-09
9.463138091e-09
8.969673152e-09
8.567433993e-09
8.666841033e-09
8.85711803e-09
9.040007349e-09
9.216301486e-09
9.38734353e-09
9.554718843e-09
9.719927771e-09
9.884108593e-09
1.004787589e-08
1.021128016e-08
1.037386681e-08
1.053479005e-08
1.069294097e-08
1.084706548e-08
1.09958639e-08
1.113807009e-08
1.127250827e-08
1.139813307e-08
1.151407109e-08
1.161967714e-08
1.171463422e-08
1.200691166e-08
1.449261141e-08
3.030732883e-08
1.432069732e-07
3.244016573e-07
6.220172915e-07
6.750296705e-09
8.071801299e-09
9.168422871e-09
1.002005158e-08
1.061318897e-08
1.094401856e-08
1.102167066e-08
1.087092882e-08
1.053364877e-08
1.006780906e-08
9.543383018e-09
9.034745909e-09
8.610342338e-09
8.660391607e-09
8.851812706e-09
9.035849547e-09
9.213199451e-09
9.3851321e-09
9.553194049e-09
9.718882848e-09
9.88336373e-09
1.004729458e-08
1.021077223e-08
1.037338153e-08
1.053430503e-08
1.069245124e-08
1.084657524e-08
1.0995381e-08
1.113760267e-08
1.127206306e-08
1.139771606e-08
1.151368861e-08
1.161933866e-08
1.171435068e-08
1.211128571e-08
1.464331663e-08
3.429884579e-08
1.495648291e-07
3.346853089e-07
6.38927756e-07
6.749032752e-09
8.078471401e-09
9.185169751e-09
1.00487762e-08
1.065526822e-08
1.099995773e-08
1.109072713e-08
1.095076674e-08
1.062013344e-08
1.015506107e-08
9.624203948e-09
9.101459201e-09
8.655970593e-09
8.653953781e-09
8.846484746e-09
9.031645362e-09
9.210040066e-09
9.382863554e-09
9.551620418e-09
9.717801344e-09
9.882594844e-09
1.004669968e-08
1.0210258e-08
1.037289433e-08
1.053382025e-08
1.069196257e-08
1.084608617e-08
1.099489902e-08
1.11371359e-08
1.127161828e-08
1.139729941e-08
1.151330663e-08
1.161900078e-08
1.171406794e-08
1.221787348e-08
1.479715785e-08
3.838426214e-08
1.560708114e-07
3.45207646e-07
6.56229621e-07
6.747816548e-09
8.084992433e-09
9.201515002e-09
1.00768115e-08
1.06963703e-08
1.105468224e-08
1.115844539e-08
1.102932603e-08
1.07056425e-08
1.024191574e-08
9.705463127e-09
9.169622029e-09
8.70409143e-09
8.647531043e-09
8.841137638e-09
9.027398626e-09
9.206826295e-09
9.380539722e-09
9.549998674e-09
9.716683205e-09
9.881801469e-09
1.004609061e-08
1.020973701e-08
1.037240488e-08
1.053333554e-08
1.069147488e-08
1.084559821e-08
1.099441795e-08
1.11366698e-08
1.127117392e-08
1.139688313e-08
1.151292512e-08
1.161866349e-08
1.171378605e-08