/*--------------------------------*- C++ -*----------------------------------*\
| =========                 |                                                 |
| \\      /  F ield         | OpenFOAM: The Open Source CFD Toolbox           |
|  \\    /   O peration     | Version:  v2006                                 |
|   \\  /    A nd           | Website:  www.openfoam.com                      |
|    \\/     M anipulation  |                                                 |
\*---------------------------------------------------------------------------*/
FoamFile
{
    version     2.0;
    format      ascii;
    class       volScalarField;
    location    "0.09";
    object      N2;
}
// * * * * * * * * * * * * * * * * * * * * * * * * * * * * * * * * * * * * * //

dimensions      [0 0 0 0 0 0 0];


internalField   nonuniform List<scalar> 
168000
(
0.7027613506
0.7027322117
0.7027101956
0.7026904317
0.7026713662
0.7026523544
0.7026332007
0.7026137114
0.7025936017
0.7025728536
0.7025514327
0.7025292402
0.7025062389
0.7024824289
0.7024579006
0.7024325535
0.7024064321
0.702379826
0.7023523588
0.7023247427
0.7022964504
0.7022681582
0.7022393289
0.7022107607
0.7021822159
0.7021546091
0.70212704
0.702101461
0.7020762695
0.7020528682
0.7020311769
0.7020106798
0.7019924674
0.7019763345
0.7019618317
0.701949095
0.7019383631
0.701928453
0.701915148
0.7018916186
0.7028007564
0.7027610364
0.7027301102
0.702703874
0.7026802443
0.7026580897
0.7026367674
0.7026158132
0.7025948168
0.7025735355
0.7025517966
0.7025294404
0.7025063654
0.7024825347
0.7024579767
0.7024326302
0.7024065385
0.7023798836
0.7023524867
0.7023248066
0.7022965668
0.7022682362
0.702239443
0.702210837
0.7021823415
0.7021546568
0.7021272002
0.7021015027
0.7020763778
0.7020529571
0.7020312246
0.7020107711
0.701992539
0.7019763763
0.7019618723
0.7019491405
0.7019383556
0.7019284033
0.7019145921
0.701890667
0.7028261292
0.7027838952
0.7027481866
0.7027172763
0.7026897514
0.7026645824
0.7026410193
0.7026184667
0.7025964102
0.7025744557
0.7025523055
0.7025297198
0.7025065308
0.7024826524
0.7024580622
0.7024327117
0.7024066357
0.7023799551
0.7023526002
0.7023248819
0.7022966748
0.7022683202
0.702239551
0.7022109195
0.702182458
0.7021547173
0.7021273454
0.7021015556
0.7020764814
0.7020530447
0.7020312767
0.7020108592
0.7019926099
0.7019764192
0.7019619131
0.701949185
0.701938347
0.701928352
0.7019140219
0.7018896931
0.7028441731
0.7028019288
0.7027639239
0.7027299279
0.7026993418
0.7026715036
0.7026457822
0.7026215864
0.7025983607
0.7025756208
0.7025529706
0.70253009
0.7025067435
0.7024827895
0.7024581587
0.7024327979
0.7024067285
0.7023800338
0.7023527048
0.7023249637
0.7022967773
0.702268408
0.7022396549
0.7022110062
0.7021825681
0.7021547872
0.702127479
0.702101617
0.7020765812
0.702053131
0.7020313326
0.7020109448
0.7019926802
0.7019764633
0.7019619541
0.7019492287
0.7019383372
0.7019282992
0.7019134371
0.7018886962
0.7028580523
0.7028164574
0.702777467
0.7027415367
0.7027086637
0.7026785832
0.7026508851
0.7026250783
0.7026006312
0.7025770252
0.702553798
0.7025305601
0.7025070113
0.7024829527
0.7024582685
0.7024328895
0.7024068197
0.7023801168
0.7023528039
0.7023250496
0.7022968764
0.702268498
0.7022397558
0.7022110958
0.7021826735
0.702154864
0.7021276037
0.7021016851
0.702076678
0.7020532163
0.7020313916
0.7020110281
0.7019927498
0.7019765084
0.7019619954
0.7019492717
0.7019383262
0.7019282448
0.7019128375
0.7018876755
0.7028692537
0.7028284458
0.7027891414
0.7027520483
0.7027175222
0.7026856227
0.7026561787
0.7026288487
0.702603176
0.7025786538
0.7025547876
0.7025311359
0.7025073409
0.7024831478
0.7024583946
0.7024329879
0.7024069113
0.7023802026
0.7023528996
0.7023251377
0.7022969733
0.7022685895
0.7022398547
0.7022111871
0.7021827758
0.7021549459
0.7021277214
0.7021017582
0.7020767725
0.7020533007
0.7020314532
0.7020111095
0.7019928187
0.7019765543
0.7019620369
0.7019493138
0.7019383139
0.7019281886
0.7019122227
0.7018866304
0.7028785724
0.7028385469
0.7027992752
0.7027615216
0.702725829
0.7026924889
0.7026615424
0.7026328115
0.7026059456
0.7025804854
0.7025559348
0.7025318205
0.7025077377
0.7024833798
0.7024585398
0.7024330948
0.7024070051
0.7023802905
0.7023529932
0.7023252271
0.7022970687
0.7022686819
0.7022399519
0.7022112796
0.7021828757
0.7021550316
0.7021278338
0.7021018354
0.7020768652
0.7020533844
0.7020315171
0.7020111894
0.701992887
0.701976601
0.7019620786
0.7019493553
0.7019383003
0.7019281307
0.7019115926
0.7018855601
0.7028864926
0.7028472057
0.7028081473
0.7027700573
0.7027335622
0.7026991003
0.7026668846
0.7026368923
0.7026088915
0.7025824948
0.7025572308
0.702532614
0.7025082053
0.7024836532
0.7024587071
0.702433212
0.7024071024
0.7023803803
0.7023530857
0.7023253173
0.7022971631
0.7022687747
0.702240048
0.7022113728
0.702182974
0.7021551199
0.7021279419
0.7021019155
0.7020769565
0.7020534673
0.7020315827
0.7020112678
0.7019929548
0.7019766484
0.7019621204
0.7019493961
0.7019382853
0.7019280709
0.7019109467
0.7018844638
0.7028933364
0.7028547344
0.7028159826
0.7027777664
0.7027407342
0.702705412
0.7026721395
0.702641029
0.7026119683
0.7025846556
0.7025586638
0.702533514
0.702508746
0.7024839713
0.7024588995
0.7024333413
0.7024072046
0.7023804723
0.7023531777
0.702325408
0.7022972567
0.7022688677
0.7022401431
0.7022114663
0.7021830711
0.7021552101
0.7021280469
0.7021019979
0.7020770466
0.7020535497
0.70203165
0.7020113451
0.701993022
0.7019766964
0.7019621624
0.7019494362
0.7019382688
0.7019280093
0.7019102847
0.7018833408
0.7028993301
0.7028613593
0.7028229597
0.7027847537
0.702747379
0.7027114068
0.7026772624
0.7026451723
0.7026151355
0.7025869413
0.7025602204
0.7025345162
0.7025093605
0.702484337
0.7024591192
0.7024334847
0.7024073129
0.7023805668
0.7023532699
0.7023254989
0.7022973498
0.7022689608
0.7022402373
0.7022115599
0.7021831673
0.7021553017
0.7021281492
0.7021020821
0.7020771357
0.7020536317
0.7020317185
0.7020114214
0.7019930887
0.7019767449
0.7019622045
0.7019494758
0.7019382509
0.7019279457
0.7019096063
0.7018821905
0.7029046383
0.7028672484
0.7028292198
0.7027911128
0.7027535372
0.7027170796
0.7026822237
0.7026492841
0.7026183583
0.7025893266
0.702561886
0.7025356145
0.7025100482
0.7024847519
0.7024593687
0.7024336439
0.7024074286
0.7023806644
0.7023533626
0.7023255901
0.7022974425
0.7022690538
0.7022403307
0.7022116535
0.7021832628
0.7021553941
0.7021282496
0.7021021676
0.7020772242
0.7020537132
0.702031788
0.7020114967
0.7019931549
0.7019767939
0.7019622467
0.7019495147
0.7019382316
0.7019278801
0.7019089112
0.701881012
0.7029093844
0.7028725295
0.7028348755
0.702796925
0.7027592519
0.7027224401
0.7026870087
0.702653336
0.7026216074
0.7025917883
0.7025636459
0.7025368018
0.7025108072
0.702485217
0.7024596498
0.7024338208
0.7024075528
0.7023807657
0.7023534562
0.7023256816
0.702297535
0.7022691467
0.7022404235
0.7022117469
0.7021833579
0.7021554872
0.7021283483
0.7021022541
0.702077312
0.7020537944
0.7020318585
0.7020115714
0.7019932206
0.7019768433
0.701962289
0.7019495531
0.7019382107
0.7019278124
0.7019081988
0.7018798047
0.7029136628
0.7028773018
0.7028400173
0.7028022599
0.7027645647
0.7027275015
0.7026916066
0.7026573069
0.7026248587
0.7025943056
0.7025654856
0.7025380705
0.7025116349
0.7024857327
0.7024599638
0.7024340168
0.7024076869
0.7023808713
0.7023535514
0.7023257736
0.7022976273
0.7022692395
0.7022405155
0.7022118402
0.7021834525
0.7021555806
0.7021284457
0.7021023413
0.7020773993
0.7020538754
0.7020319298
0.7020116453
0.701993286
0.7019768931
0.7019623313
0.701949591
0.7019381883
0.7019277425
0.7019074689
0.7018785679
0.7029175472
0.7028816432
0.7028447183
0.7028071766
0.7027695145
0.702732281
0.7026960171
0.7026611841
0.7026280931
0.7025968602
0.7025673915
0.7025394123
0.7025125278
0.7024862985
0.7024603118
0.7024342333
0.7024078319
0.7023809821
0.7023536484
0.7023258662
0.7022977196
0.7022693322
0.7022406069
0.702211933
0.7021835467
0.7021556743
0.7021285421
0.7021024291
0.7020774862
0.7020539561
0.7020320016
0.7020117186
0.7019933509
0.7019769431
0.7019623738
0.7019496283
0.7019381643
0.7019276705
0.7019067209
0.7018773007
0.7029210961
0.7028856162
0.7028490383
0.7028117255
0.7027741368
0.7027367966
0.7027002421
0.7026649559
0.7026312949
0.7025994363
0.7025693507
0.7025408189
0.7025134819
0.7024869135
0.7024606945
0.7024344714
0.7024079889
0.7023810986
0.7023537477
0.7023259595
0.7022978119
0.7022694248
0.7022406976
0.7022120256
0.7021836406
0.702155768
0.7021286376
0.7021025173
0.7020775727
0.7020540366
0.7020320739
0.7020117914
0.7019934155
0.7019769934
0.7019624162
0.701949665
0.7019381386
0.7019275961
0.7019059546
0.7018760024
0.7029243566
0.7028892714
0.7028530268
0.7028159495
0.7027784635
0.7027410668
0.7027042868
0.702668618
0.7026344523
0.7026020203
0.7025713517
0.7025422823
0.7025144928
0.7024875761
0.7024611121
0.702434732
0.7024081587
0.7023812217
0.7023538498
0.7023260538
0.7022979044
0.7022695174
0.7022407877
0.7022121178
0.7021837342
0.7021558617
0.7021287323
0.7021026057
0.7020776589
0.702054117
0.7020321467
0.7020118638
0.7019934797
0.701977044
0.7019624587
0.7019497013
0.7019381114
0.7019275055
0.7019051694
0.7018746723
0.7029273669
0.7028926502
0.7028567248
0.7028198852
0.702782523
0.7027451093
0.7027081578
0.7026721679
0.7026375582
0.7026046012
0.7025733838
0.7025437946
0.7025155561
0.7024882846
0.7024615645
0.7024350159
0.7024083425
0.702381352
0.7023539552
0.7023261494
0.7022979972
0.7022696099
0.7022408771
0.7022122096
0.7021838275
0.7021559552
0.7021288265
0.7021026943
0.7020777448
0.7020541972
0.7020322198
0.7020119357
0.7019935436
0.7019770947
0.7019625012
0.7019497371
0.7019380824
0.7019270273
0.7019043649
0.7018733096
0.7029301586
0.7028957868
0.7028601666
0.702823564
0.7027863406
0.7027489412
0.7027118629
0.7026756046
0.7026406035
0.7026071694
0.7025754377
0.7025453484
0.7025166669
0.7024890368
0.7024620513
0.7024353237
0.7024085407
0.7023814901
0.7023540643
0.7023262463
0.7022980904
0.7022697024
0.7022409658
0.702212301
0.7021839205
0.7021560487
0.7021289201
0.702102783
0.7020778306
0.7020542773
0.7020322932
0.7020120073
0.7019936072
0.7019771456
0.7019625437
0.7019497724
0.7019380518
0.7019265371
0.7019035407
0.7018719134
0.702932758
0.7028987099
0.7028633813
0.7028270129
0.7027899388
0.7027525783
0.7027154104
0.7026789294
0.7026435849
0.7026097171
0.7025775052
0.7025469368
0.7025178206
0.7024898303
0.7024625718
0.7024356555
0.7024087543
0.7023816368
0.7023541775
0.7023263451
0.7022981841
0.7022697928
0.7022410539
0.7022123919
0.7021840132
0.7021561419
0.7021290133
0.7021028717
0.7020779161
0.7020543574
0.7020323668
0.7020120785
0.7019936705
0.7019771966
0.7019625862
0.7019498072
0.7019380194
0.7019260347
0.7019026962
0.701870483
0.7029351871
0.7029014436
0.7028663936
0.7028302552
0.7027933375
0.7027560351
0.7027188085
0.7026821442
0.7026464995
0.7026122393
0.7025795793
0.7025485534
0.7025190127
0.7024906625
0.7024631252
0.7024360116
0.7024089836
0.7023817926
0.7023542953
0.7023264458
0.7022982784
0.702269876
0.7022411414
0.7022124824
0.7021841055
0.7021562349
0.702129106
0.7021029604
0.7020780014
0.7020544373
0.7020324406
0.7020121494
0.7019937336
0.7019772478
0.7019626286
0.7019498415
0.7019379853
0.7019255197
0.7019018309
0.7018690174
0.7029374645
0.7029040083
0.7028692246
0.7028333112
0.7027965542
0.7027593253
0.7027220657
0.7026852521
0.7026493453
0.7026147295
0.7025816534
0.7025501924
0.7025202388
0.7024915309
0.7024637103
0.7024363919
0.7024092292
0.7023819581
0.7023544181
0.7023265487
0.7022983736
0.7022699587
0.7022412283
0.7022125724
0.7021841975
0.7021563277
0.7021291984
0.702103049
0.7020780865
0.7020545172
0.7020325145
0.70201222
0.7019937965
0.701977299
0.701962671
0.7019498754
0.7019379493
0.7019249918
0.7019009444
0.701867516
0.7029396063
0.7029064217
0.7028718924
0.7028361986
0.7027996048
0.7027624611
0.7027251899
0.7026882563
0.7026521216
0.7026171845
0.7025837225
0.7025518485
0.7025214945
0.7024924327
0.7024643259
0.7024367962
0.7024094912
0.7023821336
0.7023545464
0.7023266543
0.7022984698
0.7022700408
0.7022413146
0.702212662
0.7021842891
0.7021564201
0.7021292904
0.7021031376
0.7020781715
0.7020545969
0.7020325885
0.7020122904
0.7019938591
0.7019773503
0.7019627133
0.701949879
0.7019379116
0.7019244508
0.7019000362
0.7018659777
0.702941626
0.7029086987
0.702874413
0.7028389326
0.7028025031
0.7027654539
0.7027281889
0.7026911607
0.7026548284
0.7026196016
0.7025857817
0.7025535168
0.702522776
0.7024933652
0.7024649707
0.7024372241
0.7024097701
0.7023823197
0.7023546805
0.7023267626
0.7022985671
0.7022701225
0.7022414003
0.7022127511
0.7021843804
0.7021565124
0.7021293821
0.7021032261
0.7020782563
0.7020546767
0.7020326626
0.7020123605
0.7019939215
0.7019774017
0.7019627555
0.7019498741
0.701937872
0.7019238963
0.7018991056
0.7018644017
0.7029435355
0.7029108524
0.7028767999
0.702841527
0.7028052616
0.702768314
0.70273107
0.7026939692
0.7026574662
0.7026219785
0.7025878285
0.7025551933
0.7025240795
0.7024943259
0.7024656432
0.7024376752
0.7024100659
0.7023825167
0.7023548208
0.702326874
0.7022986658
0.7022702039
0.7022414855
0.7022128397
0.7021844713
0.7021566043
0.7021294735
0.7021033144
0.702078341
0.7020547563
0.7020327368
0.7020124304
0.7019939837
0.701977453
0.7019627976
0.7019498679
0.7019378305
0.701923328
0.7018981523
0.7018627872
0.7029453449
0.7029128942
0.7028790651
0.7028439937
0.7028078914
0.7027710507
0.7027338401
0.7026966856
0.702660036
0.7026243136
0.702589858
0.702556874
0.7025254015
0.7024953121
0.702466342
0.7024381488
0.7024103786
0.7023827249
0.7023549677
0.7023269889
0.7022987659
0.702270285
0.7022415703
0.7022129279
0.7021845619
0.7021566959
0.7021295646
0.7021034027
0.7020784255
0.7020548359
0.702032811
0.7020125001
0.7019940457
0.7019775044
0.7019628397
0.7019498604
0.701937787
0.7019227455
0.7018971756
0.701861133
0.7029470634
0.7029148339
0.7028812192
0.7028463432
0.7028104025
0.7027736728
0.7027365058
0.702699314
0.7026625391
0.702626606
0.7025918683
0.7025585533
0.7025267275
0.7024963213
0.7024670654
0.7024386444
0.7024107082
0.7023829445
0.7023551215
0.7023271073
0.7022988677
0.7022703661
0.7022416546
0.7022130157
0.7021846521
0.7021567872
0.7021296554
0.7021034908
0.70207851
0.7020549155
0.7020328852
0.7020125696
0.7019941076
0.7019775558
0.7019628816
0.7019498516
0.7019377416
0.7019221486
0.701896175
0.7018594384
0.7029486986
0.7029166804
0.7028832715
0.702848585
0.7028128039
0.7027761879
0.7027390732
0.7027018583
0.702664977
0.702628855
0.7025938572
0.70256023
0.702528057
0.7024973511
0.7024678119
0.7024391611
0.7024110545
0.7023831758
0.7023552824
0.7023272296
0.7022989713
0.7022704471
0.7022417386
0.702213103
0.7021847419
0.7021568782
0.7021297459
0.7021035787
0.7020785943
0.702054995
0.7020329594
0.702012639
0.7019941693
0.7019776072
0.7019629234
0.7019498415
0.7019376942
0.7019215368
0.7018951499
0.7018577023
0.7029502576
0.7029184412
0.7028852302
0.7028507275
0.7028151035
0.7027786034
0.7027415478
0.7027043222
0.7026673514
0.7026310604
0.7025958231
0.7025619059
0.7025294002
0.7024983761
0.70246858
0.7024396982
0.7024114173
0.7023834189
0.7023554508
0.7023273561
0.7022990769
0.7022705284
0.7022418222
0.7022131899
0.7021848314
0.7021569689
0.7021298361
0.7021036665
0.7020786784
0.7020550744
0.7020330336
0.7020127082
0.7019942308
0.7019776586
0.701962965
0.7019498301
0.7019376448
0.7019209099
0.7018940997
0.7018559237
0.7029517465
0.7029201234
0.7028871027
0.7028527782
0.7028173086
0.7027809256
0.7027439351
0.7027067094
0.7026696643
0.7026332223
0.7025977645
0.7025635782
0.7025307542
0.7024994129
0.7024693681
0.7024402548
0.7024117965
0.7023836738
0.7023556268
0.7023274869
0.7022991846
0.7022706099
0.7022419056
0.7022132764
0.7021849205
0.7021570593
0.7021299261
0.7021037541
0.7020787625
0.7020551538
0.7020331078
0.7020127772
0.7019942922
0.70197771
0.7019630065
0.7019498173
0.7019375932
0.7019202675
0.7018930238
0.7018541016
0.7029531707
0.7029217329
0.7028888954
0.7028547438
0.7028194259
0.7027831605
0.70274624
0.7027090235
0.7026719174
0.7026353409
0.7025996803
0.7025652375
0.7025321165
0.7025004674
0.702470149
0.7024408301
0.7024121916
0.7023839406
0.7023558106
0.7023276223
0.7022992947
0.7022706918
0.7022419889
0.7022133626
0.7021850092
0.7021571493
0.7021300158
0.7021038415
0.7020788464
0.7020552331
0.702033182
0.7020128461
0.7019943534
0.7019777613
0.7019630479
0.7019498031
0.7019375396
0.7019196091
0.7018919216
0.7018522349
0.7029545352
0.7029232753
0.7028906144
0.7028566304
0.7028214613
0.7027853138
0.7027484671
0.7027112678
0.7026741126
0.7026374166
0.7026015696
0.7025668861
0.7025334849
0.7025015374
0.7024709396
0.7024414232
0.7024126022
0.7023842193
0.7023560024
0.7023277624
0.7022994024
0.7022707742
0.702242072
0.7022134484
0.7021850976
0.702157239
0.7021301052
0.7021039288
0.7020789302
0.7020553124
0.7020332561
0.7020129148
0.7019944145
0.7019778125
0.7019630891
0.7019497875
0.7019374837
0.7019189344
0.7018907926
0.7018503225
0.7029558443
0.7029247553
0.7028922647
0.7028584435
0.7028234202
0.7027873903
0.7027506206
0.7027134456
0.702676252
0.7026394502
0.702603432
0.7025685228
0.7025348573
0.7025026209
0.7024717488
0.7024420067
0.702413028
0.7023845097
0.7023562024
0.7023279075
0.7022994931
0.7022708574
0.702242155
0.702213534
0.7021851856
0.7021573285
0.7021301944
0.7021040159
0.7020790139
0.7020553916
0.7020333302
0.7020129834
0.7019944755
0.7019778637
0.7019631301
0.7019497705
0.7019374256
0.7019182431
0.7018896359
0.7018483635
0.702957102
0.7029261774
0.7028938513
0.702860188
0.7028253075
0.7027893947
0.7027527046
0.7027155599
0.7026783375
0.7026414422
0.7026052671
0.7025701464
0.7025362317
0.7025037161
0.702472575
0.7024425962
0.7024134686
0.702384812
0.7023564106
0.7023280578
0.7022995862
0.7022709415
0.7022422382
0.7022136192
0.7021852733
0.7021574176
0.7021302833
0.7021041029
0.7020790974
0.7020554707
0.7020334043
0.7020130519
0.7019945363
0.7019779148
0.7019631709
0.7019497521
0.7019373653
0.7019175347
0.701888451
0.7018463565
0.7029583117
0.7029275455
0.7028953784
0.7028618684
0.7028271277
0.7027913312
0.7027547227
0.7027176136
0.7026803709
0.7026433934
0.7026070745
0.7025717559
0.7025376071
0.7025048215
0.7024734169
0.7024432031
0.7024138888
0.7023851258
0.7023566272
0.7023282133
0.7022996819
0.7022710265
0.7022423214
0.7022137043
0.7021853607
0.7021575064
0.702130372
0.7021041896
0.7020791809
0.7020555498
0.7020334783
0.7020131202
0.701994597
0.7019779659
0.7019632115
0.7019497321
0.7019373026
0.7019168089
0.7018872373
0.7018443005
0.7029594767
0.7029288633
0.7028968498
0.7028634889
0.7028288849
0.7027932038
0.7027566785
0.7027196094
0.7026823541
0.7026453048
0.7026088542
0.7025733502
0.7025389812
0.7025059353
0.7024742731
0.7024438264
0.7024143197
0.7023854305
0.7023568521
0.7023283492
0.7022997805
0.7022711126
0.7022424049
0.7022137891
0.7021854478
0.7021575949
0.7021304604
0.7021042762
0.7020792642
0.7020556288
0.7020335522
0.7020131884
0.7019946576
0.7019780168
0.701963252
0.7019497106
0.7019372375
0.7019160651
0.7018859939
0.7018421943
0.7029605999
0.702930134
0.7028982692
0.7028650531
0.702830583
0.702795016
0.7027585751
0.7027215501
0.7026842888
0.7026471772
0.7026106061
0.7025749288
0.7025403528
0.7025070561
0.7024751424
0.7024444652
0.7024147656
0.7023857291
0.7023570499
0.7023284839
0.702299882
0.7022712
0.7022424887
0.7022138739
0.7021855346
0.7021576831
0.7021305486
0.7021043626
0.7020793474
0.7020557077
0.7020336261
0.7020132565
0.7019947181
0.7019780677
0.7019632922
0.7019496876
0.70193717
0.7019153031
0.7018847203
0.7018400367
0.7029616839
0.7029313605
0.7028996398
0.7028665644
0.7028322253
0.7027967712
0.7027604156
0.702723438
0.702686177
0.7026490116
0.7026123305
0.702576491
0.7025417209
0.7025081825
0.7024760234
0.7024451186
0.7024152258
0.7023860399
0.702357256
0.7023286243
0.7022999867
0.7022712889
0.7022425728
0.7022139585
0.7021856211
0.702157771
0.7021306365
0.7021044489
0.7020794305
0.7020557866
0.7020337
0.7020133246
0.7019947784
0.7019781185
0.7019633321
0.701949663
0.7019371
0.7019145223
0.7018834156
0.7018378264
0.7029627312
0.7029325456
0.7029009645
0.7028680261
0.7028338151
0.7027984725
0.7027622027
0.7027252755
0.7026880202
0.7026508089
0.7026140275
0.7025780364
0.7025430843
0.7025093132
0.702476915
0.7024457858
0.7024157
0.7023863627
0.702357471
0.7023287707
0.7023000948
0.7022713792
0.7022426575
0.7022140431
0.7021857074
0.7021578587
0.7021307241
0.7021045349
0.7020795135
0.7020558654
0.7020337738
0.7020133925
0.7019948387
0.7019781691
0.7019633719
0.7019496368
0.7019370275
0.7019137223
0.7018820791
0.7018355622
0.7029637439
0.7029336917
0.7029022461
0.7028694409
0.7028353552
0.7028001228
0.7027639392
0.7027270648
0.70268982
0.70265257
0.7026156973
0.7025795645
0.702544442
0.702510447
0.7024778161
0.7024464657
0.7024161875
0.7023866972
0.7023576951
0.7023289231
0.7023002064
0.7022714713
0.7022427427
0.7022141277
0.7021857935
0.7021579461
0.7021308116
0.7021046208
0.7020795964
0.7020559442
0.7020338475
0.7020134603
0.7019948988
0.7019782197
0.7019634113
0.701949609
0.7019369523
0.7019129027
0.7018807102
0.7018332427
0.7029647241
0.7029348011
0.7029034869
0.7028708115
0.7028368484
0.7028017246
0.7027656273
0.702728808
0.7026915782
0.702654296
0.7026173403
0.7025810753
0.7025457933
0.7025115833
0.7024787258
0.7024471577
0.7024166879
0.7023870432
0.7023579281
0.7023290817
0.7023003217
0.7022715652
0.7022428286
0.7022142123
0.7021858794
0.7021580332
0.7021308988
0.7021047065
0.7020796791
0.7020560228
0.7020339211
0.702013528
0.7019949588
0.7019782701
0.7019634506
0.7019495794
0.701936705
0.7019120631
0.701879308
0.7018308666
0.7029656736
0.7029358759
0.7029046894
0.7028721403
0.7028382972
0.7028032805
0.7027672695
0.702730507
0.7026932961
0.7026559877
0.7026189569
0.7025825684
0.7025471348
0.7025127204
0.7024796429
0.7024478608
0.7024172005
0.7023874006
0.7023581702
0.7023292465
0.7023004407
0.702271661
0.7022429152
0.7022142971
0.7021859651
0.7021581201
0.7021309857
0.702104792
0.7020797618
0.7020561014
0.7020339947
0.7020135956
0.7019950187
0.7019783205
0.7019634875
0.7019495482
0.7019361869
0.7019112028
0.7018778716
0.7018284326
0.7029665941
0.702936918
0.7029058555
0.7028734296
0.702839704
0.7028047927
0.7027688679
0.7027321638
0.7026949753
0.7026576462
0.7026205473
0.7025840436
0.7025484535
0.7025138578
0.7024805665
0.7024485743
0.7024177248
0.7023877688
0.7023584211
0.7023294177
0.7023005637
0.7022717589
0.7022430027
0.702214382
0.7021860506
0.7021582067
0.7021310725
0.7021048774
0.7020798443
0.70205618
0.7020340683
0.7020136631
0.7019950785
0.7019783707
0.7019634872
0.7019495152
0.7019356556
0.7019103214
0.7018764004
0.7018259392
0.7029674873
0.7029379291
0.7029069873
0.7028746814
0.7028410707
0.7028062634
0.7027704244
0.7027337801
0.7026966171
0.7026592723
0.7026221121
0.7025855011
0.7025497623
0.7025149946
0.7024814957
0.7024492975
0.7024182603
0.7023881478
0.7023586808
0.7023295953
0.7023006907
0.7022718589
0.7022430911
0.7022144672
0.7021861361
0.7021582931
0.702131159
0.7021049626
0.7020799267
0.7020562584
0.7020341418
0.7020137305
0.7019951382
0.7019784207
0.7019634858
0.7019494804
0.701935111
0.7019094185
0.7018748934
0.701823385
0.7029683545
0.702938911
0.7029080866
0.7028758978
0.7028423995
0.7028076946
0.702771941
0.7027353576
0.7026982229
0.7026608671
0.7026236517
0.7025869406
0.7025510611
0.70251613
0.7024824297
0.7024500294
0.7024188064
0.7023885371
0.7023589493
0.7023297792
0.7023008218
0.7022719613
0.7022431805
0.7022145526
0.7021862215
0.7021583793
0.7021312453
0.7021050476
0.702080009
0.7020563368
0.7020342152
0.7020137978
0.7019951978
0.7019784706
0.7019634833
0.7019494438
0.7019345526
0.7019084935
0.7018733498
0.7018207685
0.7029691971
0.7029398651
0.702909155
0.7028770803
0.7028436923
0.7028090881
0.7027734195
0.7027368977
0.702699794
0.7026624313
0.7026251665
0.7025883623
0.7025523494
0.7025172634
0.7024833677
0.7024507696
0.7024193626
0.7023889365
0.7023592263
0.7023299696
0.7023009572
0.702272066
0.702243271
0.7022146384
0.7021863068
0.7021584654
0.7021313314
0.7021051324
0.7020800912
0.7020564151
0.7020342885
0.7020138651
0.7019952573
0.7019785204
0.7019634796
0.7019494054
0.7019339802
0.7019075458
0.7018717687
0.7018180883
0.7029700163
0.7029407928
0.702910194
0.7028782309
0.7028449506
0.7028104457
0.7027748614
0.7027384022
0.7027013316
0.7026639658
0.7026266571
0.7025897662
0.7025536269
0.7025183942
0.7024843091
0.7024515173
0.7024199284
0.7023893456
0.7023595118
0.7023301665
0.7023010969
0.7022721732
0.7022433628
0.7022147245
0.7021863922
0.7021585512
0.7021314173
0.7021052171
0.7020801732
0.7020564933
0.7020343618
0.7020139323
0.7019953167
0.70197857
0.7019634747
0.7019493651
0.7019333935
0.701906575
0.7018701492
0.7018153427
0.7029708134
0.7029416954
0.7029112051
0.7028793508
0.7028461763
0.7028117689
0.7027762684
0.7027398722
0.7027028368
0.7026654716
0.7026281238
0.7025911524
0.7025548934
0.7025195217
0.7024852532
0.7024522718
0.7024205033
0.7023897641
0.7023598057
0.7023303698
0.7023012409
0.702272283
0.7022434557
0.7022148112
0.7021864775
0.7021586369
0.7021315031
0.7021053017
0.7020802552
0.7020565715
0.702034435
0.7020139993
0.701995376
0.7019786195
0.7019634686
0.7019493228
0.7019327921
0.7019055805
0.7018684904
0.7018125303
0.7029715893
0.7029425742
0.7029121897
0.7028804418
0.7028473707
0.7028130594
0.702777642
0.7027413093
0.7027043108
0.7026669494
0.7026295673
0.7025925211
0.7025561487
0.7025206455
0.7024861992
0.7024530325
0.7024210867
0.7023901918
0.7023601077
0.7023305795
0.7023013894
0.7022723955
0.7022435501
0.7022148983
0.702186563
0.7021587225
0.7021315886
0.702105386
0.702080337
0.7020566496
0.7020345082
0.7020140663
0.7019954351
0.7019786688
0.7019634613
0.7019492786
0.7019321756
0.7019045618
0.7018667914
0.7018096493
0.7029723451
0.7029434302
0.7029131489
0.7028815049
0.7028485352
0.7028143186
0.7027789835
0.7027427146
0.7027057547
0.7026684001
0.7026309879
0.7025938723
0.7025573926
0.702521765
0.7024871466
0.7024537988
0.7024216782
0.7023906281
0.7023604177
0.7023307956
0.7023015424
0.7022725108
0.7022436459
0.702214986
0.7021866485
0.702158808
0.7021316739
0.7021054703
0.7020804187
0.7020567276
0.7020345813
0.7020141333
0.7019954942
0.701978718
0.7019634527
0.7019492324
0.7019315439
0.7019035182
0.7018650511
0.7018066981
0.7029730817
0.7029442646
0.702914084
0.7028825416
0.7028496713
0.7028155477
0.7027802943
0.7027440895
0.7027071694
0.7026698243
0.7026323861
0.7025952064
0.7025586251
0.70252288
0.7024880949
0.7024545702
0.7024222774
0.7023910729
0.7023607356
0.7023310181
0.7023017
0.7022726289
0.7022437432
0.7022150744
0.7021867341
0.7021588933
0.7021317591
0.7021055544
0.7020805003
0.7020568055
0.7020346543
0.7020142001
0.7019955532
0.701978767
0.7019634428
0.7019491841
0.7019308964
0.7019024492
0.7018632687
0.701803675
0.7029738001
0.7029450782
0.702914996
0.702883553
0.7028507801
0.7028167482
0.7027815755
0.7027454349
0.7027085561
0.702671223
0.7026337625
0.7025965233
0.702559846
0.7025239898
0.7024890435
0.7024553461
0.7024228836
0.7023915258
0.7023610611
0.7023312469
0.7023018621
0.7022727499
0.7022438421
0.7022151634
0.7021868199
0.7021589786
0.7021318442
0.7021056383
0.7020805818
0.7020568834
0.7020347273
0.7020142669
0.701995612
0.7019788158
0.7019634316
0.7019491338
0.7019302328
0.7019013541
0.7018614431
0.7018005783
0.7029745009
0.7029458721
0.702915886
0.7028845402
0.7028518628
0.702817921
0.7027828284
0.702746752
0.7027099155
0.7026725968
0.7026351176
0.7025978235
0.7025610553
0.7025250944
0.702489992
0.702456126
0.7024234965
0.7023919865
0.7023613942
0.702331482
0.7023020288
0.7022728738
0.7022439426
0.7022152531
0.702186906
0.7021590639
0.7021319291
0.7021057221
0.7020806632
0.7020569611
0.7020348002
0.7020143336
0.7019956708
0.7019788644
0.7019634191
0.7019490813
0.7019295528
0.7019002325
0.7018595732
0.7017974061
0.702975185
0.7029466471
0.7029167549
0.7028855042
0.7028529206
0.7028190675
0.702784054
0.7027480419
0.7027112487
0.7026739465
0.7026364517
0.702599107
0.7025622529
0.7025261933
0.70249094
0.7024569094
0.7024241157
0.7023924546
0.7023617345
0.7023317232
0.7023022002
0.7022730008
0.7022440448
0.7022153437
0.7021869922
0.7021591491
0.7021320139
0.7021058058
0.7020807445
0.7020570388
0.7020348731
0.7020144002
0.7019957294
0.7019789129
0.7019634051
0.7019490266
0.701928856
0.7018990835
0.701857658
0.7017941568
0.7029758531
0.7029474039
0.7029176036
0.702886446
0.7028539543
0.7028201886
0.7027852534
0.7027493055
0.7027125565
0.7026752726
0.7026377654
0.7026003741
0.7025634388
0.7025272669
0.7024918869
0.7024576961
0.7024247408
0.7023929299
0.702362082
0.7023319706
0.7023023761
0.7022731309
0.7022441489
0.7022154351
0.7021870788
0.7021592343
0.7021320986
0.7021058893
0.7020808257
0.7020571165
0.7020349458
0.7020144667
0.7019957879
0.7019789611
0.7019633898
0.7019489697
0.7019281419
0.7018979067
0.7018556964
0.7017908283
0.7029765059
0.7029481435
0.7029184329
0.7028873666
0.7028549651
0.7028212853
0.7027864276
0.7027505437
0.7027138397
0.702676576
0.7026390591
0.702601625
0.7025646131
0.7025283334
0.7024928326
0.7024584853
0.7024253713
0.702393412
0.7023624363
0.702332224
0.7023025567
0.7022732641
0.7022442547
0.7022155274
0.7021871656
0.7021593195
0.7021321832
0.7021059727
0.7020809068
0.702057194
0.7020350186
0.7020145332
0.7019958464
0.7019790092
0.701963373
0.7019489104
0.7019274103
0.7018967013
0.7018536873
0.7017874189
0.702977144
0.7029488664
0.7029192437
0.7028882667
0.7028559538
0.7028223586
0.7027875776
0.7027517575
0.7027150991
0.7026778572
0.7026403333
0.70260286
0.7025657757
0.7025293929
0.7024937765
0.7024592768
0.7024260068
0.7023939006
0.7023627974
0.7023324833
0.7023027419
0.7022734005
0.7022443625
0.7022156207
0.7021872529
0.7021594048
0.7021322676
0.702106056
0.7020809878
0.7020572715
0.7020350912
0.7020145996
0.7019959047
0.7019790571
0.7019633547
0.7019488489
0.7019266606
0.7018954667
0.7018516297
0.7017838676
0.7029777679
0.7029495734
0.7029200367
0.7028891473
0.7028569213
0.7028234093
0.7027887041
0.7027529476
0.7027163354
0.7026791168
0.7026415885
0.7026040793
0.7025669267
0.7025304452
0.7024947183
0.7024600701
0.702426647
0.7023943955
0.702363165
0.7023327485
0.7023029318