/*--------------------------------*- C++ -*----------------------------------*\
| =========                 |                                                 |
| \\      /  F ield         | OpenFOAM: The Open Source CFD Toolbox           |
|  \\    /   O peration     | Version:  v2006                                 |
|   \\  /    A nd           | Website:  www.openfoam.com                      |
|    \\/     M anipulation  |                                                 |
\*---------------------------------------------------------------------------*/
FoamFile
{
    version     2.0;
    format      ascii;
    class       volScalarField;
    location    "0.09";
    object      O;
}
// * * * * * * * * * * * * * * * * * * * * * * * * * * * * * * * * * * * * * //

dimensions      [0 0 0 0 0 0 0];


internalField   nonuniform List<scalar> 
168000
(
5.630699246e-20
1.141372459e-19
1.69395622e-19
2.325037834e-19
2.955661628e-19
3.52227343e-19
4.111610773e-19
4.704816389e-19
5.119012005e-19
5.453382091e-19
5.745859029e-19
5.856129381e-19
5.823944234e-19
5.726693535e-19
5.420194758e-19
4.99705308e-19
4.480443308e-19
3.785605749e-19
3.013531838e-19
2.137011315e-19
1.178318914e-19
1.892454795e-20
3.406834811e-22
3.461971708e-22
3.517063591e-22
3.570345013e-22
3.623553774e-22
3.672921501e-22
3.721541484e-22
3.76670631e-22
3.808570784e-22
3.848130329e-22
3.883280457e-22
3.914417117e-22
3.942407768e-22
3.966989767e-22
7.124573552e-21
3.601924125e-19
2.352331522e-14
1.05752752e-13
5.90285626e-20
1.154546147e-19
1.478129853e-19
1.835027595e-19
2.27293291e-19
2.775325476e-19
3.349882566e-19
3.955889597e-19
4.488114224e-19
4.946720316e-19
5.325008805e-19
5.54808984e-19
5.617834848e-19
5.563078024e-19
5.325118649e-19
4.941968567e-19
4.433275926e-19
3.772724023e-19
2.999363951e-19
2.135060207e-19
1.179555237e-19
1.912212538e-20
3.406614667e-22
3.461824557e-22
3.516821249e-22
3.570252976e-22
3.623244468e-22
3.672841027e-22
3.721332316e-22
3.766534634e-22
3.8084787e-22
3.8479542e-22
3.883142306e-22
3.91433658e-22
3.942329459e-22
3.966902011e-22
2.096011197e-20
3.799024888e-19
2.611957689e-14
1.101168708e-13
5.559061933e-20
1.144282189e-19
1.371895346e-19
1.545902032e-19
1.80418755e-19
2.186846316e-19
2.694460321e-19
3.283750435e-19
3.873901939e-19
4.420162861e-19
4.884351612e-19
5.20814092e-19
5.372202741e-19
5.38014599e-19
5.206370861e-19
4.867660919e-19
4.381305072e-19
3.746558404e-19
2.984069306e-19
2.128602233e-19
1.179724095e-19
1.923066384e-20
3.406406149e-22
3.461665313e-22
3.516596371e-22
3.570136291e-22
3.622964235e-22
3.672739044e-22
3.721132485e-22
3.76636562e-22
3.808378054e-22
3.847784056e-22
3.883005438e-22
3.914253638e-22
3.942250676e-22
3.966816e-22
3.497787026e-20
4.000476108e-19
2.87808533e-14
1.14579978e-13
5.314402818e-20
1.136634315e-19
1.331854283e-19
1.392408306e-19
1.500771026e-19
1.747207334e-19
2.155283067e-19
2.694658215e-19
3.296783002e-19
3.896166829e-19
4.432446817e-19
4.844322693e-19
5.096348491e-19
5.175383285e-19
5.065967328e-19
4.775782461e-19
4.32061385e-19
3.711424303e-19
2.965086754e-19
2.118814267e-19
1.178341562e-19
1.926077417e-20
3.406205672e-22
3.461497923e-22
3.516383935e-22
3.570001388e-22
3.622706399e-22
3.672620459e-22
3.720939928e-22
3.766198944e-22
3.808270214e-22
3.847618965e-22
3.882869856e-22
3.914168558e-22
3.942171441e-22
3.966731622e-22
4.920001913e-20
4.206290761e-19
3.150813229e-14
1.191455422e-13
5.186874394e-20
1.139345051e-19
1.333084706e-19
1.328912437e-19
1.321298056e-19
1.436407072e-19
1.729384268e-19
2.192165617e-19
2.770197045e-19
3.390962167e-19
3.979511012e-19
4.465037217e-19
4.797487295e-19
4.949654592e-19
4.905567764e-19
4.667405592e-19
4.249397402e-19
3.667868535e-19
2.941145707e-19
2.105788967e-19
1.174583994e-19
1.9210482e-20
3.406010853e-22
3.461325127e-22
3.516180341e-22
3.569853076e-22
3.622465842e-22
3.672489077e-22
3.720753052e-22
3.766034304e-22
3.808156333e-22
3.84745815e-22
3.882735545e-22
3.91408158e-22
3.942091784e-22
3.966648779e-22
6.364574953e-20
4.416497414e-19
3.430252823e-14
1.238169175e-13
5.133019103e-20
1.152136878e-19
1.360674479e-19
1.324724945e-19
1.232647415e-19
1.231684821e-19
1.406407044e-19
1.775365576e-19
2.301945973e-19
2.9161277e-19
3.535244104e-19
4.07842805e-19
4.481995908e-19
4.705440834e-19
4.726928144e-19
4.543417241e-19
4.166908938e-19
3.615947353e-19
2.911563523e-19
2.089275891e-19
1.16841542e-19
1.90445885e-20
3.405820096e-22
3.461148821e-22
3.515983023e-22
3.569694944e-22
3.622238642e-22
3.672347838e-22
3.720570632e-22
3.765871418e-22
3.808037384e-22
3.847300967e-22
3.882602466e-22
3.913992919e-22
3.942011737e-22
3.966567382e-22
7.833187688e-20
4.631137477e-19
3.716526593e-14
1.285973747e-13
5.125973111e-20
1.172555572e-19
1.404890698e-19
1.359035211e-19
1.209458818e-19
1.111500461e-19
1.173324716e-19
1.439881651e-19
1.895359206e-19
2.479462261e-19
3.107899979e-19
3.691962098e-19
4.155773832e-19
4.445994726e-19
4.532021851e-19
4.404766733e-19
4.072975335e-19
3.555550609e-19
2.875946851e-19
2.069087553e-19
1.159656542e-19
1.875190136e-20
3.405632356e-22
3.460970315e-22
3.515790166e-22
3.569529665e-22
3.622021797e-22
3.672199021e-22
3.720391726e-22
3.765710031e-22
3.807914185e-22
3.847146881e-22
3.88247057e-22
3.913902768e-22
3.941931333e-22
3.966487354e-22
9.327332679e-20
4.850263028e-19
4.009766798e-14
1.334901267e-13
5.150187542e-20
1.198293209e-19
1.459575177e-19
1.418832723e-19
1.23231563e-19
1.057156208e-19
1.016288576e-19
1.178486003e-19
1.550323369e-19
2.085648557e-19
2.703969673e-19
3.312180235e-19
3.824302687e-19
4.174850645e-19
4.323035104e-19
4.252555192e-19
3.967775389e-19
3.486588333e-19
2.834046024e-19
2.044898953e-19
1.148143058e-19
1.831301438e-20
3.405446929e-22
3.46079051e-22
3.515600493e-22
3.569359229e-22
3.621813006e-22
3.672044388e-22
3.720215604e-22
3.765549916e-22
3.807787428e-22
3.846995446e-22
3.882339799e-22
3.913811301e-22
3.941850608e-22
3.966408625e-22
1.084835256e-19
5.073935029e-19
4.31011442e-14
1.38498351e-13
5.195545789e-20
1.227509224e-19
1.520558179e-19
1.494834361e-19
1.288447535e-19
1.05349991e-19
9.222506804e-20
9.831699131e-20
1.264503947e-19
1.736881835e-19
2.328174777e-19
2.944562426e-19
3.492539075e-19
3.895611533e-19
4.102305367e-19
4.088046912e-19
3.851731859e-19
3.409063897e-19
2.785708884e-19
2.016452755e-19
1.133723312e-19
1.770990529e-20
3.405263433e-22
3.460610037e-22
3.515413117e-22
3.569185113e-22
3.621610508e-22
3.671885308e-22
3.720041706e-22
3.765390873e-22
3.807657692e-22
3.84684629e-22
3.882210093e-22
3.913718674e-22
3.941769598e-22
3.966331133e-22
1.23974717e-19
5.302221992e-19
4.617718303e-14
1.436252076e-13
5.255089185e-20
1.258841157e-19
1.585036222e-19
1.580862815e-19
1.367080464e-19
1.087216825e-19
8.794687854e-20
8.454369007e-20
1.033773578e-19
1.433398706e-19
1.983617204e-19
2.593497065e-19
3.164854313e-19
3.611771054e-19
3.872248524e-19
3.912644447e-19
3.725451229e-19
3.323096495e-19
2.730861824e-19
1.983533438e-19
1.116187343e-19
1.692508898e-20
3.405081645e-22
3.460429337e-22
3.515227426e-22
3.569008416e-22
3.621412951e-22
3.67172284e-22
3.719869595e-22
3.765232732e-22
3.807525469e-22
3.846699102e-22
3.882081387e-22
3.913625026e-22
3.94168834e-22
3.966254825e-22
1.397582175e-19
5.535198925e-19
4.932734466e-14
1.488738542e-13
5.323951993e-20
1.291314564e-19
1.651129483e-19
1.672791631e-19
1.461236708e-19
1.150324142e-19
8.781936474e-20
7.571303007e-20
8.534100109e-20
1.174036901e-19
1.672016046e-19
2.262325095e-19
2.844999767e-19
3.326599129e-19
3.635278292e-19
3.727850029e-19
3.589683155e-19
3.228921341e-19
2.669503844e-19
1.945984521e-19
1.095475802e-19
1.594251451e-20
3.404901283e-22
3.460248712e-22
3.515043007e-22
3.568829952e-22
3.621219302e-22
3.671557809e-22
3.719698932e-22
3.765075345e-22
3.807391169e-22
3.846553621e-22
3.881953618e-22
3.913530482e-22
3.94160687e-22
3.966179652e-22
1.558446252e-19
5.772946635e-19
5.255325577e-14
1.542474599e-13
5.398715204e-20
1.324242633e-19
1.717566823e-19
1.767772129e-19
1.565578829e-19
1.234300053e-19
9.090071854e-20
7.106309429e-20
7.182620801e-20
9.568282753e-20
1.393969816e-19
1.9534299e-19
2.53609627e-19
3.043096124e-19
3.39370724e-19
3.535229643e-19
3.445288266e-19
3.12688011e-19
2.601702619e-19
1.903697206e-19
1.071434496e-19
1.474838704e-20
3.404722297e-22
3.460068364e-22
3.514859582e-22
3.568650325e-22
3.621028765e-22
3.671390853e-22
3.719529455e-22
3.764918588e-22
3.807255142e-22
3.846409628e-22
3.881826725e-22
3.913435155e-22
3.941525223e-22
3.966105573e-22
1.722439949e-19
6.015551408e-19
5.585660555e-14
1.597492159e-13
5.476967114e-20
1.357146833e-19
1.783493922e-19
1.863858547e-19
1.676333899e-19
1.333662958e-19
9.665326899e-20
6.994221677e-20
6.231495071e-20
7.787740282e-20
1.149145891e-19
1.668347888e-19
2.240645424e-19
2.763896265e-19
3.149758892e-19
3.336368995e-19
3.293208743e-19
3.017407087e-19
2.527591187e-19
1.856613439e-19
1.043961927e-19
1.333060046e-20
3.404544633e-22
3.459888422e-22
3.514676971e-22
3.568469983e-22
3.620840732e-22
3.671222472e-22
3.719360956e-22
3.764762358e-22
3.807117678e-22
3.846266938e-22
3.881700648e-22
3.913339146e-22
3.941443435e-22
3.966032553e-22
1.889659871e-19
6.263105271e-19
5.923914327e-14
1.653823456e-13
5.55700227e-20
1.389698178e-19
1.848342304e-19
1.959717867e-19
1.790754408e-19
1.443918938e-19
1.044095443e-19
7.166984876e-20
5.630630765e-20
6.369075651e-20
9.365760245e-20
1.407904594e-19
1.960571231e-19
2.491274479e-19
2.905501171e-19
3.132839185e-19
3.134441029e-19
2.901013724e-19
2.447363618e-19
1.804723801e-19
1.012978606e-19
1.167691929e-20
3.404368274e-22
3.459709175e-22
3.514495073e-22
3.568289262e-22
3.620654734e-22
3.671053051e-22
3.719193275e-22
3.764606567e-22
3.806979025e-22
3.846125394e-22
3.88157533e-22
3.913242545e-22
3.941361541e-22
3.96596056e-22
2.060199927e-19
6.515707257e-19
6.270267717e-14
1.71150113e-13
5.637612672e-20
1.421673908e-19
1.911742159e-19
2.054444508e-19
1.90686129e-19
1.561700257e-19
1.137332661e-19
7.587784811e-20
5.33592175e-20
5.280271008e-20
7.5493257e-20
1.172346815e-19
1.69727537e-19
2.227148575e-19
2.66281313e-19
2.926169712e-19
2.970009789e-19
2.778272922e-19
2.361269557e-19
1.748064985e-19
9.784307827e-20
9.778257005e-21
3.404193199e-22
3.459530514e-22
3.51431382e-22
3.568108409e-22
3.620470414e-22
3.670882892e-22
3.719026285e-22
3.764451147e-22
3.80683939e-22
3.845984865e-22
3.881450719e-22
3.913145433e-22
3.941279573e-22
3.965889568e-22
2.234152232e-19
6.773466458e-19
6.624907506e-14
1.770558302e-13
5.717944397e-20
1.452927106e-19
1.973461893e-19
2.14743151e-19
2.023227833e-19
1.68441638e-19
1.242468165e-19
8.204732817e-20
5.305273542e-20
4.488719427e-20
6.023019533e-20
9.614257315e-20
1.451696448e-19
1.97309277e-19
2.423389318e-19
2.717798336e-19
2.800948339e-19
2.649804129e-19
2.269607869e-19
1.686716699e-19
9.402918344e-20
7.628528917e-21
3.404019399e-22
3.459352574e-22
3.51413318e-22
3.567927609e-22
3.620287494e-22
3.670712231e-22
3.718859885e-22
3.764296037e-22
3.806698949e-22
3.845845238e-22
3.881326764e-22
3.913047884e-22
3.941197563e-22
3.965819555e-22
2.411607093e-19
7.979000236e-17
6.988026775e-14
1.831028652e-13
5.797397577e-20
1.483365015e-19
2.033366424e-19
2.238282417e-19
2.138832309e-19
1.810093156e-19
1.356496327e-19
8.980405948e-20
5.491006763e-20
3.96255953e-20
4.768280106e-20
7.745499966e-20
1.224379019e-19
1.730358777e-19
2.188731565e-19
2.509052893e-19
2.628280847e-19
2.516259292e-19
2.17271963e-19
1.620797934e-19
8.985598644e-20
5.220759975e-21
3.403846865e-22
3.459175409e-22
3.513953142e-22
3.567747001e-22
3.620105762e-22
3.670541251e-22
3.718694002e-22
3.764141186e-22
3.80655785e-22
3.845706418e-22
3.881203421e-22
3.912949963e-22
3.941115544e-22
3.9657505e-22
2.592650881e-19
2.351524512e-15
7.359825517e-14
1.892946473e-13
5.875555331e-20
1.512933217e-19
2.091388392e-19
2.326749946e-19
2.252951305e-19
1.937236882e-19
1.477056742e-19
9.886219239e-20
5.8777026e-20
3.674628811e-20
3.765169099e-20
6.108547469e-20
1.015537186e-19
1.499899511e-19
1.96011239e-19
2.301181121e-19
2.453005331e-19
2.378309721e-19
2.070980783e-19
1.550463085e-19
8.532583879e-20
2.550648424e-21
3.403675584e-22
3.458999057e-22
3.513773704e-22
3.567566689e-22
3.619925056e-22
3.670370096e-22
3.718528575e-22
3.763986555e-22
3.806416217e-22
3.845568321e-22
3.881080646e-22
3.912851729e-22
3.941033544e-22
3.965682385e-22
2.777372976e-19
4.67797498e-15
7.740510644e-14
1.956346683e-13
5.952134177e-20
1.541604821e-19
2.14750725e-19
2.412692233e-19
2.365079368e-19
2.064712609e-19
1.602232352e-19
1.089539491e-19
6.426187361e-20
3.597184035e-20
2.993324969e-20
4.694042324e-20
8.251199494e-20
1.282401299e-19
1.738605445e-19
2.095317352e-19
2.276081012e-19
2.236634207e-19
1.964794744e-19
1.475897851e-19
8.044353456e-20
3.348039086e-22
3.403505536e-22
3.458823549e-22
3.513594846e-22
3.567386748e-22
3.61974525e-22
3.670198879e-22
3.718363554e-22
3.763832113e-22
3.806274156e-22
3.845430879e-22
3.880958401e-22
3.912753234e-22
3.940951592e-22
3.965615196e-22
2.9658617e-19
7.060350678e-15
8.130293053e-14
2.021264796e-13
6.026947862e-20
1.569372358e-19
2.201734772e-19
2.49604193e-19
2.474871549e-19
2.191662664e-19
1.730489853e-19
1.19859665e-19
7.11080245e-20
3.698790668e-20
2.432123527e-20
3.488479436e-20
6.528295544e-20
1.078313681e-19
1.525097101e-19
1.892475515e-19
2.098419166e-19
2.091908322e-19
1.854585143e-19
1.397315021e-19
7.521615322e-20
3.347878454e-22
3.403336693e-22
3.458648913e-22
3.513416698e-22
3.567207244e-22
3.61956625e-22
3.670027688e-22
3.7181989e-22
3.763677838e-22
3.806131754e-22
3.845294031e-22
3.880836649e-22
3.912654527e-22
3.940869715e-22
3.965548919e-22
3.158204593e-19
9.499900294e-15
8.529387806e-14
2.087736788e-13
6.099881077e-20
1.596241957e-19
2.254104729e-19
2.576784251e-19
2.582101671e-19
2.3174447e-19
1.860612227e-19
1.313999672e-19
7.910964644e-20
3.968052544e-20
2.063685588e-20
2.480373318e-20
4.982161698e-20
8.878854942e-20
1.320299587e-19
1.693546796e-19
1.92087861e-19
1.944794401e-19
1.740788937e-19
1.314950246e-19
6.965284644e-20
3.347718969e-22
3.403169025e-22
3.458475163e-22
3.51323916e-22
3.567028221e-22
3.619387981e-22
3.669856592e-22
3.718034582e-22
3.763523711e-22
3.805989085e-22
3.845157724e-22
3.880715359e-22
3.91255565e-22
3.94078794e-22
3.965483544e-22
3.354488727e-19
1.199791134e-14
8.938014696e-14
2.155798753e-13
6.170870292e-20
1.622229144e-19
2.304665517e-19
2.654941246e-19
2.686631342e-19
2.441582234e-19
1.991631379e-19
1.434242662e-19
8.807104935e-20
4.378290009e-20
1.869480457e-20
1.656871724e-20
3.606929746e-20
7.111950448e-20
1.124767549e-19
1.499316098e-19
1.744244365e-19
1.79593404e-19
1.623850216e-19
1.229057947e-19
6.376472946e-20
3.347560478e-22
3.403002472e-22
3.458302305e-22
3.513062286e-22
3.566849714e-22
3.619210387e-22
3.669685645e-22
3.717870574e-22
3.76336972e-22
3.805846214e-22
3.845021913e-22
3.880594501e-22
3.912456642e-22
3.940706293e-22
1.130273646e-20
3.554800971e-19
1.455570838e-14
9.356397749e-14
2.225488341e-13
6.239889747e-20
1.647355808e-19
2.353474831e-19
2.730560554e-19
2.78838694e-19
2.563727001e-19
2.122779765e-19
1.558073545e-19
9.782529798e-20
4.911275272e-20
1.832642723e-20
1.005002363e-20
2.396062368e-20
5.481805354e-20
9.389139624e-20
1.310468987e-19
1.569217286e-19
1.645946046e-19
1.50421489e-19
1.139907377e-19
5.756464941e-20
3.347402807e-22
3.402836982e-22
3.458130341e-22
3.512886093e-22
3.566671749e-22
3.619033426e-22
3.669514889e-22
3.717706856e-22
3.763215856e-22
3.805703192e-22
3.844886559e-22
3.880474047e-22
3.912357539e-22
3.940624798e-22
2.517773455e-20
3.759228494e-19
1.717465282e-14
9.784765813e-14
2.296844313e-13
6.306941131e-20
1.671648038e-19
2.400596104e-19
2.803706637e-19
2.887342799e-19
2.683630172e-19
2.253452176e-19
1.684456477e-19
1.082294243e-19
5.550100628e-20
1.930544609e-20
5.116475316e-21
1.34196783e-20
3.98659004e-20
7.630226896e-20
1.127575478e-19
1.396441606e-19
1.495418065e-19
1.382325563e-19
1.047778857e-19
5.106697109e-20
3.347245764e-22
3.402672486e-22
3.457959262e-22
3.512710594e-22
3.566494348e-22
3.618857065e-22
3.669344358e-22
3.717543413e-22
3.763062109e-22
3.805560065e-22
3.844751627e-22
3.880353974e-22
3.912258372e-22
3.94054348e-22
3.934564276e-20
3.967858884e-19
1.985614231e-14
1.02233529e-13
2.369906305e-13
6.372046096e-20
1.695134557e-19
2.446095955e-19
2.874455023e-19
2.98350812e-19
2.801119975e-19
2.383174623e-19
1.812538843e-19
1.191632735e-19
6.281715606e-20
2.160884054e-20
1.658685708e-21
4.367010708e-21
2.623516078e-20
5.972632966e-20
9.51096502e-20
1.226505356e-19
1.344904719e-19
1.258617262e-19
9.529602469e-20
4.428736288e-20
3.347089141e-22
3.402508901e-22
3.457789056e-22
3.5125358e-22
3.566317526e-22
3.618681278e-22
3.669174079e-22
3.717380234e-22
3.762908475e-22
3.805416871e-22
3.844617087e-22
3.880234259e-22
3.912159171e-22
3.94046236e-22
5.381247888e-20
4.180780327e-19
2.26016105e-14
1.067239834e-13
2.44471485e-13
6.435240245e-20
1.717845496e-19
2.490041964e-19
2.942888261e-19
3.07691742e-19
2.916084105e-19
2.511577977e-19
1.941615143e-19
1.30522087e-19
7.092788007e-20
2.50361528e-20
2.790727896e-22
2.852152107e-22
1.389064786e-20
4.417075422e-20
7.814045249e-20
1.059928385e-19
1.194924688e-19
1.133513762e-19
8.557436911e-20
3.724258182e-20
3.346932715e-22
3.402346135e-22
3.4576197e-22
3.512361717e-22
3.566141297e-22
3.618506048e-22
3.669004072e-22
3.717217309e-22
3.762754951e-22
3.805273641e-22
3.844482912e-22
3.880114884e-22
3.912059963e-22
3.94038146e-22
6.858436434e-20
4.39808174e-19
2.541252702e-14
1.11321469e-13
2.521311408e-13
6.496568989e-20
1.739811567e-19
2.532501438e-19
3.009092631e-19
3.167623281e-19
3.028456086e-19
2.638377349e-19
2.071102797e-19
1.422157959e-19
7.971745817e-20
2.946703983e-20
2.787491829e-22
2.849586027e-22
2.791134008e-21
2.96343716e-20
6.187903372e-20
8.971653841e-20
1.045959285e-19
1.007424499e-19
7.56422648e-20
2.995026822e-20
3.346776249e-22
3.402184087e-22
3.457451168e-22
3.512188346e-22
3.565965667e-22
3.618331359e-22
3.668834354e-22
3.717054631e-22
3.762601536e-22
3.805130402e-22
3.844349079e-22
3.879995829e-22
3.911960771e-22
3.940300801e-22
8.366752285e-20
4.619852925e-19
2.829039768e-14
1.160284894e-13
2.599738396e-13
6.556084295e-20
1.761063474e-19
2.573540583e-19
3.073155779e-19
3.255690898e-19
3.13820474e-19
2.763355873e-19
2.200522625e-19
1.541673714e-19
8.908438982e-20
3.478790301e-20
2.784257326e-22
2.846993747e-22
2.906870691e-22
1.610910641e-20
4.6347077e-20
7.386087184e-20
8.984524539e-20
8.807420018e-20
6.552892025e-20
2.242874585e-20
3.346619497e-22
3.402022642e-22
3.457283424e-22
3.512015687e-22
3.565790633e-22
3.618157199e-22
3.668664938e-22
3.716892192e-22
3.76244823e-22
3.804987177e-22
3.844215567e-22
3.879877079e-22
3.911861619e-22
3.940220404e-22
9.906828383e-20
4.846184647e-19
3.123676471e-14
1.208476055e-13
2.680039213e-13
6.613842262e-20
1.781631436e-19
2.613223549e-19
3.135165416e-19
3.34119403e-19
3.245325989e-19
2.886351661e-19
2.329482299e-19
1.66311186e-19
9.894029637e-20
4.090126124e-20
2.781029687e-22
2.844380534e-22
2.904869487e-22
3.581984529e-21
3.155964202e-20
5.84590568e-20
7.528124916e-20
7.538395038e-20
5.526316674e-20
1.469683208e-20
3.346462202e-22
3.401861679e-22
3.457116424e-22
3.511843732e-22
3.56561619e-22
3.617983558e-22
3.668495834e-22
3.71672999e-22
3.762295034e-22
3.804843986e-22
3.844082358e-22
3.87975862e-22
3.911762528e-22
3.940140291e-22
1.14793084e-19
5.077168756e-19
3.425320713e-14
1.257814363e-13
2.762258269e-13
6.669901362e-20
1.801544941e-19
2.651612282e-19
3.195207907e-19
3.42421188e-19
3.349836429e-19
3.007247202e-19
2.457661935e-19
1.785912923e-19
1.092074366e-19
4.771740361e-20
2.525920953e-21
2.84175123e-22
2.902834382e-22
2.961349306e-22
1.752575132e-20
4.353908686e-20
6.094086897e-20
6.270680277e-20
4.487325258e-20
6.773662157e-21
3.346304099e-22
3.401701065e-22
3.45695012e-22
3.511672476e-22
3.565442419e-22
3.617810433e-22
3.66832705e-22
3.716568019e-22
3.762141948e-22
3.804700843e-22
3.843949436e-22
3.87964044e-22
3.911663518e-22
3.940060479e-22
1.308484707e-19
5.312898248e-19
3.734134114e-14
1.308326612e-13
2.846441012e-13
6.72432123e-20
1.820832567e-19
2.688766308e-19
3.253367451e-19
3.504826761e-19
3.451768276e-19
3.125960701e-19
2.584801896e-19
1.909599388e-19
1.198169705e-19
5.515208853e-20
5.650454277e-21
2.839110201e-22
2.900769337e-22
2.959823357e-22
4.249625772e-21
2.912520168e-20
4.685566656e-20
5.007585933e-20
3.438670054e-20
3.29089221e-22
3.346144917e-22
3.401540662e-22
3.456784459e-22
3.511501903e-22
3.565269224e-22
3.617637817e-22
3.668158594e-22
3.716406279e-22
3.761988976e-22
3.804557764e-22
3.843816784e-22
3.879522527e-22
3.911564605e-22
3.93998099e-22
1.472411048e-19
5.553467361e-19
4.050282063e-14
1.360040206e-13
2.93263396e-13
6.777161626e-20
1.83952186e-19
2.724742556e-19
3.309725587e-19
3.583122374e-19
3.55116541e-19
3.242439099e-19
2.710692819e-19
2.033764326e-19
1.30708263e-19
6.312961651e-20
9.555858116e-21
2.836461505e-22
2.898678124e-22
2.958261662e-22
3.015664237e-22
1.523688224e-20
3.305365428e-20
3.752203134e-20
2.383013754e-20
3.290717189e-22
3.345984378e-22
3.401380321e-22
3.456619374e-22
3.511331995e-22
3.565096633e-22
3.617465703e-22
3.667990469e-22
3.716244767e-22
3.761836119e-22
3.804414759e-22
3.843684392e-22
3.879404871e-22
3.911465808e-22
3.939901843e-22
1.639777657e-19
5.798971664e-19
4.373933775e-14
1.412983177e-13
3.02088473e-13
6.828481786e-20
1.857639246e-19
2.759595289e-19
3.364360865e-19
3.659182523e-19
3.648080278e-19
3.356652444e-19
2.835167448e-19
2.158061948e-19
1.41828095e-19
7.158195184e-20
1.416767335e-20
2.833808853e-22
2.896564258e-22
2.956667029e-22
3.01452646e-22
1.888664366e-21
1.956044733e-20
2.50740341e-20
1.322908775e-20
3.290537504e-22
3.345822207e-22
3.401219889e-22
3.456454797e-22
3.511162729e-22
3.564924641e-22
3.617294088e-22
3.66782268e-22
3.716083481e-22
3.761683381e-22
3.804271839e-22
3.843552246e-22
3.879287463e-22
3.911367143e-22
3.939823057e-22
1.810653573e-19
6.049508178e-19
4.705262361e-14
1.467184201e-13
3.111242066e-13
6.87833984e-20
1.875210002e-19
2.793376108e-19
3.417348655e-19
3.733090186e-19
3.742571463e-19
3.468589327e-19
2.958093819e-19
2.282199463e-19
1.531299352e-19
8.044828564e-20
1.941568907e-20
2.831154196e-22
2.894430889e-22
2.955042155e-22
3.01335518e-22
3.069932012e-22
6.398684501e-21
1.275841722e-20
2.607993445e-21
3.290352762e-22
3.345658128e-22
3.401059206e-22
3.456290656e-22
3.510994077e-22
3.56475324e-22
3.617122965e-22
3.667655229e-22
3.715922421e-22
3.761530762e-22
3.80412901e-22
3.843420336e-22
3.879170296e-22
3.911268624e-22
3.939744651e-22
1.985109173e-19
6.305175569e-19
5.044444897e-14
1.52267261e-13
3.203755871e-13
6.92679248e-20
1.892258234e-19
2.826133994e-19
3.468761044e-19
3.80492685e-19
3.834701768e-19
3.578253148e-19
3.079369498e-19
2.405929784e-19
1.645732403e-19
8.967544858e-20
2.524820586e-20
2.828502323e-22
2.892281203e-22
2.953389616e-22
3.012152184e-22
3.069100402e-22
3.12485687e-22
5.995521372e-22
3.235024573e-22
3.290162577e-22
3.345491866e-22
3.400898107e-22
3.456126869e-22
3.510826009e-22
3.56458242e-22
3.616952331e-22
3.667488118e-22
3.715761587e-22
3.761378265e-22
3.803986281e-22
3.843288653e-22
3.879053364e-22
3.911170267e-22
3.939666646e-22
2.163216283e-19
6.566074479e-19
5.391662535e-14
1.579478412e-13
3.298477243e-13
6.973894698e-20
1.908806897e-19
2.857915365e-19
3.518666783e-19
3.874772068e-19
3.9245367e-19
3.685659045e-19
3.19891661e-19
2.529044572e-19
1.761223948e-19
9.921447293e-20
3.160504235e-20
2.825855035e-22
2.890118055e-22
2.951711975e-22
3.010919253e-22
3.06823994e-22
3.124280614e-22
3.179631772e-22
3.234764672e-22
3.289966589e-22
3.345323148e-22
3.400736426e-22
3.455963351e-22
3.51065849e-22
3.564412168e-22
3.616782179e-22
3.667321348e-22
3.715600979e-22
3.761225894e-22
3.803843655e-22
3.843157187e-22
3.87893666e-22
3.911072085e-22
3.939589061e-22
2.345048361e-19
6.832308178e-19
5.747100647e-14
1.637632307e-13
3.395458499e-13
7.019699642e-20
1.924877821e-19
2.888764179e-19
3.567131195e-19
3.942703239e-19
4.012143276e-19
3.790831381e-19
3.316677703e-19
2.651368623e-19
1.877461302e-19
1.090210914e-19
3.843246021e-20
2.823214663e-22
2.887944117e-22
2.950011593e-22
3.009658143e-22
3.067351622e-22
3.123680823e-22
3.179234147e-22
3.234493611e-22
3.289764453e-22
3.345151704e-22
3.40057399e-22
3.455800014e-22
3.510491482e-22
3.56424247e-22
3.616612503e-22
3.66715492e-22
3.715440597e-22
3.76107365e-22
3.803701137e-22
3.843025932e-22
3.878820179e-22
3.910974091e-22
3.939511915e-22
2.53068069e-19
7.10398381e-19
6.110949038e-14
1.697165708e-13
3.494753221e-13
7.064258542e-20
1.940491758e-19
2.918722114e-19
3.614216751e-19
4.008794596e-19
4.09758926e-19
3.893801733e-19
3.432612339e-19
2.772755271e-19
1.994170643e-19
1.190555623e-19
4.568185717e-20
2.820583311e-22
2.885761879e-22
2.948290744e-22
3.008370577e-22
3.066436474e-22
3.123057884e-22
3.178819115e-22
3.234211107e-22
3.289555845e-22
3.344977269e-22
3.400410626e-22
3.455636762e-22
3.510324942e-22
3.56407331e-22
3.616443296e-22
3.666988834e-22
3.715280439e-22
3.760921538e-22
3.80355873e-22
3.842894879e-22
3.878703917e-22
3.910876299e-22
3.939435228e-22
2.720190507e-19
7.381214858e-19
6.483402235e-14
1.758110769e-13
3.596416291e-13
7.107620632e-20
1.955668418e-19
2.947828635e-19
3.659982831e-19
4.073117718e-19
4.180942236e-19
3.99460721e-19
3.546694266e-19
2.893082535e-19
2.111112855e-19
1.292823001e-19
5.330886467e-20
2.817962835e-22
2.883573681e-22
2.946551555e-22
3.007058237e-22
3.065495538e-22
3.122412233e-22
3.178386669e-22
3.233916916e-22
3.289340463e-22
3.344799586e-22
3.40024616e-22
3.455473498e-22
3.510158823e-22
3.563904668e-22
3.616274552e-22
3.666823088e-22
3.715120505e-22
3.760769562e-22
3.803416437e-22
3.842764022e-22
3.878587871e-22
3.91077872e-22
3.939359021e-22
2.913656611e-19
7.664125965e-19
6.864659953e-14
1.820500415e-13
3.700503924e-13
7.14983316e-20
1.970426507e-19
2.976121069e-19
3.704485744e-19
4.135741528e-19
4.26226915e-19
4.093289129e-19
3.658909058e-19
3.012249793e-19
2.228079737e-19
1.396695366e-19
6.127315112e-20
2.815354777e-22
2.881380567e-22
2.944795942e-22
3.005722745e-22
3.06452987e-22
3.121744347e-22
3.177936848e-22
3.233610831e-22
3.289118021e-22
3.344618403e-22
3.400080416e-22
3.455310122e-22
3.509993078e-22
3.563736523e-22
3.616106262e-22
3.666657681e-22
3.714960793e-22
3.760617723e-22
3.803274262e-22
3.842633355e-22
3.878472036e-22
3.910681365e-22
3.939283311e-22
3.111157182e-19
9.615356535e-16
7.254927777e-14
1.884368385e-13
3.807073708e-13
7.190941358e-20
1.984783762e-19
3.003634722e-19
3.747778922e-19
4.196732183e-19
4.341635922e-19
4.189891924e-19
3.769252118e-19
3.130174848e-19
2.344890428e-19
1.501889987e-19
6.953897612e-20
1.088369019e-21
2.879185883e-22
2.943025945e-22
3.004365696e-22
3.063540529e-22
3.12105474e-22
3.177469734e-22
3.23329268e-22
3.288888258e-22
3.344433478e-22
3.39991322e-22
3.455146528e-22
3.509827654e-22
3.563568854e-22
3.615938416e-22
3.666492611e-22
3.714801303e-22
3.760466023e-22
3.803132205e-22
3.842502873e-22
3.878356411e-22
3.910584246e-22
1.129721945e-21
3.312771368e-19
3.442135085e-15
7.654418047e-14
1.949749257e-13
3.916184645e-13
7.230988481e-20
1.998757004e-19
3.030403e-19
3.78991309e-19
4.256153036e-19
4.419107134e-19
4.28446226e-19
3.877726968e-19
3.246791292e-19
2.461387771e-19
1.608153042e-19
7.807284434e-20
6.581303367e-21
2.876990726e-22
2.94124338e-22
3.002988601e-22
3.062528573e-22
3.120343956e-22
3.176985451e-22
3.232962325e-22
3.288650932e-22
3.344244576e-22
3.399744397e-22
3.454982611e-22
3.509662495e-22
3.563401634e-22
3.615771005e-22
3.666327875e-22
3.714642034e-22
3.760314464e-22
3.802990268e-22
3.842372569e-22
3.878240993e-22
3.910487375e-22
1.535301604e-20
3.518582916e-19
5.982008152e-15
8.063349014e-14
2.016678463e-13
4.027897178e-13
7.270015822e-20
2.012362178e-19
3.056457522e-19
3.830936479e-19
4.314064616e-19
4.494745806e-19
4.377048303e-19
3.984343805e-19
3.362046249e-19
2.577435324e-19
1.715256615e-19
8.684377349e-20
1.246463457e-20
2.874796704e-22
2.939449952e-22
3.001592978e-22
3.061495061e-22
3.119612562e-22
3.176484164e-22
3.23261966e-22
3.288405822e-22
3.344051473e-22
3.399573776e-22
3.454818262e-22
3.509497545e-22
3.563234837e-22
3.615604018e-22
3.666163471e-22
3.714482985e-22
3.760163046e-22
3.802848453e-22
3.84224244e-22
3.87812578e-22
3.910390763e-22
2.987768822e-20
3.728676374e-19
8.582446078e-15
8.481942657e-14
2.085192286e-13
4.142273225e-13
7.308062813e-20
2.025614394e-19
3.081828158e-19
3.870894616e-19
4.370525028e-19
4.568613291e-19
4.467699142e-19
4.089118284e-19
3.475898443e-19
2.692914893e-19
1.82299637e-19
9.582346433e-20
1.870501506e-20
2.872605286e-22
2.937647282e-22
3.000180219e-22
3.060441036e-22
3.118861152e-22
3.175966061e-22
3.232264611e-22
3.288152728e-22
3.343853954e-22
3.399401187e-22
3.454653371e-22
3.509332742e-22
3.563068434e-22
3.615437442e-22
3.665999388e-22
3.714324161e-22
3.760011772e-22
3.802706761e-22
3.842112481e-22
3.87801077e-22
3.910294417e-22
4.470972141e-20
3.943136843e-19
1.12447798e-14
8.910425084e-14
2.155327859e-13
4.259376225e-13
7.345167058e-20
2.038527976e-19
3.106543172e-19
3.909830681e-19
4.425589808e-19
4.640769129e-19
4.556464301e-19
4.192070504e-19
3.58831658e-19
2.807724437e-19
1.931189488e-19
1.04986098e-19
2.52715358e-20
2.87041781e-22
2.935836922e-22
2.998751701e-22
3.059367525e-22
3.118090334e-22
3.175431365e-22
3.231897132e-22
3.287891473e-22
3.343651816e-22
3.399226461e-22
3.454487827e-22
3.509168024e-22
3.562902394e-22
3.615271262e-22
3.665835619e-22
3.714165562e-22
3.759860641e-22
3.802565191e-22
3.841982689e-22
3.877895962e-22
3.910198349e-22
5.98552148e-20
4.162050119e-19
1.397037934e-14
9.349026936e-14
2.227123175e-13
4.379271164e-13
7.381364423e-20
2.051116512e-19
3.130629343e-19
3.947785711e-19
4.47931193e-19
4.711270961e-19
4.643393352e-19
4.293224158e-19
3.699277959e-19
2.921776243e-19
2.039672712e-19
1.143081463e-19
3.213550391e-20
2.868235461e-22
2.934020056e-22
2.997308724e-22
3.058275534e-22
3.117300731e-22
3.174880321e-22
3.231517205e-22
3.287621896e-22
3.343444864e-22
3.399049436e-22
3.454321518e-22
3.509003326e-22
3.562736683e-22
3.615105462e-22
3.665672158e-22
3.714007188e-22
3.759709654e-22
3.802423744e-22
3.841853059e-22
3.877781356e-22