/*--------------------------------*- C++ -*----------------------------------*\
| =========                 |                                                 |
| \\      /  F ield         | OpenFOAM: The Open Source CFD Toolbox           |
|  \\    /   O peration     | Version:  v2006                                 |
|   \\  /    A nd           | Website:  www.openfoam.com                      |
|    \\/     M anipulation  |                                                 |
\*---------------------------------------------------------------------------*/
FoamFile
{
    version     2.0;
    format      ascii;
    class       volScalarField;
    location    "0.09";
    object      O2;
}
// * * * * * * * * * * * * * * * * * * * * * * * * * * * * * * * * * * * * * //

dimensions      [0 0 0 0 0 0 0];


internalField   nonuniform List<scalar> 
168000
(
0.2134296131
0.2134190858
0.2134111141
0.2134039371
0.2133970115
0.2133901165
0.2133831684
0.2133761006
0.2133688402
0.2133613646
0.2133536555
0.2133456989
0.2133374749
0.2133289713
0.2133202419
0.213311236
0.2133019659
0.2132925472
0.2132828297
0.213273072
0.2132630819
0.2132530937
0.2132427978
0.213232569
0.2132223486
0.2132124641
0.213202593
0.2131934345
0.2131844147
0.213176036
0.2131682694
0.2131609305
0.2131544096
0.2131486333
0.2131434406
0.2131388802
0.213135029
0.2131310261
0.2131193927
0.2130884076
0.2134437164
0.2134294023
0.2134182781
0.2134088283
0.2134002993
0.2133922889
0.2133845661
0.2133769712
0.2133693742
0.2133616877
0.2133538509
0.213345818
0.2133375517
0.2133290339
0.2133202834
0.2133112717
0.213302011
0.2132925697
0.2132828775
0.2132730952
0.2132631233
0.2132531213
0.2132428386
0.2132325963
0.2132223936
0.2132124811
0.2132026504
0.2131934494
0.2131844535
0.2131760678
0.2131682865
0.2131609632
0.2131544353
0.2131486482
0.2131434551
0.2131388965
0.2131350085
0.213130983
0.213118473
0.2130868673
0.213452806
0.213437587
0.2134247664
0.2134136729
0.2134037782
0.2133947074
0.2133861924
0.2133780273
0.213370041
0.2133620992
0.2133541014
0.2133459703
0.2133376484
0.2133291038
0.2133203319
0.213311312
0.2133020535
0.2132925991
0.2132829204
0.213273123
0.213263162
0.2132531512
0.2132428773
0.2132326258
0.2132224353
0.2132125028
0.2132027024
0.2131934684
0.2131844906
0.2131760992
0.2131683052
0.2131609948
0.2131544606
0.2131486636
0.2131434697
0.2131389125
0.2131349873
0.2131309387
0.2131175302
0.2130852924
0.2134592702
0.213444044
0.2134304065
0.2134182269
0.2134072604
0.2133972556
0.2133879832
0.2133792372
0.2133708298
0.213362598
0.2133544095
0.2133461588
0.2133377667
0.2133291839
0.2133203875
0.2133113565
0.2133020956
0.2132926324
0.2132829606
0.2132731538
0.2132631989
0.2132531826
0.2132429145
0.2132326569
0.2132224747
0.2132125278
0.2132027502
0.2131934904
0.2131845263
0.2131761301
0.2131683252
0.2131610254
0.2131544858
0.2131486794
0.2131434844
0.2131389281
0.2131349655
0.2131308933
0.2131165641
0.2130836815
0.2134642413
0.2134492445
0.2134352543
0.213422393
0.2134106266
0.2133998399
0.213389878
0.2133805668
0.2133717253
0.2133631796
0.2133547758
0.2133463854
0.2133379082
0.2133292766
0.213320451
0.2133114055
0.2133021388
0.2132926685
0.2132829995
0.2132731864
0.2132632349
0.2132532149
0.2132429506
0.213232689
0.2132225125
0.2132125553
0.2132027948
0.2131935147
0.213184561
0.2131761606
0.2131683463
0.2131610552
0.2131545107
0.2131486955
0.2131434992
0.2131389435
0.2131349429
0.2131308467
0.2131155743
0.2130820335
0.2134682525
0.2134535339
0.2134394287
0.2134261565
0.2134138122
0.213402393
0.2133918246
0.2133819826
0.2133727099
0.2133638367
0.2133551989
0.213346651
0.2133380743
0.2133293834
0.2133205229
0.2133114592
0.2133021838
0.2132927068
0.2132830381
0.2132732203
0.2132632705
0.2132532479
0.213242986
0.2132327217
0.2132225491
0.2132125847
0.213202837
0.2131935409
0.2131845948
0.2131761908
0.2131683684
0.2131610844
0.2131545354
0.213148712
0.2131435141
0.2131389586
0.2131349195
0.2131307989
0.2131145603
0.2130803472
0.2134715889
0.2134571464
0.2134430489
0.213429542
0.2134167897
0.2134048705
0.2133937821
0.2133834545
0.2133737654
0.2133645605
0.2133556758
0.2133469555
0.2133382662
0.2133295058
0.2133206042
0.2133115182
0.2133022313
0.2132927472
0.2132830768
0.2132732552
0.2132633059
0.2132532814
0.2132430208
0.2132327548
0.2132225848
0.2132126153
0.2132028772
0.2131935685
0.213184628
0.2131762208
0.2131683913
0.213161113
0.2131545599
0.2131487287
0.213143529
0.2131389734
0.2131348953
0.21313075
0.2131135216
0.2130786216
0.213474424
0.2134602416
0.2134462155
0.2134325876
0.2134195543
0.2134072462
0.2133957198
0.2133849569
0.2133748744
0.2133653414
0.2133562023
0.213347298
0.2133384842
0.2133296448
0.2133206956
0.2133115828
0.2133022817
0.2132927894
0.213283116
0.213273291
0.2132633413
0.2132533153
0.2132430552
0.2132327881
0.21322262
0.2132126469
0.2132029159
0.2131935972
0.2131846607
0.2131762505
0.2131684148
0.2131611411
0.2131545841
0.2131487457
0.2131435439
0.213138988
0.2131348703
0.2131306998
0.2131124579
0.2130768555
0.2134768734
0.2134629317
0.2134490099
0.2134353344
0.2134221124
0.2134095062
0.2133976162
0.213386469
0.2133760209
0.2133661695
0.2133567736
0.2133476768
0.2133387285
0.213329801
0.2133207976
0.2133116537
0.2133023355
0.2132928337
0.213283156
0.2132733276
0.2132633769
0.2132533494
0.2132430893
0.2132328216
0.2132226548
0.2132126792
0.2132029535
0.2131936267
0.213184693
0.21317628
0.2131684388
0.2131611687
0.2131546082
0.2131487629
0.213143559
0.2131390024
0.2131348444
0.2131306483
0.2131113685
0.2130750478
0.2134790182
0.2134652978
0.2134514964
0.2134378212
0.2134244781
0.2134116468
0.2133994571
0.2133879743
0.2133771912
0.2133670352
0.2133573843
0.2133480895
0.2133389985
0.2133299749
0.2133209109
0.2133117312
0.2133023929
0.2132928802
0.2132831969
0.2132733649
0.2132634127
0.2132533838
0.213243123
0.2132328551
0.2132226892
0.213212712
0.2132029902
0.2131936569
0.2131847249
0.2131763093
0.2131684634
0.213161196
0.2131546321
0.2131487802
0.213143574
0.2131390166
0.2131348177
0.2131305955
0.213110253
0.2130731975
0.2134809174
0.2134674003
0.213453726
0.213440082
0.2134266669
0.2134136673
0.2134012335
0.2133894605
0.2133783736
0.2133679298
0.213358029
0.2133485337
0.2133392935
0.2133301667
0.2133210359
0.2133118158
0.2133024544
0.2132929289
0.213283239
0.2132734029
0.2132634489
0.2132534185
0.2132431565
0.2132328886
0.2132227234
0.2132127451
0.2132030261
0.2131936875
0.2131847566
0.2131763385
0.2131684883
0.213161223
0.2131546558
0.2131487978
0.2131435892
0.2131390305
0.21313479
0.2131305414
0.2131091107
0.2130713034
0.2134826152
0.2134692851
0.2134557391
0.2134421465
0.2134286952
0.2134155725
0.2134029415
0.2133909185
0.2133795582
0.2133688452
0.2133587022
0.2133490064
0.2133396124
0.2133303762
0.2133211728
0.2133119078
0.2133025203
0.2132929802
0.2132832824
0.2132734418
0.2132634854
0.2132534535
0.2132431897
0.2132329221
0.2132227575
0.2132127784
0.2132030614
0.2131937185
0.213184788
0.2131763676
0.2131685135
0.2131612497
0.2131546793
0.2131488155
0.2131436043
0.2131390443
0.2131347613
0.213130486
0.2131079411
0.2130693645
0.2134841456
0.2134709877
0.2134575683
0.2134440398
0.2134305785
0.213417368
0.2134045782
0.213392342
0.2133807373
0.2133697744
0.2133593989
0.2133495045
0.2133399539
0.2133306031
0.2133213219
0.2133120077
0.2133025908
0.2132930341
0.2132833273
0.2132734815
0.2132635224
0.2132534887
0.2132432226
0.2132329555
0.2132227914
0.2132128119
0.2132030963
0.2131937497
0.2131848193
0.2131763966
0.213168539
0.2131612762
0.2131547027
0.2131488333
0.2131436195
0.2131390578
0.2131347317
0.2131304291
0.2131067435
0.2130673796
0.2134855348
0.2134725361
0.2134592399
0.2134457835
0.2134323312
0.2134190608
0.2134061445
0.2133937272
0.2133819048
0.2133707112
0.2133601143
0.213350025
0.2133403164
0.213330847
0.2133214833
0.2133121155
0.2133026662
0.2132930908
0.2132833737
0.2132735222
0.2132635599
0.2132535243
0.2132432553
0.2132329887
0.2132228251
0.2132128454
0.2132031308
0.2131937811
0.2131848504
0.2131764255
0.2131685647
0.2131613025
0.213154726
0.2131488512
0.2131436347
0.2131390712
0.2131347011
0.2131303708
0.2131055173
0.2130653476
0.213486804
0.2134739527
0.2134607753
0.2134473957
0.2134339663
0.2134206578
0.2134076419
0.2133950708
0.2133830557
0.2133716506
0.213360844
0.2133505649
0.2133406982
0.2133311072
0.2133216568
0.2133122316
0.2133027467
0.2132931506
0.2132834218
0.2132735637
0.2132635979
0.2132535601
0.2132432878
0.2132330219
0.2132228587
0.213212879
0.213203165
0.2131938127
0.2131848813
0.2131764543
0.2131685906
0.2131613285
0.2131547491
0.2131488692
0.2131436499
0.2131390843
0.2131346694
0.2131303109
0.2131042619
0.2130632674
0.2134879699
0.2134752557
0.2134621923
0.2134488918
0.2134354956
0.2134221661
0.2134090726
0.2133963719
0.2133841867
0.2133725882
0.2133615842
0.2133511214
0.2133410977
0.213331383
0.2133218423
0.213312356
0.2133028326
0.2132932135
0.2132834717
0.2132736064
0.2132636365
0.2132535963
0.2132433201
0.2132330549
0.2132228922
0.2132129125
0.2132031989
0.2131938444
0.2131849122
0.2131764831
0.2131686167
0.2131613544
0.2131547721
0.2131488873
0.2131436651
0.2131390973
0.2131346368
0.2131302238
0.2131029766
0.2130611378
0.2134890462
0.2134764598
0.2134635056
0.213450285
0.2134369292
0.2134235923
0.2134104398
0.2133976303
0.2133852957
0.2133735206
0.2133623313
0.2133516917
0.2133415131
0.2133316734
0.2133220396
0.2133124888
0.2133029239
0.2132932797
0.2132835235
0.2132736501
0.2132636756
0.2132536329
0.2132433521
0.2132330878
0.2132229256
0.213212946
0.2132032327
0.2131938761
0.213184943
0.2131765118
0.2131686429
0.2131613802
0.2131547949
0.2131489055
0.2131436803
0.2131391101
0.213134603
0.2131294182
0.2131016607
0.2130589577
0.2134900442
0.2134775774
0.2134647275
0.2134515867
0.2134382765
0.2134249429
0.2134117464
0.213398846
0.2133863798
0.2133744446
0.2133630823
0.2133522733
0.2133419428
0.2133319777
0.2133222482
0.21331263
0.2133030208
0.2132933494
0.2132835774
0.213273695
0.2132637155
0.2132536698
0.2132433838
0.2132331205
0.2132229589
0.2132129795
0.2132032662
0.2131939078
0.2131849737
0.2131765405
0.2131686691
0.2131614058
0.2131548177
0.2131489237
0.2131436955
0.2131391228
0.2131345682
0.2131285932
0.2131003134
0.2130567258
0.2134909735
0.2134786188
0.2134658684
0.2134528065
0.2134395455
0.2134262236
0.2134129958
0.2134000199
0.2133874384
0.213375358
0.2133638346
0.2133528638
0.213342385
0.2133322948
0.2133224679
0.2133127796
0.2133031235
0.2132934228
0.2132836334
0.2132737411
0.213263756
0.2132537053
0.2132434154
0.213233153
0.2132229921
0.2132130129
0.2132032995
0.2131939396
0.2131850043
0.2131765692
0.2131686955
0.2131614313
0.2131548404
0.213148942
0.2131437107
0.2131391352
0.2131345323
0.2131277484
0.2130989341
0.2130544409
0.2134918418
0.2134795924
0.2134669372
0.2134539527
0.2134407434
0.2134274398
0.2134141911
0.2134011532
0.2133884709
0.2133762594
0.213364586
0.2133534613
0.2133428382
0.2133326237
0.2133226982
0.2133129373
0.2133032319
0.2132934998
0.2132836916
0.2132737885
0.2132637973
0.2132537351
0.2132434467
0.2132331854
0.2132230252
0.2132130462
0.2132033327
0.2131939714
0.2131850348
0.2131765978
0.2131687219
0.2131614567
0.213154863
0.2131489603
0.2131437259
0.2131391475
0.2131344952
0.2131268832
0.213097522
0.2130521019
0.2134926559
0.2134805058
0.2134679414
0.2134550326
0.2134418767
0.2134285965
0.2134153357
0.213402247
0.2133894769
0.2133771467
0.2133653343
0.2133540637
0.2133433009
0.2133329635
0.2133229385
0.2133131032
0.2133033461
0.2132935806
0.2132837521
0.2132738372
0.2132638393
0.2132537647
0.2132434778
0.2132332177
0.2132230581
0.2132130794
0.2132033658
0.2131940031
0.2131850653
0.2131766264
0.2131687484
0.213161482
0.2131548855
0.2131489786
0.2131437411
0.2131391597
0.213134457
0.2131259974
0.2130960762
0.2130497074
0.2134934214
0.2134813651
0.2134688875
0.2134560526
0.2134429508
0.2134296982
0.2134164325
0.213403303
0.2133904565
0.2133780191
0.2133660782
0.2133546694
0.2133437715
0.2133333133
0.2133231884
0.2133132769
0.2133034661
0.2132936653
0.2132838151
0.2132738874
0.2132638822
0.2132537941
0.2132435087
0.2132332497
0.2132230909
0.2132131125
0.2132033988
0.2131940348
0.2131850958
0.2131766549
0.2131687749
0.2131615072
0.2131549079
0.213148997
0.2131437562
0.2131391468
0.2131344176
0.2131250903
0.2130945962
0.2130472562
0.2134941432
0.2134821757
0.2134697812
0.2134570182
0.2134439709
0.213430749
0.2134174843
0.2134043226
0.2133914099
0.213378876
0.213366816
0.2133552768
0.2133442489
0.2133336719
0.2133234472
0.2133134583
0.2133035918
0.213293754
0.2132838805
0.2132739391
0.2132639259
0.2132538233
0.2132435394
0.2132332816
0.2132231236
0.2132131455
0.2132034316
0.2131940665
0.2131851261
0.2131766835
0.2131688014
0.2131615323
0.2131549303
0.2131490154
0.2131437714
0.2131391271
0.2131343771
0.2131241615
0.2130930809
0.2130447469
0.2134948256
0.2134829424
0.2134706273
0.2134579342
0.2134449414
0.2134317526
0.2134184941
0.2134053073
0.2133923375
0.2133797169
0.2133675474
0.2133558847
0.2133447318
0.2133340386
0.2133237145
0.2133136471
0.2133037233
0.2132938466
0.2132839485
0.2132739923
0.2132639705
0.2132538525
0.2132435699
0.2132333134
0.2132231561
0.2132131784
0.2132034643
0.2131940981
0.2131851564
0.213176712
0.213168828
0.2131615573
0.2131549525
0.2131490338
0.2131437864
0.2131391065
0.2131343353
0.2131232105
0.2130915297
0.2130421783
0.2134954723
0.2134836691
0.2134714301
0.2134588048
0.2134458663
0.2134327125
0.2134194642
0.2134062589
0.2133932399
0.2133805413
0.2133682704
0.2133564919
0.2133452191
0.2133344124
0.2133239896
0.2133138431
0.2133038604
0.2132939432
0.2132840191
0.2132740471
0.2132640161
0.2132538815
0.2132436003
0.213233345
0.2132231886
0.2132132112
0.2132034969
0.2131941297
0.2131851867
0.2131767405
0.2131688545
0.2131615823
0.2131549747
0.2131490522
0.2131438015
0.2131390851
0.2131342922
0.2131222368
0.2130899417
0.2130395489
0.2134960864
0.2134843594
0.2134721934
0.2134596339
0.2134467492
0.2134336317
0.2134203971
0.2134071787
0.2133941177
0.2133813491
0.2133689847
0.2133570953
0.2133457001
0.2133347925
0.2133242721
0.2133140458
0.2133040031
0.2132940439
0.2132840924
0.2132741035
0.2132640626
0.2132539105
0.2132436305
0.2132333764
0.2132232209
0.2132132439
0.2132035294
0.2131941613
0.2131852169
0.213176769
0.2131688811
0.2131616072
0.2131549969
0.2131490706
0.2131438165
0.2131390628
0.2131342479
0.2131212398
0.213088316
0.2130368574
0.2134966707
0.2134850164
0.2134729205
0.2134604248
0.2134475931
0.213434513
0.213421295
0.2134080683
0.2133949716
0.2133821403
0.2133696899
0.2133576956
0.2133461762
0.2133351782
0.2133245613
0.2133142551
0.2133041512
0.2132941486
0.2132841684
0.2132741616
0.2132641102
0.2132539396
0.2132436605
0.2132334076
0.213223253
0.2132132765
0.2132035618
0.2131941927
0.2131852471
0.2131767975
0.2131689077
0.213161632
0.213155019
0.213149089
0.2131438315
0.2131390397
0.2131342023
0.2131202191
0.2130866519
0.2130341022
0.2134972278
0.213485643
0.2134736144
0.2134611806
0.2134484012
0.2134353591
0.2134221601
0.2134089291
0.2133958024
0.213382915
0.2133703854
0.2133582956
0.2133466571
0.2133355489
0.2133248567
0.2133144706
0.2133043046
0.2132942573
0.2132842471
0.2132742215
0.2132641587
0.2132539686
0.2132436905
0.2132334388
0.2132232851
0.213213309
0.2132035941
0.2131942242
0.2131852773
0.2131768259
0.2131689343
0.2131616568
0.213155041
0.2131491074
0.2131438464
0.2131390157
0.2131341554
0.2131191741
0.2130849483
0.213031282
0.2134977598
0.2134862415
0.2134742776
0.2134619038
0.2134491758
0.2134361722
0.2134229941
0.2134097625
0.2133966107
0.2133836732
0.2133710708
0.2133588944
0.2133471419
0.2133359202
0.2133251578
0.213314692
0.2133044632
0.2132943699
0.2132843286
0.2132742832
0.2132642084
0.2132539978
0.2132437204
0.2132334697
0.213223317
0.2132133413
0.2132036264
0.2131942555
0.2131853073
0.2131768543
0.2131689608
0.2131616815
0.213155063
0.2131491258
0.2131438612
0.2131389907
0.2131341071
0.2131181043
0.2130832044
0.2130283952
0.2134982687
0.2134868141
0.2134749126
0.2134625968
0.2134499193
0.2134369544
0.213423799
0.2134105698
0.2133973974
0.2133844153
0.213371746
0.213359485
0.2133476296
0.2133362977
0.2133254423
0.213314919
0.2133046267
0.2132944865
0.2132844129
0.2132743466
0.2132642591
0.2132540272
0.2132437502
0.2132335006
0.2132233487
0.2132133736
0.2132036585
0.2131942869
0.2131853374
0.2131768827
0.2131689874
0.2131617061
0.2131550849
0.2131491441
0.213143876
0.2131389648
0.2131340574
0.213117009
0.2130814192
0.2130254402
0.2134987562
0.2134873627
0.2134755213
0.213463262
0.213450634
0.2134377079
0.2134245763
0.2134113523
0.2133981632
0.2133851415
0.2133724107
0.2133600704
0.2133481196
0.2133366808
0.2133257254
0.2133151512
0.2133047951
0.213294607
0.2132844999
0.213274412
0.2132643069
0.2132540567
0.2132437799
0.2132335313
0.2132233804
0.2132134057
0.2132036905
0.2131943181
0.2131853674
0.2131769111
0.2131690139
0.2131617308
0.2131551068
0.2131491625
0.2131438908
0.213138938
0.2131340064
0.2131158877
0.2130795918
0.2130224157
0.2134992239
0.2134878892
0.2134761056
0.2134639011
0.2134513216
0.2134384343
0.2134253277
0.2134121111
0.213398909
0.2133858521
0.2133730649
0.2133606504
0.213348611
0.2133370688
0.2133260151
0.213315366
0.2133049682
0.2132947313
0.2132845898
0.2132744792
0.2132643394
0.2132540865
0.2132438097
0.2132335619
0.2132234119
0.2132134377
0.2132037224
0.2131943493
0.2131853974
0.2131769395
0.2131690404
0.2131617553
0.2131551286
0.2131491808
0.2131439055
0.2131389103
0.2131339539
0.2131147398
0.2130777213
0.2130193198
0.2134996732
0.213488395
0.2134766673
0.2134645159
0.213451984
0.2134391352
0.2134260545
0.2134128474
0.2133996353
0.2133865475
0.2133737086
0.2133612245
0.2133491031
0.213337461
0.2133263109
0.2133155771
0.2133051457
0.2132948593
0.2132846825
0.2132745483
0.2132643727
0.2132541166
0.2132438394
0.2132335925
0.2132234433
0.2132134696
0.2132037543
0.2131943804
0.2131854273
0.2131769678
0.213169067
0.2131617798
0.2131551504
0.2131491991
0.2131439201
0.2131388815
0.2131338999
0.2131135647
0.2130758067
0.213016151
0.2135001054
0.2134888816
0.2134772079
0.2134651081
0.2134526228
0.2134398123
0.2134267582
0.2134135623
0.2134003431
0.2133872279
0.2133743416
0.2133617926
0.2133495955
0.2133378567
0.2133266124
0.2133157944
0.2133052985
0.213294991
0.213284778
0.2132746193
0.213264407
0.213254147
0.2132438692
0.2132336229
0.2132234746
0.2132135014
0.213203786
0.2131944115
0.2131854572
0.2131769961
0.2131690935
0.2131618043
0.2131551721
0.2131492174
0.2131439346
0.2131388518
0.2131338445
0.2131123617
0.2130738468
0.2130129077
0.2135005216
0.2134893502
0.2134777288
0.2134656791
0.2134532393
0.2134404669
0.2134274398
0.2134142567
0.2134010329
0.2133878938
0.2133749642
0.2133623543
0.2133500875
0.2133382555
0.213326919
0.2133160176
0.2133054528
0.2132951091
0.2132848762
0.2132746713
0.2132644423
0.2132541778
0.2132438991
0.2132336533
0.2132235058
0.2132135331
0.2132038177
0.2131944425
0.213185487
0.2131770244
0.2131691199
0.2131618287
0.2131551938
0.2131492356
0.2131439491
0.213138821
0.2131337875
0.2131111303
0.2130718408
0.2130095881
0.2135009229
0.2134898021
0.2134782312
0.2134662302
0.213453835
0.2134411002
0.2134281007
0.2134149316
0.2134017054
0.2133885456
0.2133755763
0.2133629095
0.2133505786
0.2133386568
0.2133272302
0.2133162463
0.2133056124
0.213295216
0.2132849475
0.2132747195
0.2132644787
0.2132542091
0.2132439291
0.2132336836
0.2132235368
0.2132135647
0.2132038492
0.2131944734
0.2131855168
0.2131770527
0.2131691464
0.2131618531
0.2131552155
0.2131492538
0.2131439635
0.2131387893
0.213133729
0.2131098697
0.2130697875
0.2130061904
0.2135013101
0.2134902383
0.2134787163
0.2134667626
0.2134544111
0.2134417135
0.2134287418
0.2134155879
0.2134023614
0.2133891836
0.2133761782
0.2133634582
0.2133510685
0.2133390601
0.2133275456
0.2133164803
0.2133057772
0.2132953273
0.2132850213
0.2132747698
0.2132645162
0.2132542409
0.2132439592
0.213233714
0.2132235678
0.2132135962
0.2132038807
0.2131945043
0.2131855466
0.2131770809
0.2131691728
0.2131618775
0.2131552371
0.213149272
0.2131439778
0.2131387564
0.2131336688
0.2131085794
0.2130676859
0.2130027129
0.2135016843
0.2134906597
0.2134791852
0.2134672775
0.2134549686
0.2134423078
0.2134293641
0.2134162264
0.2134030014
0.2133898083
0.2133767698
0.2133640002
0.2133515566
0.213339465
0.2133278649
0.2133167191
0.213305947
0.2132954428
0.2132850983
0.2132748222
0.2132645549
0.2132542733
0.2132439896
0.2132337442
0.2132235987
0.2132136276
0.2132039121
0.2131945351
0.2131855763
0.2131771091
0.2131691993
0.2131619018
0.2131552586
0.2131492902
0.213143992
0.2131387225
0.2131336071
0.2131072585
0.2130655349
0.2129991538
0.2135020461
0.2134910672
0.2134796387
0.2134677759
0.2134555087
0.2134428842
0.2134299687
0.2134168479
0.213403626
0.2133904199
0.2133773514
0.2133645354
0.2133520427
0.2133398709
0.2133281875
0.2133169626
0.2133061216
0.2132955626
0.2132851785
0.2132748767
0.2132645948
0.2132543063
0.2132440201
0.2132337745
0.2132236295
0.2132136588
0.2132039434
0.2131945659
0.2131856059
0.2131771373
0.2131692257
0.2131619261
0.2131552802
0.2131493083
0.2131440062
0.2131386874
0.2131335436
0.2131059065
0.2130633332
0.2129955111
0.2135023962
0.2134914617
0.2134800778
0.2134682586
0.2134560323
0.2134434436
0.2134305563
0.2134174533
0.2134042359
0.2133910189
0.2133779231
0.2133650638
0.2133525266
0.2133402778
0.2133285132
0.2133172103
0.2133063007
0.2132956865
0.2132852619
0.2132749335
0.2132646361
0.2132543399
0.2132440508
0.2132338048
0.2132236603
0.21321369
0.2132039746
0.2131945965
0.2131856356
0.2131771655
0.213169252
0.2131619503
0.2131553017
0.2131493263
0.2131440202
0.2131386513
0.213133163
0.2131045226
0.2130610799
0.212991783
0.2135027354
0.2134918438
0.2134805033
0.2134687266
0.2134565402
0.2134439869
0.2134311277
0.2134180431
0.2134048315
0.2133916057
0.2133784851
0.2133655854
0.2133530057
0.2133406849
0.2133288416
0.2133174621
0.2133064842
0.2132958144
0.2132853486
0.2132749925
0.2132646787
0.2132543742
0.2132440818
0.2132338352
0.213223691
0.2132137211
0.2132040058
0.2131946272
0.2131856652
0.2131771936
0.2131692784
0.2131619745
0.2131553231
0.2131493443
0.2131440325
0.213138614
0.2131322817
0.2131031061
0.2130587736
0.2129879676
0.2135030642
0.2134922144
0.2134809159
0.2134691806
0.2134570334
0.2134445149
0.2134316839
0.2134186181
0.2134054135
0.2133921806
0.2133790376
0.2133661002
0.2133534693
0.2133410921
0.2133291723
0.2133177176
0.213306672
0.2132959463
0.2132854384
0.2132750538
0.2132647227
0.2132544092
0.2132441131
0.2132338656
0.2132237216
0.2132137522
0.2132040368
0.2131946577
0.2131856947
0.2131772217
0.2131693047
0.2131619987
0.2131553445
0.2131493623
0.2131440139
0.2131385755
0.2131313792
0.2131016562
0.2130564132
0.2129840627
0.2135033833
0.2134925739
0.2134813164
0.2134696214
0.2134575125
0.2134450283
0.2134322253
0.2134191789
0.2134059823
0.213392744
0.2133795807
0.2133666082
0.2133539288
0.2133414992
0.213329505
0.2133179765
0.2133068637
0.213296082
0.2132855314
0.2132751174
0.2132647682
0.2132544451
0.2132441448
0.2132338961
0.2132237522
0.2132137831
0.2132040678
0.2131946882
0.2131857242
0.2131772498
0.213169331
0.2131620228
0.2131553659
0.2131493802
0.2131439945
0.2131385358
0.2131304551
0.2131001721
0.2130539974
0.2129800665
0.2135036931
0.2134929229
0.2134817053
0.2134700497
0.2134579782
0.2134455279
0.2134327528
0.213419726
0.2134065384
0.2133932962
0.2133801147
0.2133671095
0.2133543842
0.2133419057
0.2133298394
0.2133182386
0.2133070592
0.2132962214
0.2132856275
0.2132751833
0.2132648152
0.2132544817
0.2132441768
0.2132339267
0.2132237828
0.213213814
0.2132040987
0.2131947187
0.2131857537
0.2131772779
0.2131693573
0.2131620469
0.2131553872
0.2131493981
0.2131439743
0.213138495
0.213129509
0.213098653
0.213051525
0.2129759767
0.213503994
0.2134932621
0.2134820833
0.2134704661
0.2134584313
0.2134460142
0.213433267
0.2134202602
0.2134070823
0.2133938376
0.2133806398
0.2133676041
0.2133548352
0.2133423115
0.2133301753
0.2133185036
0.2133072584
0.2132963644
0.2132857267
0.2132752514
0.2132648636
0.2132545192
0.2132442092
0.2132339574
0.2132238133
0.2132138448
0.2132041295
0.2131947491
0.2131857831
0.2131773059
0.2131693836
0.213162071
0.2131554085
0.2131494159
0.2131439533
0.2131384528
0.2131285402
0.2130970982
0.2130489946
0.2129717913
0.2135042867
0.2134935919
0.2134824509
0.2134708712
0.2134588723
0.213446488
0.2134337684
0.2134207818
0.2134076145
0.2133943684
0.2133811561
0.213368092
0.213355282
0.2133427164
0.2133305123
0.2133187713
0.213307461
0.2132965109
0.213285829
0.2132753219
0.2132649136
0.2132545576
0.2132442421
0.2132339882
0.2132238439
0.2132138755
0.2132041603
0.2131947794
0.2131858125
0.2131773339
0.2131694098
0.2131620951
0.2131554298
0.2131494337
0.2131439315
0.2131384095
0.2131275484
0.2130955068
0.213046405
0.2129675081
0.2135045714
0.2134939128
0.2134828086
0.2134712655
0.2134593018
0.2134469497
0.2134342575
0.2134212913
0.2134081352
0.2133948891
0.2133816638
0.2133685734
0.2133557244
0.2133431201
0.2133308503
0.2133190414
0.2133076668
0.2132966607
0.2132859342
0.2132753947
0.2132649652
0.2132545969
0.2132442754
0.2132340193
0.2132238745
0.2132139062
0.213204191
0.2131948096
0.2131858418
0.2131773619
0.213169436
0.2131621191
0.213155451
0.2131494514
0.2131439088
0.2131383648
0.2131265329
0.213093878
0.2130437548
0.2129631248
0.2135048486
0.2134942252
0.2134831569
0.2134716496
0.2134597204
0.2134474
0.213434735
0.2134217894
0.2134086451
0.2133953999
0.2133821632
0.2133690484
0.2133561623
0.2133435225
0.2133311891
0.2133193138
0.2133078757
0.2132968138
0.2132860423
0.2132754698
0.2132650184
0.2132546372
0.2132443092
0.2132340504
0.213223905
0.2132139368
0.2132042216
0.2131948399
0.2131858711
0.2131773899
0.2131694622
0.2131621431
0.2131554722
0.2131494691
0.2131438852
0.2131383188
0.2131254934
0.2130922109
0.2130410426
0.2129586392
0.2135051185
0.2134945295
0.2134834962
0.2134720238
0.2134601284
0.2134478393
0.2134352013
0.2134222763
0.2134091443
0.2133959011
0.2133826544
0.2133695169
0.2133565959
0.2133439233
0.2133315283
0.2133195882
0.2133080875
0.2132969701
0.2132861533
0.2132755472
0.2132650732
0.2132546785
0.2132443434
0.2132340819
0.2132239357
0.2132139674
0.2132042522
0.21319487
0.2131859004
0.2131774178
0.2131694884
0.213162167
0.2131554934
0.2131494867
0.2131438607
0.2131382715
0.2131244292
0.2130905047
0.213038267
0.2129540489
0.2135053816
0.2134948261
0.213483827
0.2134723888
0.2134605265
0.2134482681
0.2134356568
0.2134227526
0.2134096334
0.213396393
0.2133831376
0.2133699791
0.213357025
0.2133443225
0.2133318678
0.2133198644
0.213308302
0.2132971293
0.2132862671
0.2132756269
0.2132651296
0.2132547207
0.2132443783
0.2132341135
0.2132239663
0.213213998
0.2132042827
0.2131949001
0.2131859296
0.2131774457
0.2131695145
0.213162191
0.2131555145
0.2131495042
0.2131438353
0.2131382228
0.2131233398
0.2130887584
0.2130354265
0.2129493516
0.2135056382
0.2134951154
0.2134841496
0.2134727448
0.213460915
0.2134486869
0.213436102
0.2134232187
0.2134101127
0.2133968759
0.2133836131
0.213370435
0.2133574497
0.2133447199
0.2133322075
0.2133201422
0.2133085191
0.2132972915
0.2132863837
0.2132757088
0.2132651876
0.2132547641
0.2132444137
0.2132341454
0.2132239971
0.2132140285
0.2132043131
0.2131949302
0.2131859588
0.2131774736
0.2131695407
0.2131622149
0.2131555355
0.2131495217
0.213143809
0.2131381727
0.2131222247
0.2130869712
0.2130325197
0.2129445449
0.2135058886
0.2134953976
0.2134844644
0.2134730923
0.2134612943
0.213449096
0.2134365373
0.2134236749
0.2134105824
0.2133973501
0.2133840809
0.2133708849
0.21335787
0.2133451154
0.2133325471
0.2133204214
0.2133087385
0.2132974564
0.2132865029
0.2132757929
0.2132652473
0.2132548084
0.2132444497
0.2132341775
0.2132240279
0.2132140591
0.2132043435
0.2131949602
0.2131859879
0.2131775014
0.2131695668
0.2131622387
0.2131555566
0.2131495391
0.2131437817
0.2131381212
0.2131210832
0.2130851421
0.213029545
0.2129396262
0.2135061329
0.213495673
0.2134847718
0.2134734316
0.2134616649
0.2134494959
0.2134369631
0.2134241215
0.213411043
0.2133978157
0.2133845413
0.2133713287
0.2133582858
0.2133455088
0.2133328865
0.2133207019
0.2133089602
0.213297624
0.2132866248
0.2132758793
0.2132653087
0.2132548539
0.2132444863
0.2132342099
0.2132240587
0.2132140896
0.2132043739
0.2131949901
0.213186017
0.2131775293
0.2131695929
0.2131622626
0.2131555776
0.2131495565
0.2131437535
0.2131380682
0.2131199148
0.2130832702
0.213026501
0.2129345931
0.2135063716
0.2134959421
0.213485072
0.2134737632
0.2134620271
0.2134498869
0.2134373798
0.213424559
0.2134114947
0.2133982732
0.2133849945
0.2133717665
0.2133586972
0.2133458839
0.2133332255
0.2133209836
0.213309184
0.2132977942
0.2132867492
0.2132759679
0.2132653717
0.2132549005
0.2132445235
0.2132342426
0.2132240897
0.2132141201
0.2132044042
0.2131950201
0.2131860461
0.2131775571
0.2131696189
0.2131622864
0.2131555985
0.2131495737
0.2131437243
0.2131380138
0.2131187188
0.2130813545
0.213023386
0.2129294429
0.2135066047
0.213496205
0.2134853653
0.2134740872
0.2134623812
0.2134502694
0.2134377877
0.2134249877
0.2134119378
0.2133987226
0.2133854405
0.2133721986
0.2133591043
0.2133462559
0.2133335641
0.2133212662
0.2133094098
0.2132979668
0.2132868761
0.2132760586
0.2132654363
0.2132549482
0.2132445614
0.2132342757
0.2132241208
0.2132141506
0.2132044345
0.2131950499
0.2131860751
0.2131775848
0.213169645
0.2131623102
0.2131556195
0.2131495909
0.213143694
0.2131379578
0.2131174947
0.213079394
0.2130201986
0.2129241732
0.2135068326
0.2134964619
0.2134856521
0.213474404
0.2134627275
0.2134506437
0.2134381871
0.2134254079
0.2134123726
0.2133991643
0.2133858797
0.2133726249
0.213359507
0.2133466252
0.2133339021
0.2133215495
0.2133096373
0.2132981418
0.2132870054
0.2132761515
0.2132655026
0.213254997
0.2132446
0.2132343091
0.2132241521
0.2132141811
0.2132044647
0.2131950797
0.2131861041
0.2131776126
0.213169671
0.213162334
0.2131556403
0.2131496081
0.2131436627
0.2131379003
0.2131162418
0.2130773878
0.213016937
0.2129187788
0.2135070555
0.2134967132
0.2134859326
0.2134747139
0.2134630664
0.2134510101
0.2134385784
0.2134258198
0.2134127994
0.2133995984
0.2133863122
0.2133730455
0.2133599054
0.2133469915
0.2133342393
0.2133218336
0.2133098666
0.213298319
0.213287137