/*--------------------------------*- C++ -*----------------------------------*\
| =========                 |                                                 |
| \\      /  F ield         | OpenFOAM: The Open Source CFD Toolbox           |
|  \\    /   O peration     | Version:  v2006                                 |
|   \\  /    A nd           | Website:  www.openfoam.com                      |
|    \\/     M anipulation  |                                                 |
\*---------------------------------------------------------------------------*/
FoamFile
{
    version     2.0;
    format      ascii;
    class       volScalarField;
    location    "0.09";
    object      OH;
}
// * * * * * * * * * * * * * * * * * * * * * * * * * * * * * * * * * * * * * //

dimensions      [0 0 0 0 0 0 0];


internalField   nonuniform List<scalar> 
168000
(
2.619461949e-13
3.564704457e-13
4.450742128e-13
5.448154204e-13
6.434514673e-13
7.312301111e-13
8.216450438e-13
9.117561222e-13
9.737095559e-13
1.022924202e-12
1.065289331e-12
1.079900581e-12
1.073134732e-12
1.056815251e-12
1.009953023e-12
9.466535293e-13
8.706306866e-13
7.699636939e-13
6.596342369e-13
5.359905531e-13
4.025022356e-13
2.66600262e-13
2.444987487e-13
2.484243322e-13
2.523467109e-13
2.561401901e-13
2.599284961e-13
2.634433318e-13
2.669049304e-13
2.701205321e-13
2.731011585e-13
2.759176807e-13
2.784202656e-13
2.806371035e-13
2.826299548e-13
2.843801202e-13
2.946202052e-13
7.552362623e-13
1.15146805e-10
5.123160099e-10
2.619185334e-13
3.560623682e-13
4.097643373e-13
4.675714971e-13
5.371020796e-13
6.157371447e-13
7.045857863e-13
7.972951246e-13
8.778012125e-13
9.463133813e-13
1.001996844e-12
1.033833906e-12
1.042491836e-12
1.032636827e-12
9.959902623e-13
9.386159781e-13
8.637926245e-13
7.681075926e-13
6.576025699e-13
5.357090932e-13
4.026653606e-13
2.668670676e-13
2.444830751e-13
2.484138555e-13
2.523294568e-13
2.561336374e-13
2.599064745e-13
2.634376023e-13
2.668900383e-13
2.701083093e-13
2.730946024e-13
2.759051409e-13
2.784104297e-13
2.806313694e-13
2.826243795e-13
2.843738723e-13
3.126525616e-13
7.808824902e-13
1.277315833e-10
5.333874219e-10
2.535583423e-13
3.524674047e-13
3.916180495e-13
4.213519803e-13
4.63592252e-13
5.244172117e-13
6.036666709e-13
6.944710251e-13
7.843877734e-13
8.666801136e-13
9.357242606e-13
9.829961049e-13
1.005972694e-12
1.005603062e-12
9.785501332e-13
9.277722888e-13
8.562574521e-13
7.643375649e-13
6.554100383e-13
5.347863045e-13
4.026786204e-13
2.670082491e-13
2.444682292e-13
2.484025178e-13
2.523134462e-13
2.561253297e-13
2.598865227e-13
2.634303414e-13
2.668758109e-13
2.70096276e-13
2.730874367e-13
2.758930272e-13
2.784006851e-13
2.806254642e-13
2.826187703e-13
2.843677485e-13
3.309227754e-13
8.070948433e-13
1.406306922e-10
5.549342481e-10
2.47567915e-13
3.497015874e-13
3.840425791e-13
3.962587433e-13
4.155623517e-13
4.558612536e-13
5.204229205e-13
6.04220653e-13
6.965510706e-13
7.874074367e-13
8.677520693e-13
9.285872821e-13
9.649598534e-13
9.753424744e-13
9.579287195e-13
9.143635435e-13
8.474572006e-13
7.592752705e-13
6.526899462e-13
5.333897314e-13
4.024734157e-13
2.670389719e-13
2.444539559e-13
2.483906001e-13
2.522983214e-13
2.56115725e-13
2.598681655e-13
2.634218986e-13
2.668621014e-13
2.700844091e-13
2.730797588e-13
2.758812732e-13
2.783910321e-13
2.806194068e-13
2.82613129e-13
2.843617411e-13
3.494597473e-13
8.338750068e-13
1.538488569e-10
5.769730533e-10
2.439276384e-13
3.489061707e-13
3.8318974e-13
3.853280147e-13
3.867448109e-13
4.070788051e-13
4.544367983e-13
5.270873525e-13
6.163216471e-13
7.109377283e-13
7.996092945e-13
8.71860651e-13
9.205251357e-13
9.419827327e-13
9.343697575e-13
8.985462092e-13
8.3713013e-13
7.529994356e-13
6.492603228e-13
5.315326895e-13
4.019332314e-13
2.669566627e-13
2.444400853e-13
2.483782976e-13
2.522838261e-13
2.561051657e-13
2.598510386e-13
2.634125445e-13
2.668487964e-13
2.700726873e-13
2.730716508e-13
2.758698236e-13
2.783814695e-13
2.806132142e-13
2.826074577e-13
2.843558429e-13
3.682884937e-13
8.612266929e-13
1.673914128e-10
5.995198382e-10
2.417848284e-13
3.499697308e-13
3.86715454e-13
3.838376311e-13
3.721017651e-13
3.746451459e-13
4.041685475e-13
4.629484671e-13
5.448821766e-13
6.39013108e-13
7.327474635e-13
8.14030084e-13
8.736151048e-13
9.058900975e-13
9.081310595e-13
8.804496847e-13
8.251679134e-13
7.455181111e-13
6.450233678e-13
5.29179658e-13
4.010528641e-13
2.667120621e-13
2.44426504e-13
2.483657451e-13
2.522697777e-13
2.560939071e-13
2.598348626e-13
2.634024888e-13
2.668358087e-13
2.700610903e-13
2.73063182e-13
2.758586326e-13
2.783719947e-13
2.806069018e-13
2.826017586e-13
2.843500477e-13
3.874309345e-13
8.891552837e-13
1.812642269e-10
6.225901868e-10
2.406205342e-13
3.524488179e-13
3.930633278e-13
3.885539266e-13
3.677535655e-13
3.553032045e-13
3.676693963e-13
4.111607447e-13
4.827437015e-13
5.728082152e-13
6.684017191e-13
7.562080107e-13
8.251048911e-13
8.675446006e-13
8.795022734e-13
8.602124588e-13
8.115454015e-13
7.368153729e-13
6.399227008e-13
5.263040211e-13
3.998069062e-13
2.662895507e-13
2.444131374e-13
2.48353036e-13
2.522560468e-13
2.560821398e-13
2.598194239e-13
2.633918934e-13
2.66823071e-13
2.700496e-13
2.730544106e-13
2.758476622e-13
2.783626041e-13
2.806004834e-13
2.825960341e-13
2.843443499e-13
4.069065259e-13
9.176675476e-13
1.954736367e-10
6.461993908e-10
2.401296561e-13
3.559348769e-13
4.012333502e-13
3.974377137e-13
3.707086305e-13
3.462119715e-13
3.428574353e-13
3.706486097e-13
4.299000676e-13
5.13030748e-13
6.075438072e-13
6.993685629e-13
7.758071861e-13
8.274676271e-13
8.488041884e-13
8.379951418e-13
7.962884662e-13
7.268782015e-13
6.339225168e-13
5.228595874e-13
3.981720922e-13
2.656619543e-13
2.443999356e-13
2.483402345e-13
2.522425427e-13
2.560700052e-13
2.598045586e-13
2.63380884e-13
2.668105317e-13
2.700382003e-13
2.730453858e-13
2.758368804e-13
2.783532936e-13
2.805939712e-13
2.825902867e-13
2.843387446e-13
4.267327698e-13
9.467714078e-13
2.100263982e-10
6.703625559e-10
2.401115813e-13
3.60102604e-13
4.105390491e-13
4.0901876e-13
3.789906676e-13
3.450590396e-13
3.277638713e-13
3.40216869e-13
3.860113583e-13
4.600160427e-13
5.508814116e-13
6.443277795e-13
7.264565081e-13
7.861904684e-13
8.163796786e-13
8.139821116e-13
7.794583429e-13
7.157070224e-13
6.270009728e-13
5.188097649e-13
3.961269573e-13
2.648040195e-13
2.443868712e-13
2.483273853e-13
2.52229202e-13
2.560576087e-13
2.597901413e-13
2.63369558e-13
2.667981507e-13
2.700268769e-13
2.73036149e-13
2.75826261e-13
2.783440589e-13
2.805873764e-13
2.82584519e-13
2.843332274e-13
4.469256261e-13
9.764757682e-13
2.249296441e-10
6.950946888e-10
2.404269689e-13
3.647097363e-13
4.20512565e-13
4.223089866e-13
3.909169248e-13
3.497980226e-13
3.206100056e-13
3.185924169e-13
3.504665433e-13
4.138061743e-13
4.988807084e-13
5.917392962e-13
6.777004311e-13
7.442281094e-13
7.825830111e-13
7.883778685e-13
7.61142892e-13
7.033189429e-13
6.191474715e-13
5.141238931e-13
3.936418121e-13
2.636912324e-13
2.443739285e-13
2.4831452e-13
2.522159814e-13
2.560450284e-13
2.597760759e-13
2.633579908e-13
2.667858969e-13
2.700156177e-13
2.730267351e-13
2.758157817e-13
2.783348954e-13
2.805807089e-13
2.825787337e-13
2.843277945e-13
4.674998465e-13
1.006790377e-12
2.401908503e-10
7.204107711e-10
2.409771276e-13
3.695811964e-13
4.308356551e-13
4.36641492e-13
4.053911442e-13
3.592025355e-13
3.19914917e-13
3.045496125e-13
3.225642155e-13
3.742336471e-13
4.518018016e-13
5.421010966e-13
6.300946016e-13
7.020623929e-13
7.477680248e-13
7.614013984e-13
7.414507135e-13
6.897477804e-13
6.10361808e-13
5.087796956e-13
3.907082382e-13
2.623010795e-13
2.443610872e-13
2.4830166e-13
2.522028513e-13
2.560323223e-13
2.597622886e-13
2.63346241e-13
2.667737462e-13
2.700044122e-13
2.730171734e-13
2.758054239e-13
2.783257986e-13
2.805739777e-13
2.825729332e-13
2.843224424e-13
4.884692454e-13
1.037725734e-12
2.5581781e-10
7.463258215e-10
2.416915204e-13
3.745919004e-13
4.412897937e-13
4.515509453e-13
4.215684493e-13
3.719497991e-13
3.242383644e-13
2.969399711e-13
3.015364477e-13
3.410102648e-13
4.097378366e-13
4.957690007e-13
5.84101297e-13
6.601353365e-13
7.122736169e-13
7.332809314e-13
7.205064742e-13
6.750426823e-13
6.00653606e-13
5.027616687e-13
3.873044268e-13
2.606142053e-13
2.44348344e-13
2.482888198e-13
2.52189792e-13
2.560195333e-13
2.597487229e-13
2.633343543e-13
2.667616799e-13
2.699932516e-13
2.730074886e-13
2.75795172e-13
2.783167642e-13
2.805671907e-13
2.825671202e-13
2.843171683e-13
5.098469296e-13
1.069293051e-12
2.718186143e-10
7.7285495e-10
2.425193264e-13
3.796531821e-13
4.517254615e-13
4.66715723e-13
4.388470942e-13
3.871862001e-13
3.327612781e-13
2.947795237e-13
2.866089177e-13
3.136919927e-13
3.726430744e-13
4.529731535e-13
5.400911945e-13
6.188349326e-13
6.764255534e-13
7.042475178e-13
6.98446639e-13
6.592661297e-13
5.900418424e-13
4.96061518e-13
3.83416011e-13
2.586136174e-13
2.443356948e-13
2.482760084e-13
2.521767906e-13
2.560066936e-13
2.597353355e-13
2.63322366e-13
2.667496833e-13
2.699821285e-13
2.729977016e-13
2.757850128e-13
2.783077879e-13
2.805603551e-13
2.825612972e-13
2.843119694e-13
5.316454912e-13
1.101504286e-12
2.882016399e-10
8.000134036e-10
2.434236669e-13
3.847027204e-13
4.620409602e-13
4.819125372e-13
4.567853762e-13
4.042077776e-13
3.444553376e-13
2.970339835e-13
2.77030973e-13
2.918395955e-13
3.403769634e-13
4.138382686e-13
4.983496046e-13
5.784962277e-13
6.4052673e-13
6.745300293e-13
6.754155125e-13
6.424917101e-13
5.785542267e-13
4.886778596e-13
3.790317304e-13
2.562821381e-13
2.443231385e-13
2.482632466e-13
2.5216384e-13
2.559938268e-13
2.597220931e-13
2.633103037e-13
2.667377449e-13
2.699710367e-13
2.7298783e-13
2.757749354e-13
2.782988656e-13
2.805534774e-13
2.825554665e-13
2.843068437e-13
5.538771706e-13
1.134372306e-12
3.049755436e-10
8.278166068e-10
2.443775964e-13
3.896970796e-13
4.721681806e-13
4.969872762e-13
4.750623375e-13
4.224840623e-13
3.586476014e-13
3.031479219e-13
2.721410842e-13
2.749775206e-13
3.127453806e-13
3.784032414e-13
4.590846957e-13
5.394016955e-13
6.048523188e-13
6.443512308e-13
6.515614638e-13
6.248018519e-13
5.662264188e-13
4.806158626e-13
3.741439593e-13
2.53607003e-13
2.443106737e-13
2.482505264e-13
2.521509353e-13
2.559809505e-13
2.5970897e-13
2.632981889e-13
2.667258557e-13
2.699599712e-13
2.729778884e-13
2.757649301e-13
2.782899937e-13
2.805465634e-13
2.825496306e-13
2.843017893e-13
5.765539747e-13
1.167911285e-12
3.221492649e-10
8.562801979e-10
2.453613322e-13
3.946064464e-13
4.820626459e-13
5.11834575e-13
4.934443412e-13
4.416045914e-13
3.747527984e-13
3.123284434e-13
2.713059026e-13
2.626202829e-13
2.894660302e-13
3.46633399e-13
4.224362776e-13
5.017832714e-13
5.696504449e-13
6.139204756e-13
6.270340908e-13
6.062856772e-13
5.531011191e-13
4.718868084e-13
3.687489011e-13
2.505796559e-13
2.442982997e-13
2.482378577e-13
2.521380743e-13
2.559680781e-13
2.596959466e-13
2.632860384e-13
2.667140086e-13
2.699489278e-13
2.729678894e-13
2.757549891e-13
2.782811685e-13
2.805396182e-13
2.825437918e-13
2.842968046e-13
5.996876738e-13
1.585376271e-12
3.397320423e-10
8.854200632e-10
2.463603086e-13
3.994108482e-13
4.91696584e-13
5.263837427e-13
5.11762178e-13
4.612545865e-13
3.923031633e-13
3.240032411e-13
2.738033141e-13
2.542925183e-13
2.702652556e-13
3.184432425e-13
3.884860152e-13
4.658254873e-13
5.351410099e-13
5.834310656e-13
6.019816433e-13
5.870369769e-13
5.392270641e-13
4.625075614e-13
3.628462497e-13
2.471902896e-13
2.442860158e-13
2.48225244e-13
2.521252561e-13
2.559552194e-13
2.596830079e-13
2.632738651e-13
2.667021982e-13
2.699379029e-13
2.729578436e-13
2.757451055e-13
2.782723868e-13
2.805326465e-13
2.825379523e-13
2.842918881e-13
6.232895249e-13
1.262839796e-11
3.577334429e-10
9.152523646e-10
2.473637847e-13
4.040973798e-13
5.010541042e-13
5.405888961e-13
5.298944042e-13
4.811942218e-13
4.109297765e-13
3.377344447e-13
2.794052668e-13
2.495892415e-13
2.54848376e-13
2.937066068e-13
3.572668223e-13
4.316689787e-13
5.015103346e-13
5.53064623e-13
5.76548563e-13
5.671523191e-13
5.24657976e-13
4.525000166e-13
3.564392866e-13
2.434328448e-13
2.442738211e-13
2.482126883e-13
2.521124807e-13
2.559423817e-13
2.596701421e-13
2.632616794e-13
2.666904203e-13
2.699268936e-13
2.729477597e-13
2.757352734e-13
2.782636456e-13
2.805256525e-13
2.825321141e-13
2.842870385e-13
6.473711766e-13
2.393684517e-11
3.761633608e-10
9.457935413e-10
2.483638605e-13
4.086582867e-13
5.101276662e-13
5.544218722e-13
5.477547117e-13
5.012398851e-13
4.303316307e-13
3.531100502e-13
2.875160977e-13
2.480953038e-13
2.429138981e-13
2.72286899e-13
3.287725099e-13
3.99415236e-13
4.689156496e-13
5.229862421e-13
5.508736548e-13
5.467293381e-13
5.094515033e-13
4.418905174e-13
3.495347414e-13
2.403126675e-13
2.442617142e-13
2.482001926e-13
2.520997466e-13
2.559295704e-13
2.596573405e-13
2.632494893e-13
2.666786713e-13
2.699158978e-13
2.729376454e-13
2.75725488e-13
2.782549421e-13
2.805186399e-13
2.825262794e-13
2.842822548e-13
6.719441392e-13
3.551655339e-11
3.950318756e-10
9.770602976e-10
2.493547539e-13
4.130895216e-13
5.189156099e-13
5.678671853e-13
5.652828502e-13
5.212516229e-13
4.502668026e-13
3.697910373e-13
2.977462401e-13
2.493376953e-13
2.341558025e-13
2.53985332e-13
3.029604304e-13
3.691309909e-13
4.374868074e-13
4.933434814e-13
5.250887679e-13
5.258651951e-13
4.936681819e-13
4.307092565e-13
3.4214257e-13
2.403012309e-13
2.442496931e-13
2.481877591e-13
2.52087063e-13
2.559167903e-13
2.596445962e-13
2.63237301e-13
2.666669484e-13
2.699049138e-13
2.729275068e-13
2.757157448e-13
2.782462738e-13
2.805116123e-13
2.8252045e-13
2.842775361e-13
6.97019821e-13
4.737354701e-11
4.143492606e-10
1.009069535e-09
2.503322691e-13
4.17389697e-13
5.274203784e-13
5.809184192e-13
5.824379996e-13
5.411235541e-13
4.705422633e-13
3.874996786e-13
3.097828366e-13
2.531484958e-13
2.283090632e-13
2.386333844e-13
2.797655005e-13
3.408535254e-13
4.07328216e-13
4.642660312e-13
4.993181481e-13
5.046551356e-13
4.7737045e-13
4.18989674e-13
3.342756535e-13
2.402898761e-13
2.442377556e-13
2.481753886e-13
2.520744227e-13
2.559040444e-13
2.59631904e-13
2.632251194e-13
2.666552494e-13
2.698939405e-13
2.729173492e-13
2.757060401e-13
2.782376383e-13
2.805045725e-13
2.825146278e-13
2.842728816e-13
7.226095688e-13
5.951403637e-11
4.341260101e-10
1.041838181e-09
2.512934038e-13
4.215593225e-13
5.356472373e-13
5.935756207e-13
5.991938217e-13
5.607761797e-13
4.910035931e-13
4.06001988e-13
3.23327371e-13
2.591250441e-13
2.250981488e-13
2.260418766e-13
2.591023723e-13
3.145951022e-13
3.785212719e-13
4.358681276e-13
4.736753486e-13
4.831914125e-13
4.606217616e-13
4.06767877e-13
3.259496446e-13
2.40278592e-13
2.442258975e-13
2.481630816e-13
2.520618298e-13
2.558913352e-13
2.596192598e-13
2.632129485e-13
2.666435725e-13
2.698829768e-13
2.729071772e-13
2.756963708e-13
2.782290335e-13
2.804975235e-13
2.825088148e-13
2.985203645e-13
7.487247031e-13
7.194440902e-11
4.543728143e-10
1.075383891e-09
2.522360584e-13
4.256002462e-13
5.436033376e-13
6.058434217e-13
6.155347635e-13
5.801505034e-13
5.115275946e-13
4.251027025e-13
3.381245905e-13
2.669928265e-13
2.242721304e-13
2.160196134e-13
2.40875813e-13
2.903474318e-13
3.511266923e-13
4.082495742e-13
4.482617301e-13
4.615629927e-13
4.434858273e-13
3.940820785e-13
3.171826412e-13
2.402673663e-13
2.442141151e-13
2.481508383e-13
2.520492854e-13
2.558786646e-13
2.596066607e-13
2.632007912e-13
2.666319163e-13
2.698720221e-13
2.728969944e-13
2.75686734e-13
2.782204576e-13
2.804904676e-13
2.825030127e-13
3.166477377e-13
7.753765823e-13
8.46712284e-11
4.751005881e-10
1.109724825e-09
2.531588171e-13
4.295152524e-13
5.512970805e-13
6.177295647e-13
6.314533419e-13
5.992035201e-13
5.320164397e-13
4.446396523e-13
3.539553404e-13
2.764965994e-13
2.254918295e-13
2.083729349e-13
2.249748963e-13
2.680844391e-13
3.25186351e-13
3.81493376e-13
4.231704641e-13
4.398543543e-13
4.260258802e-13
3.809720629e-13
3.079948833e-13
2.402561853e-13
2.442024035e-13
2.48138658e-13
2.520367905e-13
2.558660342e-13
2.595941043e-13
2.631886499e-13
2.666202797e-13
2.698610758e-13
2.728868042e-13
2.756771272e-13
2.782119087e-13
2.804834072e-13
2.82497223e-13
3.351581973e-13
8.025766194e-13
9.770123091e-11
4.963204862e-10
1.144879537e-09
2.540607866e-13
4.333077638e-13
5.587376525e-13
6.292439219e-13
6.469480175e-13
6.17904693e-13
5.523928876e-13
4.644787969e-13
3.706349803e-13
2.874394155e-13
2.287262169e-13
2.029407152e-13
2.112834119e-13
2.477659707e-13
3.007254436e-13
3.556666842e-13
3.984865991e-13
4.181452206e-13
4.083040671e-13
3.674786848e-13
2.98408451e-13
2.402450342e-13
2.441907567e-13
2.481265398e-13
2.520243456e-13
2.55853445e-13
2.595815889e-13
2.631765265e-13
2.666086618e-13
2.698501375e-13
2.728766092e-13
2.756675483e-13
2.782033854e-13
2.804763444e-13
2.824914475e-13
3.540596099e-13
8.303363046e-13
1.110413245e-10
5.180439107e-10
1.180866979e-09
2.549414656e-13
4.369816084e-13
5.659346227e-13
6.403977967e-13
6.620216326e-13
6.362331712e-13
5.725962144e-13
4.845087317e-13
3.880020744e-13
2.996193174e-13
2.336741934e-13
2.006337636e-13
2.050069853e-13
2.293411459e-13
2.777548971e-13
3.308238071e-13
3.742853256e-13
3.965101426e-13
3.903809226e-13
3.536434059e-13
2.88446961e-13
2.402338971e-13
2.441791683e-13
2.481144822e-13
2.520119514e-13
2.55840898e-13
2.59569113e-13
2.631644225e-13
2.66597062e-13
2.698392071e-13
2.728664116e-13
2.756579955e-13
2.781948862e-13
2.804692811e-13
2.824856876e-13
3.733599776e-13
8.586672228e-13
1.246985883e-10
5.402825167e-10
1.217706516e-09
2.558006511e-13
4.405408569e-13
5.728977088e-13
6.512033528e-13
6.766802181e-13
6.541756255e-13
5.925790218e-13
5.046370196e-13
4.059174244e-13
3.128607107e-13
2.401557808e-13
2.004033652e-13
2.04824288e-13
2.127501937e-13
2.562734634e-13
3.070071999e-13
3.506324179e-13
3.750182967e-13
3.723149291e-13
3.395078735e-13
2.781352765e-13
2.402227572e-13
2.441676309e-13
2.481024832e-13
2.519996079e-13
2.558283937e-13
2.595566756e-13
2.631523391e-13
2.665854798e-13
2.698282844e-13
2.728562135e-13
2.75648467e-13
2.781864098e-13
2.804622189e-13
2.82479945e-13
3.930674363e-13
8.875810734e-13
1.386802737e-10
5.630482181e-10
1.255417939e-09
2.56638364e-13
4.439897034e-13
5.796366137e-13
6.616731973e-13
6.909320894e-13
6.717245666e-13
6.123047177e-13
5.247872271e-13
4.242616286e-13
3.270092828e-13
2.480007582e-13
2.001730782e-13
2.046397253e-13
2.089027861e-13
2.362698242e-13
2.842485874e-13
3.275846462e-13
3.537334869e-13
3.541621494e-13
3.251135384e-13
2.674992253e-13
2.40211597e-13
2.441561366e-13
2.480905403e-13
2.519873151e-13
2.558159318e-13
2.595442759e-13
2.631402772e-13
2.665739146e-13
2.698173694e-13
2.728460163e-13
2.756389613e-13
2.781779552e-13
2.804551596e-13
2.82474221e-13
4.131902602e-13
9.170896808e-13
1.529938049e-10
5.863531935e-10
1.294021473e-09
2.574547922e-13
4.47332369e-13
5.861608453e-13
6.718201415e-13
7.047871694e-13
6.888770323e-13
6.317454862e-13
5.448964042e-13
4.429326356e-13
3.419304113e-13
2.570629785e-13
1.999432799e-13
2.044536723e-13
2.087603064e-13
2.177255277e-13
2.625700875e-13
3.051900879e-13
3.327143955e-13
3.359758877e-13
3.105013144e-13
2.565653317e-13
2.40200398e-13
2.441446764e-13
2.480786504e-13
2.519750724e-13
2.558035119e-13
2.595319132e-13
2.631282375e-13
2.665623663e-13
2.698064623e-13
2.728358215e-13
2.756294773e-13
2.781695213e-13
2.804481046e-13
2.824685171e-13
4.337368638e-13
9.4720501e-13
1.676467807e-10
6.102098924e-10
1.333537792e-09
2.582502475e-13
4.505730456e-13
5.924796732e-13
6.816569469e-13
7.182564623e-13
7.056335527e-13
6.508806288e-13
5.649128827e-13
4.618431544e-13
3.575054294e-13
2.672077265e-13
2.031066949e-13
2.042664736e-13
2.086154129e-13
2.12781502e-13
2.419850613e-13
2.834892804e-13
3.120141006e-13
3.17806272e-13
2.957112866e-13
2.453605687e-13
2.401891415e-13
2.441332412e-13
2.480668101e-13
2.519628795e-13
2.5579114e-13
2.595195872e-13
2.631162206e-13
2.665508345e-13
2.697955631e-13
2.728256302e-13
2.756200135e-13
2.781611072e-13
2.804410554e-13
2.824628348e-13
4.547158057e-13
9.77939174e-13
1.826469762e-10
6.346310407e-10
1.373988026e-09
2.590251335e-13
4.537158547e-13
5.986020766e-13
6.911961711e-13
7.31351657e-13
7.21997332e-13
6.696952078e-13
5.84794406e-13
4.809184162e-13
3.736290238e-13
2.783082515e-13
2.07597617e-13
2.040784402e-13
2.084683878e-13
2.126728589e-13
2.224999131e-13
2.625173563e-13
2.916779615e-13
2.997005723e-13
2.807825086e-13
2.362439794e-13
2.401778082e-13
2.44121821e-13
2.480550155e-13
2.519507352e-13
2.55778809e-13
2.595072975e-13
2.63104227e-13
2.665393191e-13
2.697846719e-13
2.728154434e-13
2.756105692e-13
2.781527121e-13
2.804340131e-13
2.824571754e-13
4.761357934e-13
1.009304447e-12
1.980023451e-10
6.596296475e-10
1.415393779e-09
2.59779919e-13
4.567648153e-13
6.045367009e-13
7.004500679e-13
7.44084829e-13
7.379736047e-13
6.881789472e-13
6.045065977e-13
5.000944614e-13
3.902082218e-13
2.902504886e-13
2.13273208e-13
2.038898609e-13
2.083194997e-13
2.125616709e-13
2.16648564e-13
2.423025828e-13
2.717462405e-13
2.817029288e-13
2.657527616e-13
2.362315184e-13
2.401663783e-13
2.441104052e-13
2.480432619e-13
2.519386383e-13
2.55766521e-13
2.594950435e-13
2.63092257e-13
2.665278199e-13
2.69773789e-13
2.728052619e-13
2.756011432e-13
2.781443354e-13
2.80426979e-13
2.824515404e-13
4.980056888e-13
1.041313276e-12
2.137210221e-10
6.852190106e-10
1.457777135e-09
2.605151186e-13
4.59723821e-13
6.102918345e-13
7.09430519e-13
7.564682171e-13
7.53569128e-13
7.063253444e-13
6.240217038e-13
5.19316715e-13
4.07161228e-13
3.029317642e-13
2.200226382e-13
2.037009999e-13
2.081689987e-13
2.124481377e-13
2.165675576e-13
2.228660881e-13
2.522557665e-13
2.638543457e-13
2.5065826e-13
2.362187254e-13
2.401548322e-13
2.440989829e-13
2.480315445e-13
2.51926587e-13
2.557542757e-13
2.59482825e-13
2.630803109e-13
2.665163368e-13
2.697629144e-13
2.727950863e-13
2.755917348e-13
2.781359763e-13
2.804199543e-13
2.82445931e-13
5.203345167e-13
1.073978296e-12
2.298113261e-10
7.114127234e-10
1.501160672e-09
2.612312764e-13
4.625966273e-13
6.158753995e-13
7.181489887e-13
7.68514057e-13
7.687917823e-13
7.241309456e-13
6.433175412e-13
5.385387566e-13
4.244163493e-13
3.162601692e-13
2.277412472e-13
2.035119963e-13
2.080171092e-13
2.123324515e-13
2.16484166e-13
2.205122686e-13
2.332390995e-13
2.461927349e-13
2.355336816e-13
2.362055722e-13
2.401431503e-13
2.440875427e-13
2.480198581e-13
2.519145795e-13
2.557420724e-13
2.594706416e-13
2.630683889e-13
2.665048699e-13
2.697520484e-13
2.727849174e-13
2.755823432e-13
2.781276344e-13
2.804129401e-13
2.824403488e-13
5.431314765e-13
1.107312353e-12
2.46281763e-10
7.382246813e-10
1.545567477e-09
2.619289543e-13
4.653868417e-13
6.212949484e-13
7.266164947e-13
7.802344601e-13
7.836502528e-13
7.415947539e-13
6.62376606e-13
5.577212158e-13
4.419109553e-13
3.301552299e-13
2.363521583e-13
2.033231908e-13
2.078640579e-13
2.122147957e-13
2.163985162e-13
2.204530604e-13
2.244227556e-13
2.287528995e-13
2.322663693e-13
2.361920317e-13
2.401313129e-13
2.44076073e-13
2.48008197e-13
2.519026136e-13
2.557299106e-13
2.594584929e-13
2.630564911e-13
2.664934189e-13
2.697411911e-13
2.727747554e-13
2.755729678e-13
2.781193091e-13
2.804059374e-13
2.824347951e-13
5.664059566e-13
1.141328554e-12
2.631410317e-10
7.656690888e-10
1.591021153e-09
2.626087228e-13
4.680979208e-13
6.265576675e-13
7.348435893e-13
7.916413304e-13
7.981537759e-13
7.587177366e-13
6.811853018e-13
5.768307136e-13
4.595898782e-13
3.445426931e-13
2.457654727e-13
2.031347118e-13
2.077100482e-13
2.120953526e-13
2.163107352e-13
2.203917981e-13
2.243817279e-13
2.283225661e-13
2.322478651e-13
2.361780779e-13
2.401193007e-13
2.440645617e-13
2.47996555e-13
2.518906867e-13
2.557177891e-13
2.594463786e-13
2.630446176e-13
2.664819841e-13
2.697303427e-13
2.727646009e-13
2.755636078e-13
2.781110001e-13
2.803989471e-13
2.824292712e-13
5.901675589e-13
1.176040341e-12
2.803980295e-10
7.937604675e-10
1.637545837e-09
2.632711538e-13
4.7073317e-13
6.316703856e-13
7.428403351e-13
8.027463175e-13
8.12311938e-13
7.755024239e-13
6.99733296e-13
5.958390063e-13
4.77404544e-13
3.593553122e-13
2.559008483e-13
2.02946725e-13
2.075552702e-13
2.119742904e-13
2.162209479e-13
2.203285525e-13
2.243390245e-13
2.282942564e-13
2.322285663e-13
2.361636864e-13
2.401070944e-13
2.440529968e-13
2.479849259e-13
2.518787962e-13
2.557057072e-13
2.594342982e-13
2.630327684e-13
2.664705654e-13
2.697195034e-13
2.72754454e-13
2.755542628e-13
2.78102707e-13
2.803919703e-13
2.824237786e-13
6.144261231e-13
1.211461665e-12
2.980618634e-10
8.225136654e-10
1.685166213e-09
2.639168163e-13
4.732957479e-13
6.366395997e-13
7.50616391e-13
8.13560642e-13
8.261345449e-13
7.919525843e-13
7.180129883e-13
6.147222857e-13
4.953122859e-13
3.745326058e-13
2.666855464e-13
2.027593806e-13
2.073999014e-13
2.118517711e-13
2.16129277e-13
2.202633966e-13
2.242946731e-13
2.282647074e-13
2.322084529e-13
2.361488342e-13
2.400946752e-13
2.440413658e-13
2.479733029e-13
2.51866939e-13
2.556936634e-13
2.594222512e-13
2.630209435e-13
2.664591626e-13
2.697086735e-13
2.727443151e-13
2.755449322e-13
2.780944296e-13
2.803850077e-13
2.824183188e-13
6.391917443e-13
1.247607298e-12
3.16141863e-10
8.519438686e-10
1.733907525e-09
2.645462713e-13
4.757886672e-13
6.414714797e-13
7.581809671e-13
8.240951716e-13
8.396314628e-13
8.080729526e-13
7.360190673e-13
6.334605906e-13
5.132757229e-13
3.900203151e-13
2.780530852e-13
2.025728105e-13
2.072441081e-13
2.11727946e-13
2.160358423e-13
2.201964048e-13
2.242487047e-13
2.282339185e-13
2.321875074e-13
2.361334996e-13
2.400820247e-13
2.440296563e-13
2.47961679e-13
2.518551119e-13
2.556816566e-13
2.594102371e-13
2.630091429e-13
2.664477758e-13
2.696978532e-13
2.727341843e-13
2.755356156e-13
2.780861674e-13
2.803780604e-13
2.82412893e-13
6.644747214e-13
1.284493469e-12
3.346476035e-10
8.820666146e-10
1.783795593e-09
2.651600696e-13
4.782147987e-13
6.461718765e-13
7.655428201e-13
8.343604114e-13
8.528125393e-13
8.238690143e-13
7.537481415e-13
6.520372975e-13
5.312621919e-13
4.057699073e-13
2.899429595e-13
2.023871245e-13
2.070879649e-13
2.116029516e-13
2.159407593e-13
2.201276521e-13
2.242011532e-13
2.282018926e-13
2.321657151e-13
2.361176624e-13
2.40069125e-13
2.440178558e-13
2.479500471e-13
2.518433114e-13
2.556696853e-13
2.593982553e-13
2.629973664e-13
2.664364047e-13
2.696870427e-13
2.727240618e-13
2.755263125e-13
2.780779203e-13
2.80371129e-13
2.824075028e-13
6.902852716e-13
5.991306599e-12
3.535889382e-10
9.128978124e-10
1.834856827e-09
2.657587481e-13
4.805768747e-13
6.507463383e-13
7.727102812e-13
8.4436648e-13
8.656875315e-13
8.393468268e-13
7.711984242e-13
6.704386716e-13
5.492432094e-13
4.217381009e-13
3.023014994e-13
2.034146233e-13
2.069317099e-13
2.11476933e-13
2.158441414e-13
2.20057214e-13
2.241520552e-13
2.281686354e-13
2.321430637e-13
2.361013039e-13
2.400559589e-13
2.440059519e-13
2.479383997e-13
2.518315336e-13
2.556577477e-13
2.593863052e-13
2.629856139e-13
2.664250495e-13
2.696762422e-13
2.727139478e-13
2.755170226e-13
2.780696882e-13
2.803642144e-13
2.833664453e-13
7.166337382e-13
1.808490919e-11
3.729760409e-10
9.444537543e-10
1.887118242e-09
2.663428295e-13
4.828774944e-13
6.552001265e-13
7.796912782e-13
8.541230972e-13
8.782660511e-13
8.545128748e-13
7.883694637e-13
6.886534604e-13
5.671939231e-13
4.378859566e-13
3.150783292e-13
2.114846201e-13
2.067754213e-13
2.113500197e-13
2.157460963e-13
2.199851657e-13
2.241014495e-13
2.28134156e-13
2.321195434e-13
2.36084407e-13
2.400425096e-13
2.439939323e-13
2.479267293e-13
2.518197748e-13
2.556458421e-13
2.59374386e-13
2.629738852e-13
2.6641371e-13
2.696654516e-13
2.727038423e-13
2.755077453e-13
2.780614707e-13
2.803573175e-13
3.020014813e-13
7.435310648e-13
3.046688718e-11
3.928193631e-10
9.767511193e-10
1.940607466e-09
2.669128195e-13
4.851191295e-13
6.595382316e-13
7.864933666e-13
8.636395746e-13
8.90557522e-13
8.693739483e-13
8.052619149e-13
7.066725463e-13
5.850926599e-13
4.541784321e-13
3.282267841e-13
2.201481897e-13
2.066192134e-13
2.112223329e-13
2.15646732e-13
2.199115827e-13
2.240493764e-13
2.280984658e-13
2.320951466e-13
2.360669559e-13
2.400287613e-13
2.439817846e-13
2.479150281e-13
2.518080309e-13
2.556339667e-13
2.59362497e-13
2.629621801e-13
2.664023862e-13
2.696546711e-13
2.726937455e-13
2.754984805e-13
2.780532679e-13
2.80350439e-13
3.210318331e-13
7.709882995e-13
4.314348563e-11
4.13129529e-10
1.009806973e-09
1.995352756e-09
2.674692076e-13
4.873041286e-13
6.637653774e-13
7.931236908e-13
8.729248762e-13
9.02571157e-13
8.83937046e-13
8.218773457e-13
7.244886487e-13
6.029205521e-13
4.70584037e-13
3.417041802e-13
2.293558139e-13
2.06463191e-13
2.110939882e-13
2.155461478e-13
2.198365393e-13
2.239958782e-13
2.280615784e-13
2.320698682e-13
2.360489364e-13
2.400146985e-13
2.439694967e-13
2.479032884e-13
2.517962974e-13
2.556221193e-13
2.593506373e-13
2.629504979e-13
2.663910784e-13
2.696439008e-13
2.726836574e-13
2.754892278e-13
2.780450795e-13
2.803435795e-13
3.40465349e-13
7.990165627e-13
5.612114018e-11
4.339173542e-10
1.043638763e-09
2.051383011e-09
2.68012466e-13
4.894347233e-13
6.678860412e-13
7.995890401e-13
8.819875905e-13
9.143159311e-13
8.982092944e-13
8.382180758e-13
7.420960734e-13
6.206612219e-13
4.870745276e-13
3.554715181e-13
2.390615534e-13
2.063074492e-13
2.109650959e-13
2.154444416e-13
2.197601084e-13
2.239409983e-13
2.280235097e-13
2.320437048e-13
2.360303358e-13
2.400003068e-13
2.439570567e-13
2.478915021e-13
2.517845699e-13
2.556102977e-13
2.593388058e-13
2.62938838e-13
2.663797867e-13
2.696331407e-13
2.72673578e-13
2.75479987e-13
2.780369056e-13
2.803367397e-13
3.603100296e-13
8.276270645e-13
6.940647386e-11
4.551938654e-10
1.078264327e-09
2.108727785e-09
2.685430495e-13
4.91513036e-13
6.71904473e-13
8.058958789e-13
8.908359273e-13
9.258005615e-13
9.121978813e-13
8.542870401e-13
7.594904973e-13
6.383005039e-13
5.036246166e-13
3.694932044e-13
2.492227209e-13
2.061520724e-13
2.108357404e-13
2.153417059e-13
2.196823619e-13
2.238847809e-13
2.27984277e-13
2.320166551e-13
2.360111427e-13
2.399855725e-13
2.439444531e-13
2.478796614e-13
2.517728439e-13
2.555984996e-13
2.593270013e-13
2.629272001e-13
2.663685109e-13
2.696223909e-13
2.726635075e-13
2.754707577e-13
2.780287459e-13
2.803299203e-13