/*--------------------------------*- C++ -*----------------------------------*\
| =========                 |                                                 |
| \\      /  F ield         | OpenFOAM: The Open Source CFD Toolbox           |
|  \\    /   O peration     | Version:  v2006                                 |
|   \\  /    A nd           | Website:  www.openfoam.com                      |
|    \\/     M anipulation  |                                                 |
\*---------------------------------------------------------------------------*/
FoamFile
{
    version     2.0;
    format      ascii;
    class       volScalarField;
    location    "0.09";
    object      p_0;
}
// * * * * * * * * * * * * * * * * * * * * * * * * * * * * * * * * * * * * * //

dimensions      [1 -1 -2 0 0 0 0];


internalField   nonuniform List<scalar> 
168000
(
101283.5783
101283.5784
101283.5794
101283.5827
101283.5844
101283.581
101283.581
101283.5861
101283.5824
101283.5813
101283.5847
101283.5834
101283.5811
101283.5855
101283.5823
101283.5818
101283.5856
101283.5806
101283.5854
101283.5815
101283.5838
101283.5823
101283.5834
101283.5824
101283.5836
101283.582
101283.5843
101283.582
101283.5834
101283.5829
101283.5825
101283.5831
101283.5829
101283.5826
101283.5826
101283.5826
101283.5825
101283.5819
101283.5823
101283.582
101283.5781
101283.5781
101283.5787
101283.5803
101283.5812
101283.58
101283.5801
101283.5823
101283.5808
101283.5803
101283.5818
101283.5814
101283.5802
101283.5824
101283.5808
101283.5804
101283.5826
101283.5796
101283.5826
101283.58
101283.5816
101283.5806
101283.5813
101283.5806
101283.5815
101283.5804
101283.582
101283.5804
101283.5813
101283.5809
101283.5807
101283.5811
101283.581
101283.5808
101283.5807
101283.5807
101283.5805
101283.58
101283.5803
101283.5801
101283.5776
101283.5776
101283.5778
101283.5784
101283.5789
101283.5787
101283.5788
101283.5796
101283.5791
101283.579
101283.5795
101283.5794
101283.5789
101283.5798
101283.5792
101283.5789
101283.5801
101283.5784
101283.5801
101283.5785
101283.5796
101283.5788
101283.5794
101283.5788
101283.5795
101283.5787
101283.5798
101283.5787
101283.5793
101283.579
101283.5789
101283.5791
101283.579
101283.5789
101283.5788
101283.5787
101283.5786
101283.5781
101283.5784
101283.5782
101283.5767
101283.5767
101283.5767
101283.577
101283.5772
101283.5773
101283.5774
101283.5777
101283.5776
101283.5776
101283.5778
101283.5777
101283.5775
101283.5779
101283.5776
101283.5774
101283.5781
101283.577
101283.5781
101283.577
101283.5778
101283.5772
101283.5777
101283.5772
101283.5778
101283.5771
101283.578
101283.5771
101283.5776
101283.5773
101283.5772
101283.5774
101283.5773
101283.5772
101283.5771
101283.577
101283.5769
101283.5764
101283.5767
101283.5765
101283.5756
101283.5755
101283.5755
101283.5756
101283.5757
101283.5758
101283.5758
101283.576
101283.576
101283.576
101283.5761
101283.5761
101283.5759
101283.5762
101283.576
101283.5758
101283.5763
101283.5755
101283.5763
101283.5755
101283.576
101283.5756
101283.576
101283.5756
101283.576
101283.5755
101283.5761
101283.5755
101283.5759
101283.5756
101283.5756
101283.5756
101283.5755
101283.5754
101283.5754
101283.5752
101283.5751
101283.5747
101283.575
101283.5748
101283.5743
101283.5742
101283.5741
101283.5741
101283.5742
101283.5742
101283.5743
101283.5744
101283.5744
101283.5744
101283.5744
101283.5744
101283.5743
101283.5744
101283.5743
101283.5742
101283.5745
101283.574
101283.5744
101283.5739
101283.5743
101283.5739
101283.5742
101283.5739
101283.5743
101283.5739
101283.5743
101283.5738
101283.5741
101283.5739
101283.5738
101283.5739
101283.5738
101283.5737
101283.5736
101283.5735
101283.5734
101283.573
101283.5732
101283.573
101283.5729
101283.5728
101283.5727
101283.5727
101283.5727
101283.5727
101283.5728
101283.5728
101283.5728
101283.5728
101283.5728
101283.5728
101283.5727
101283.5727
101283.5727
101283.5726
101283.5727
101283.5724
101283.5727
101283.5723
101283.5726
101283.5723
101283.5725
101283.5723
101283.5725
101283.5722
101283.5726
101283.5721
101283.5724
101283.5721
101283.5721
101283.5721
101283.572
101283.5719
101283.5718
101283.5717
101283.5716
101283.5713
101283.5715
101283.5713
101283.5715
101283.5714
101283.5713
101283.5713
101283.5712
101283.5712
101283.5712
101283.5712
101283.5712
101283.5712
101283.5712
101283.5712
101283.5711
101283.5711
101283.5711
101283.571
101283.571
101283.5708
101283.571
101283.5707
101283.5709
101283.5707
101283.5708
101283.5706
101283.5708
101283.5706
101283.5708
101283.5705
101283.5706
101283.5704
101283.5704
101283.5703
101283.5702
101283.5701
101283.5701
101283.5699
101283.5699
101283.5695
101283.5697
101283.5695
101283.57
101283.5699
101283.5698
101283.5698
101283.5697
101283.5697
101283.5697
101283.5697
101283.5696
101283.5696
101283.5696
101283.5696
101283.5695
101283.5695
101283.5694
101283.5693
101283.5694
101283.5692
101283.5693
101283.5691
101283.5692
101283.569
101283.5692
101283.569
101283.5691
101283.5689
101283.5691
101283.5688
101283.5689
101283.5687
101283.5687
101283.5686
101283.5685
101283.5684
101283.5683
101283.5682
101283.5681
101283.5678
101283.568
101283.5678
101283.5685
101283.5684
101283.5683
101283.5683
101283.5682
101283.5682
101283.5681
101283.5681
101283.5681
101283.568
101283.568
101283.5679
101283.5679
101283.5678
101283.5678
101283.5677
101283.5677
101283.5676
101283.5676
101283.5675
101283.5676
101283.5674
101283.5675
101283.5674
101283.5674
101283.5673
101283.5674
101283.5671
101283.5672
101283.567
101283.567
101283.5669
101283.5667
101283.5666
101283.5665
101283.5664
101283.5664
101283.5661
101283.5663
101283.5661
101283.567
101283.5669
101283.5668
101283.5667
101283.5667
101283.5666
101283.5666
101283.5665
101283.5665
101283.5664
101283.5664
101283.5663
101283.5663
101283.5662
101283.5662
101283.5661
101283.5661
101283.566
101283.566
101283.5659
101283.5659
101283.5658
101283.5658
101283.5657
101283.5658
101283.5656
101283.5657
101283.5655
101283.5655
101283.5653
101283.5652
101283.5651
101283.565
101283.5649
101283.5648
101283.5647
101283.5646
101283.5644
101283.5645
101283.5643
101283.5654
101283.5653
101283.5652
101283.5652
101283.5651
101283.565
101283.565
101283.5649
101283.5649
101283.5648
101283.5648
101283.5647
101283.5647
101283.5646
101283.5646
101283.5645
101283.5645
101283.5644
101283.5644
101283.5643
101283.5643
101283.5642
101283.5642
101283.5641
101283.5641
101283.564
101283.564
101283.5638
101283.5638
101283.5636
101283.5636
101283.5634
101283.5633
101283.5631
101283.563
101283.5629
101283.5629
101283.5627
101283.5628
101283.5626
101283.5638
101283.5637
101283.5636
101283.5635
101283.5635
101283.5634
101283.5634
101283.5633
101283.5632
101283.5632
101283.5631
101283.5631
101283.563
101283.563
101283.5629
101283.5629
101283.5628
101283.5628
101283.5628
101283.5627
101283.5627
101283.5626
101283.5626
101283.5625
101283.5625
101283.5623
101283.5623
101283.5621
101283.5621
101283.562
101283.5619
101283.5617
101283.5616
101283.5614
101283.5613
101283.5612
101283.5612
101283.561
101283.5611
101283.5609
101283.5621
101283.562
101283.562
101283.5619
101283.5618
101283.5618
101283.5617
101283.5617
101283.5616
101283.5615
101283.5615
101283.5614
101283.5614
101283.5613
101283.5613
101283.5613
101283.5612
101283.5612
101283.5612
101283.5611
101283.5611
101283.561
101283.561
101283.5608
101283.5608
101283.5607
101283.5606
101283.5605
101283.5604
101283.5603
101283.5602
101283.56
101283.5599
101283.5597
101283.5596
101283.5595
101283.5595
101283.5594
101283.5594
101283.5592
101283.5604
101283.5604
101283.5603
101283.5602
101283.5602
101283.5601
101283.56
101283.56
101283.5599
101283.5599
101283.5598
101283.5598
101283.5597
101283.5597
101283.5596
101283.5596
101283.5596
101283.5596
101283.5595
101283.5595
101283.5595
101283.5594
101283.5593
101283.5592
101283.5591
101283.559
101283.559
101283.5588
101283.5588
101283.5586
101283.5585
101283.5583
101283.5582
101283.558
101283.5579
101283.5578
101283.5577
101283.5577
101283.5576
101283.5575
101283.5587
101283.5586
101283.5586
101283.5585
101283.5585
101283.5584
101283.5583
101283.5583
101283.5582
101283.5582
101283.5581
101283.5581
101283.558
101283.558
101283.558
101283.558
101283.558
101283.5579
101283.5579
101283.5579
101283.5578
101283.5577
101283.5577
101283.5576
101283.5575
101283.5573
101283.5573
101283.5571
101283.5571
101283.5569
101283.5568
101283.5567
101283.5565
101283.5563
101283.5562
101283.5561
101283.556
101283.5562
101283.5559
101283.5557
101283.5569
101283.5569
101283.5568
101283.5568
101283.5567
101283.5567
101283.5566
101283.5565
101283.5565
101283.5564
101283.5564
101283.5564
101283.5563
101283.5563
101283.5563
101283.5563
101283.5563
101283.5563
101283.5563
101283.5562
101283.5562
101283.5561
101283.556
101283.5559
101283.5558
101283.5557
101283.5556
101283.5555
101283.5554
101283.5553
101283.5551
101283.555
101283.5548
101283.5546
101283.5545
101283.5544
101283.5543
101283.5545
101283.5542
101283.554
101283.5552
101283.5551
101283.5551
101283.555
101283.5549
101283.5549
101283.5548
101283.5548
101283.5547
101283.5547
101283.5547
101283.5546
101283.5546
101283.5546
101283.5546
101283.5546
101283.5546
101283.5546
101283.5546
101283.5546
101283.5545
101283.5544
101283.5543
101283.5542
101283.5541
101283.554
101283.5539
101283.5538
101283.5537
101283.5536
101283.5535
101283.5533
101283.5531
101283.5529
101283.5528
101283.5527
101283.5526
101283.5528
101283.5524
101283.5523
101283.5534
101283.5533
101283.5533
101283.5532
101283.5531
101283.5531
101283.553
101283.553
101283.553
101283.5529
101283.5529
101283.5529
101283.5529
101283.5529
101283.5529
101283.5529
101283.5529
101283.5529
101283.5529
101283.5529
101283.5528
101283.5527
101283.5526
101283.5525
101283.5524
101283.5523
101283.5522
101283.5521
101283.552
101283.5519
101283.5518
101283.5516
101283.5514
101283.5513
101283.5511
101283.551
101283.5508
101283.5511
101283.5507
101283.5506
101283.5515
101283.5515
101283.5514
101283.5514
101283.5513
101283.5513
101283.5512
101283.5512
101283.5512
101283.5511
101283.5511
101283.5511
101283.5511
101283.5511
101283.5511
101283.5512
101283.5512
101283.5512
101283.5512
101283.5511
101283.5511
101283.551
101283.5509
101283.5508
101283.5507
101283.5506
101283.5505
101283.5504
101283.5503
101283.5502
101283.5501
101283.5499
101283.5497
101283.5496
101283.5494
101283.5493
101283.5491
101283.5493
101283.5489
101283.5488
101283.5497
101283.5497
101283.5496
101283.5496
101283.5495
101283.5495
101283.5494
101283.5494
101283.5494
101283.5493
101283.5493
101283.5493
101283.5493
101283.5493
101283.5494
101283.5494
101283.5494
101283.5494
101283.5494
101283.5494
101283.5493
101283.5493
101283.5492
101283.5491
101283.5489
101283.5488
101283.5487
101283.5486
101283.5486
101283.5485
101283.5484
101283.5482
101283.548
101283.5479
101283.5477
101283.5476
101283.5474
101283.5476
101283.5472
101283.5471
101283.5479
101283.5478
101283.5478
101283.5477
101283.5477
101283.5476
101283.5476
101283.5476
101283.5475
101283.5475
101283.5475
101283.5475
101283.5475
101283.5475
101283.5476
101283.5476
101283.5476
101283.5476
101283.5476
101283.5476
101283.5476
101283.5475
101283.5474
101283.5473
101283.5472
101283.5471
101283.547
101283.5469
101283.5468
101283.5468
101283.5466
101283.5465
101283.5463
101283.5461
101283.5459
101283.5459
101283.5456
101283.5458
101283.5454
101283.5453
101283.546
101283.546
101283.5459
101283.5459
101283.5458
101283.5458
101283.5458
101283.5457
101283.5457
101283.5457
101283.5457
101283.5457
101283.5457
101283.5457
101283.5457
101283.5458
101283.5458
101283.5458
101283.5458
101283.5458
101283.5458
101283.5457
101283.5456
101283.5455
101283.5454
101283.5453
101283.5452
101283.5451
101283.5451
101283.545
101283.5449
101283.5448
101283.5446
101283.5444
101283.5442
101283.5441
101283.5438
101283.544
101283.5436
101283.5435
101283.5442
101283.5442
101283.5441
101283.5441
101283.544
101283.544
101283.5439
101283.5439
101283.5439
101283.5439
101283.5439
101283.5439
101283.5439
101283.5439
101283.5439
101283.5439
101283.544
101283.544
101283.544
101283.544
101283.5439
101283.5438
101283.5438
101283.5437
101283.5436
101283.5435
101283.5434
101283.5434
101283.5433
101283.5433
101283.5432
101283.543
101283.5428
101283.5427
101283.5424
101283.5424
101283.542
101283.5422
101283.5418
101283.5417
101283.5424
101283.5423
101283.5423
101283.5422
101283.5422
101283.5422
101283.5421
101283.5421
101283.5421
101283.542
101283.542
101283.542
101283.542
101283.5421
101283.5421
101283.5421
101283.5421
101283.5421
101283.5421
101283.5421
101283.5421
101283.542
101283.5419
101283.5418
101283.5417
101283.5417
101283.5416
101283.5416
101283.5415
101283.5415
101283.5414
101283.5413
101283.5411
101283.5409
101283.5407
101283.5406
101283.5403
101283.5404
101283.54
101283.54
101283.5406
101283.5405
101283.5405
101283.5404
101283.5404
101283.5403
101283.5403
101283.5403
101283.5402
101283.5402
101283.5402
101283.5402
101283.5402
101283.5402
101283.5402
101283.5402
101283.5403
101283.5403
101283.5402
101283.5402
101283.5402
101283.5401
101283.54
101283.54
101283.5399
101283.5398
101283.5398
101283.5398
101283.5397
101283.5397
101283.5396
101283.5395
101283.5393
101283.5391
101283.5389
101283.5388
101283.5385
101283.5386
101283.5382
101283.5382
101283.5388
101283.5388
101283.5387
101283.5387
101283.5386
101283.5386
101283.5385
101283.5385
101283.5384
101283.5384
101283.5384
101283.5384
101283.5384
101283.5384
101283.5384
101283.5384
101283.5384
101283.5384
101283.5384
101283.5383
101283.5383
101283.5382
101283.5382
101283.5381
101283.538
101283.538
101283.538
101283.538
101283.5379
101283.5379
101283.5378
101283.5377
101283.5375
101283.5374
101283.5371
101283.537
101283.5366
101283.5368
101283.5364
101283.5363
101283.537
101283.537
101283.537
101283.5369
101283.5369
101283.5368
101283.5368
101283.5367
101283.5367
101283.5366
101283.5366
101283.5366
101283.5365
101283.5365
101283.5365
101283.5365
101283.5365
101283.5365
101283.5365
101283.5364
101283.5364
101283.5363
101283.5363
101283.5362
101283.5362
101283.5362
101283.5362
101283.5361
101283.5361
101283.5361
101283.536
101283.5359
101283.5357
101283.5356
101283.5353
101283.5352
101283.5348
101283.535
101283.5346
101283.5345
101283.5353
101283.5353
101283.5352
101283.5352
101283.5351
101283.5351
101283.535
101283.535
101283.5349
101283.5349
101283.5348
101283.5348
101283.5347
101283.5347
101283.5347
101283.5347
101283.5346
101283.5346
101283.5346
101283.5346
101283.5345
101283.5345
101283.5344
101283.5344
101283.5343
101283.5343
101283.5343
101283.5343
101283.5343
101283.5343
101283.5342
101283.5341
101283.5339
101283.5338
101283.5335
101283.5334
101283.533
101283.5332
101283.5328
101283.5327
101283.5336
101283.5336
101283.5335
101283.5335
101283.5334
101283.5334
101283.5333
101283.5332
101283.5332
101283.5331
101283.5331
101283.533
101283.533
101283.5329
101283.5329
101283.5328
101283.5328
101283.5328
101283.5327
101283.5327
101283.5326
101283.5326
101283.5326
101283.5325
101283.5325
101283.5325
101283.5325
101283.5325
101283.5325
101283.5325
101283.5324
101283.5323
101283.5321
101283.532
101283.5317
101283.5316
101283.5312
101283.5314
101283.531
101283.5309
101283.5319
101283.5319
101283.5318
101283.5318
101283.5317
101283.5317
101283.5316
101283.5315
101283.5315
101283.5314
101283.5313
101283.5313
101283.5312
101283.5311
101283.5311
101283.531
101283.531
101283.5309
101283.5309
101283.5308
101283.5308
101283.5307
101283.5307
101283.5307
101283.5307
101283.5307
101283.5307
101283.5307
101283.5307
101283.5307
101283.5306
101283.5305
101283.5303
101283.5302
101283.5299
101283.5298
101283.5294
101283.5296
101283.5292
101283.5291
101283.5303
101283.5302
101283.5302
101283.5301
101283.53
101283.53
101283.5299
101283.5298
101283.5298
101283.5297
101283.5296
101283.5295
101283.5294
101283.5294
101283.5293
101283.5292
101283.5292
101283.5291
101283.529
101283.529
101283.5289
101283.5289
101283.5289
101283.5289
101283.5289
101283.5289
101283.5289
101283.5289
101283.5289
101283.5289
101283.5288
101283.5287
101283.5285
101283.5284
101283.5281
101283.528
101283.5276
101283.5278
101283.5274
101283.5273
101283.5286
101283.5286
101283.5285
101283.5284
101283.5284
101283.5283
101283.5282
101283.5282
101283.5281
101283.528
101283.5279
101283.5278
101283.5277
101283.5276
101283.5275
101283.5275
101283.5274
101283.5273
101283.5272
101283.5272
101283.5271
101283.5271
101283.5271
101283.5271
101283.5271
101283.5271
101283.5271
101283.5271
101283.5271
101283.5271
101283.527
101283.5269
101283.5267
101283.5266
101283.5264
101283.5262
101283.5258
101283.526
101283.5256
101283.5255
101283.5269
101283.5269
101283.5268
101283.5268
101283.5267
101283.5267
101283.5266
101283.5265
101283.5264
101283.5263
101283.5262
101283.5261
101283.526
101283.5259
101283.5258
101283.5257
101283.5256
101283.5255
101283.5255
101283.5254
101283.5253
101283.5253
101283.5253
101283.5253
101283.5253
101283.5254
101283.5254
101283.5254
101283.5253
101283.5253
101283.5252
101283.5251
101283.5249
101283.5248
101283.5246
101283.5244
101283.5241
101283.5242
101283.5239
101283.5237
101283.5253
101283.5252
101283.5252
101283.5251
101283.5251
101283.525
101283.5249
101283.5248
101283.5247
101283.5246
101283.5245
101283.5244
101283.5243
101283.5242
101283.5241
101283.524
101283.5239
101283.5238
101283.5237
101283.5236
101283.5236
101283.5236
101283.5236
101283.5236
101283.5236
101283.5236
101283.5236
101283.5236
101283.5236
101283.5235
101283.5234
101283.5233
101283.5232
101283.523
101283.5228
101283.5227
101283.5223
101283.5224
101283.5221
101283.5219
101283.5236
101283.5236
101283.5235
101283.5235
101283.5234
101283.5233
101283.5233
101283.5232
101283.5231
101283.523
101283.5229
101283.5228
101283.5226
101283.5225
101283.5224
101283.5223
101283.5222
101283.5221
101283.522
101283.5219
101283.5219
101283.5219
101283.5219
101283.5219
101283.5219
101283.5219
101283.5219
101283.5219
101283.5218
101283.5217
101283.5216
101283.5215
101283.5214
101283.5213
101283.5211
101283.5209
101283.5206
101283.5207
101283.5204
101283.5202
101283.5219
101283.5219
101283.5219
101283.5218
101283.5217
101283.5217
101283.5216
101283.5215
101283.5214
101283.5213
101283.5212
101283.5211
101283.521
101283.5209
101283.5207
101283.5206
101283.5205
101283.5204
101283.5203
101283.5202
101283.5202
101283.5202
101283.5202
101283.5202
101283.5202
101283.5202
101283.5202
101283.5201
101283.5201
101283.52
101283.5199
101283.5197
101283.5196
101283.5195
101283.5193
101283.5192
101283.5189
101283.5189
101283.5187
101283.5184
101283.5202
101283.5202
101283.5202
101283.5201
101283.52
101283.52
101283.5199
101283.5198
101283.5197
101283.5196
101283.5195
101283.5194
101283.5193
101283.5192
101283.5191
101283.519
101283.5188
101283.5187
101283.5187
101283.5186
101283.5185
101283.5185
101283.5185
101283.5185
101283.5185
101283.5185
101283.5185
101283.5184
101283.5183
101283.5182
101283.5181
101283.518
101283.5179
101283.5178
101283.5176
101283.5174
101283.5173
101283.5172
101283.5169
101283.5166
101283.5185
101283.5185
101283.5184
101283.5184
101283.5183
101283.5183
101283.5182
101283.5181
101283.518
101283.518
101283.5179
101283.5178
101283.5176
101283.5175
101283.5174
101283.5173
101283.5172
101283.5171
101283.517
101283.5169
101283.5169
101283.5169
101283.5169
101283.5169
101283.5169
101283.5168
101283.5168
101283.5167
101283.5166
101283.5165
101283.5163
101283.5162
101283.5161
101283.516
101283.5159
101283.5157
101283.5156
101283.5154
101283.5152
101283.5148
101283.5168
101283.5167
101283.5167
101283.5166
101283.5166
101283.5165
101283.5165
101283.5164
101283.5163
101283.5163
101283.5162
101283.5161
101283.516
101283.5159
101283.5158
101283.5157
101283.5155
101283.5155
101283.5154
101283.5153
101283.5153
101283.5152
101283.5152
101283.5152
101283.5152
101283.5152
101283.5151
101283.515
101283.5149
101283.5147
101283.5146
101283.5145
101283.5144
101283.5143
101283.5142
101283.514
101283.514
101283.5137
101283.5135
101283.5131
101283.515
101283.515
101283.5149
101283.5149
101283.5148
101283.5148
101283.5147
101283.5147
101283.5146
101283.5145
101283.5145
101283.5144
101283.5143
101283.5142
101283.5141
101283.514
101283.5139
101283.5138
101283.5137
101283.5137
101283.5136
101283.5136
101283.5136
101283.5136
101283.5135
101283.5135
101283.5134
101283.5133
101283.5131
101283.513
101283.5128
101283.5127
101283.5126
101283.5125
101283.5124
101283.5122
101283.5124
101283.512
101283.5118
101283.5113
101283.5132
101283.5131
101283.5131
101283.5131
101283.513
101283.513
101283.5129
101283.5129
101283.5129
101283.5128
101283.5127
101283.5127
101283.5126
101283.5125
101283.5124
101283.5123
101283.5123
101283.5122
101283.5121
101283.5121
101283.512
101283.512
101283.512
101283.5119
101283.5119
101283.5118
101283.5117
101283.5116
101283.5114
101283.5112
101283.5111
101283.511
101283.5109
101283.5108
101283.5107
101283.5105
101283.5106
101283.5102
101283.5101
101283.5095
101283.5114
101283.5113
101283.5113
101283.5112
101283.5112
101283.5112
101283.5111
101283.5111
101283.5111
101283.511
101283.511
101283.511
101283.5109
101283.5108
101283.5108
101283.5107
101283.5106
101283.5105
101283.5105
101283.5104
101283.5104
101283.5103
101283.5103
101283.5103
101283.5102
101283.5101
101283.51
101283.5098
101283.5097
101283.5095
101283.5093
101283.5092
101283.5092
101283.5091
101283.509
101283.5087
101283.5089
101283.5085
101283.5084
101283.5077
101283.5095
101283.5095
101283.5094
101283.5094
101283.5094
101283.5094
101283.5093
101283.5093
101283.5093
101283.5093
101283.5092
101283.5092
101283.5092
101283.5091
101283.5091
101283.509
101283.5089
101283.5089
101283.5088
101283.5088
101283.5087
101283.5087
101283.5087
101283.5086
101283.5085
101283.5084
101283.5083
101283.5081
101283.5079
101283.5077
101283.5076
101283.5075
101283.5074
101283.5073
101283.5073
101283.507
101283.5071
101283.5067
101283.5066
101283.5059
101283.5076
101283.5076
101283.5076
101283.5075
101283.5075
101283.5075
101283.5075
101283.5075
101283.5075
101283.5075
101283.5075
101283.5074
101283.5074
101283.5074
101283.5073
101283.5073
101283.5073
101283.5072
101283.5072
101283.5071
101283.5071
101283.507
101283.507
101283.5069
101283.5068
101283.5067
101283.5066
101283.5064
101283.5062
101283.506
101283.5058
101283.5057
101283.5057
101283.5056
101283.5055
101283.5052
101283.5054
101283.5049
101283.5048
101283.5041
101283.5058
101283.5057
101283.5057
101283.5057
101283.5057
101283.5057
101283.5057
101283.5057
101283.5057
101283.5057
101283.5057
101283.5057
101283.5057
101283.5056
101283.5056
101283.5056
101283.5055
101283.5055
101283.5055
101283.5054
101283.5054
101283.5053
101283.5053
101283.5052
101283.5051
101283.505
101283.5048
101283.5046
101283.5044
101283.5042
101283.5041
101283.504
101283.5039
101283.5038
101283.5038
101283.5035
101283.5036
101283.5031
101283.503
101283.5023
101283.5039
101283.5039
101283.5038
101283.5038
101283.5038
101283.5038
101283.5038
101283.5038
101283.5038
101283.5039
101283.5039
101283.5039
101283.5039
101283.5039
101283.5039
101283.5038
101283.5038
101283.5038
101283.5037
101283.5037
101283.5037
101283.5036
101283.5036
101283.5035
101283.5034
101283.5032
101283.503
101283.5028
101283.5026
101283.5024
101283.5023
101283.5022
101283.5021
101283.502
101283.502
101283.5017
101283.5018
101283.5013
101283.5012
101283.5004
101283.502
101283.502
101283.502
101283.502
101283.502
101283.502
101283.502
101283.502
101283.502
101283.502
101283.5021
101283.5021
101283.5021
101283.5021
101283.5021
101283.5021
101283.5021
101283.502
101283.502
101283.502
101283.5019
101283.5019
101283.5018
101283.5017
101283.5016
101283.5014
101283.5013
101283.5011
101283.5009
101283.5007
101283.5005
101283.5004
101283.5004
101283.5003
101283.5002
101283.4999
101283.5
101283.4995
101283.4994
101283.4986
101283.5002
101283.5002
101283.5002
101283.5001
101283.5001
101283.5001
101283.5001
101283.5002
101283.5002
101283.5002
101283.5002
101283.5003
101283.5003
101283.5003
101283.5003
101283.5003
101283.5003
101283.5003
101283.5002
101283.5002
101283.5002
101283.5001
101283.5
101283.4999
101283.4998
101283.4996
101283.4995
101283.4993
101283.4991
101283.4989
101283.4988
101283.4986
101283.4986
101283.4985
101283.4984
101283.4981
101283.4982
101283.4977
101283.4976
101283.4967
101283.4984
101283.4984
101283.4983
101283.4983
101283.4983
101283.4983
101283.4983
101283.4984
101283.4984
101283.4984
101283.4984
101283.4985
101283.4985
101283.4985
101283.4985
101283.4985
101283.4985
101283.4985
101283.4985
101283.4984
101283.4984
101283.4983
101283.4982
101283.4981
101283.498
101283.4978
101283.4977
101283.4975
101283.4973
101283.4971
101283.497
101283.4969
101283.4968
101283.4967
101283.4966
101283.4963
101283.4964
101283.4958
101283.4957
101283.4949
101283.4966
101283.4966
101283.4966
101283.4965
101283.4965
101283.4965
101283.4966
101283.4966
101283.4966
101283.4966
101283.4966
101283.4967
101283.4967
101283.4967
101283.4967
101283.4967
101283.4967
101283.4967
101283.4967
101283.4966
101283.4966
101283.4965
101283.4964
101283.4963
101283.4962
101283.496
101283.4959
101283.4957
101283.4955
101283.4953
101283.4952
101283.4951
101283.495
101283.4949
101283.4948
101283.4944
101283.4945
101283.494
101283.4939
101283.493
101283.4949
101283.4948
101283.4948
101283.4948
101283.4948
101283.4948
101283.4948
101283.4948
101283.4948
101283.4948
101283.4949
101283.4949
101283.4949
101283.4949
101283.4949
101283.4949
101283.4949
101283.4949
101283.4949
101283.4948
101283.4948
101283.4947
101283.4946
101283.4945
101283.4944
101283.4942
101283.494
101283.4939
101283.4937
101283.4935
101283.4934
101283.4933
101283.4932
101283.4931
101283.493
101283.4926
101283.4927
101283.4922
101283.492
101283.4912
101283.4932
101283.4931
101283.4931
101283.4931
101283.4931
101283.4931
101283.4931
101283.4931
101283.4931
101283.4931
101283.4931
101283.4931
101283.4931
101283.4931
101283.4931
101283.4931
101283.4931
101283.4931
101283.4931
101283.493
101283.4929
101283.4929
101283.4928
101283.4927
101283.4925
101283.4924
101283.4922
101283.4921
101283.4919
101283.4918
101283.4917
101283.4915
101283.4914
101283.4913
101283.4912
101283.4908
101283.4909
101283.4903
101283.4901
101283.4893
101283.4915
101283.4915
101283.4914
101283.4914
101283.4914
101283.4914
101283.4914
101283.4914
101283.4914
101283.4914
101283.4914
101283.4914
101283.4914
101283.4914
101283.4914
101283.4913
101283.4913
101283.4913
101283.4912
101283.4912
101283.4911
101283.491
101283.4909
101283.4908
101283.4907
101283.4906
101283.4904
101283.4903
101283.4901
101283.49
101283.4899
101283.4898
101283.4897
101283.4895
101283.4894
101283.4889
101283.489
101283.4885
101283.4883
101283.4875
101283.4899
101283.4898
101283.4898
101283.4898
101283.4898
101283.4897
101283.4897
101283.4897
101283.4897
101283.4897
101283.4897
101283.4896
101283.4896
101283.4896
101283.4896
101283.4896
101283.4895
101283.4895
101283.4894
101283.4894
101283.4893
101283.4892
101283.4891
101283.489
101283.4889
101283.4888
101283.4886
101283.4885
101283.4884
101283.4883
101283.4881
101283.488
101283.4879
101283.4877
101283.4876
101283.4871
101283.4872
101283.4866
101283.4864
101283.4857
101283.4883
101283.4882
101283.4882
101283.4882
101283.4881
101283.4881
101283.4881
101283.488
101283.488
101283.488
101283.488
101283.4879
101283.4879
101283.4879
101283.4878
101283.4878
101283.4877
101283.4877
101283.4876
101283.4876
101283.4875
101283.4874
101283.4873
101283.4872
101283.4871
101283.487
101283.4868
101283.4867
101283.4866
101283.4865
101283.4864
101283.4862
101283.4861
101283.4859
101283.4857
101283.4853
101283.4853
101283.4848
101283.4845
101283.4839
101283.4867
101283.4867
101283.4866
101283.4866
101283.4866
101283.4865
101283.4865
101283.4864
101283.4864
101283.4863
101283.4863
101283.4862
101283.4862
101283.4861
101283.4861
101283.486
101283.486
101283.4859
101283.4858
101283.4858
101283.4857
101283.4856
101283.4855
101283.4854
101283.4853
101283.4852
101283.4851
101283.485
101283.4849
101283.4848
101283.4847
101283.4845
101283.4843
101283.4841
101283.4839
101283.4835
101283.4835
101283.483
101283.4827
101283.4821
101283.4852
101283.4851
101283.4851
101283.485
101283.485
101283.4849
101283.4849
101283.4848
101283.4848
101283.4847
101283.4846
101283.4846
101283.4845
101283.4844
101283.4844
101283.4843
101283.4842
101283.4841
101283.4841
101283.484
101283.4839
101283.4838
101283.4837
101283.4836
101283.4835
101283.4834
101283.4833
101283.4832
101283.4832
101283.4831
101283.4829
101283.4828
101283.4826
101283.4823
101283.4821
101283.4817
101283.4817
101283.4812
101283.4808
101283.4803
101283.4836
101283.4836
101283.4836
101283.4835
101283.4834
101283.4834
101283.4833
101283.4832
101283.4831
101283.4831
101283.483
101283.4829
101283.4828
101283.4827
101283.4827
101283.4826
101283.4825
101283.4824
101283.4823
101283.4822
101283.4821
101283.482
101283.4819
101283.4818
101283.4817
101283.4816
101283.4816
101283.4815
101283.4814
101283.4813
101283.4812
101283.481
101283.4808
101283.4806
101283.4803
101283.48
101283.4799
101283.4794
101283.479
101283.4785
101283.4821
101283.4821
101283.482
101283.4819
101283.4819
101283.4818
101283.4817
101283.4816
101283.4815
101283.4814
101283.4813
101283.4812
101283.4811
101283.481
101283.481
101283.4809
101283.4808
101283.4807
101283.4806
101283.4805
101283.4804
101283.4802
101283.4801
101283.4801
101283.48
101283.4799
101283.4798
101283.4798
101283.4797
101283.4796
101283.4795
101283.4793
101283.4791
101283.4788
101283.4786
101283.4783
101283.4781
101283.4776
101283.4772
101283.4767
101283.4805
101283.4805
101283.4805
101283.4804
101283.4803
101283.4802
101283.4801
101283.48
101283.4799
101283.4798
101283.4797
101283.4796
101283.4795
101283.4794
101283.4793
101283.4792
101283.4791
101283.4789
101283.4788
101283.4787
101283.4786
101283.4785
101283.4784
101283.4783
101283.4782
101283.4782
101283.4781
101283.4781
101283.478
101283.4779
101283.4778
101283.4776
101283.4773
101283.4771
101283.4768
101283.4766
101283.4763
101283.4759
101283.4754
101283.475
101283.479
101283.4789
101283.4789
101283.4788
101283.4787
101283.4786
101283.4785
101283.4784
101283.4783