/*--------------------------------*- C++ -*----------------------------------*\
| =========                 |                                                 |
| \\      /  F ield         | OpenFOAM: The Open Source CFD Toolbox           |
|  \\    /   O peration     | Version:  v2006                                 |
|   \\  /    A nd           | Website:  www.openfoam.com                      |
|    \\/     M anipulation  |                                                 |
\*---------------------------------------------------------------------------*/
FoamFile
{
    version     2.0;
    format      ascii;
    class       volScalarField;
    location    "0.09";
    object      rho;
}
// * * * * * * * * * * * * * * * * * * * * * * * * * * * * * * * * * * * * * //

dimensions      [1 -3 0 0 0 0 0];


internalField   nonuniform List<scalar> 
168000
(
1.088835796
1.088838467
1.088840331
1.088841837
1.088843251
1.08884471
1.088846197
1.088847785
1.088849626
1.088851696
1.088853964
1.088856543
1.088859416
1.088862551
1.088865986
1.088869707
1.08887369
1.088877872
1.088882357
1.088886891
1.088891668
1.088896425
1.088900191
1.088903655
1.08890714
1.08891048
1.088913857
1.088916944
1.088920023
1.088922864
1.088925498
1.088927998
1.088930211
1.08893217
1.088933934
1.088935483
1.088936704
1.08893357
1.088577087
1.087348694
1.088830949
1.088834924
1.088838215
1.088840902
1.088843148
1.088845105
1.088846874
1.088848585
1.08885038
1.088852337
1.088854495
1.088856938
1.088859683
1.088862736
1.088866094
1.088869759
1.08887371
1.088877872
1.088882331
1.088886871
1.088891629
1.088896394
1.088900155
1.088903626
1.088907102
1.088910456
1.088913813
1.088916921
1.088919988
1.088922832
1.088925473
1.088927965
1.088930181
1.088932145
1.088933909
1.088935457
1.088936514
1.088933314
1.088537991
1.087283532
1.088827905
1.088832142
1.088836158
1.088839679
1.088842662
1.088845171
1.088847308
1.088849218
1.088851063
1.088852974
1.088855044
1.08885737
1.08886
1.088862953
1.088866233
1.088869837
1.088873743
1.088877886
1.08888231
1.088886854
1.088891594
1.088896363
1.088900121
1.088903597
1.088907066
1.088910431
1.088913772
1.088916896
1.088919954
1.0889228
1.088925447
1.088927933
1.088930151
1.088932119
1.088933883
1.08893543
1.088936322
1.088933053
1.088497923
1.087216913
1.088825735
1.088829941
1.088834284
1.088838349
1.088841927
1.088844964
1.088847507
1.088849682
1.08885165
1.088853576
1.088855595
1.088857828
1.088860351
1.088863206
1.088866401
1.088869938
1.088873794
1.08887791
1.088882302
1.088886841
1.088891564
1.088896335
1.08890009
1.088903569
1.088907034
1.088910405
1.088913736
1.088916872
1.088919923
1.088922772
1.088925422
1.088927904
1.088930124
1.088932095
1.08893386
1.088935406
1.08893613
1.088932789
1.088456872
1.087148788
1.088824052
1.08882815
1.088832613
1.088837012
1.088841042
1.088844546
1.088847498
1.088849975
1.088852125
1.08885412
1.088856129
1.088858296
1.088860727
1.088863486
1.088866596
1.088870061
1.088873862
1.088877944
1.088882303
1.088886832
1.088891538
1.088896307
1.088900059
1.088903541
1.088907002
1.088910379
1.088913701
1.088916846
1.088919892
1.088922743
1.088925397
1.088927875
1.088930097
1.088932071
1.088933836
1.088935382
1.088935935
1.088932519
1.088414819
1.087079107
1.088822682
1.088826652
1.088831129
1.088835718
1.088840078
1.088843977
1.088847314
1.08885011
1.088852481
1.088854593
1.088856631
1.088858762
1.088861119
1.088863789
1.088866814
1.088870205
1.088873945
1.088877988
1.088882312
1.088886827
1.088891515
1.088896281
1.088900028
1.088903512
1.088906971
1.088910351
1.088913668
1.08891682
1.088919862
1.088922714
1.088925371
1.088927846
1.08893007
1.088932047
1.088933812
1.088935358
1.088935737
1.088932244
1.088371745
1.087007822
1.088821533
1.088825371
1.088829807
1.088834493
1.088839082
1.088843302
1.088846989
1.088850104
1.08885272
1.088854987
1.08885709
1.088859215
1.088861518
1.088864109
1.088867052
1.088870368
1.088874045
1.088878044
1.08888233
1.088886826
1.088891497
1.088896256
1.088899998
1.088903483
1.08890694
1.088910323
1.088913635
1.088916792
1.088919832
1.088922685
1.088925345
1.088927817
1.088930042
1.088932022
1.088933788
1.088935334
1.088935536
1.088931964
1.088327633
1.086934886
1.088820549
1.088824257
1.088828621
1.088833342
1.088838087
1.088842561
1.088846554
1.088849975
1.088852849
1.088855296
1.088857497
1.088859645
1.088861915
1.088864442
1.088867308
1.088870548
1.088874161
1.08887811
1.088882358
1.08888683
1.088891483
1.088896233
1.088899968
1.088903454
1.08890691
1.088910295
1.088913603
1.088916765
1.088919802
1.088922657
1.088925318
1.088927789
1.088930015
1.088931997
1.088933764
1.08893531
1.088935331
1.088931678
1.08828246
1.086860256
1.088819692
1.088823275
1.088827552
1.088832266
1.088837109
1.088841779
1.088846037
1.088849742
1.088852875
1.088855523
1.088857847
1.088860044
1.088862304
1.08886478
1.088867577
1.088870744
1.088874291
1.088878188
1.088882394
1.08888684
1.088891473
1.088896212
1.088899939
1.088903425
1.08890688
1.088910266
1.088913571
1.088916737
1.088919773
1.088922628
1.088925292
1.08892776
1.088929988
1.088931973
1.08893374
1.088935286
1.088935124
1.088931387
1.088236206
1.086783884
1.088818935
1.0888224
1.088826581
1.088831262
1.088836161
1.08884098
1.088845459
1.088849424
1.08885281
1.088855668
1.088858137
1.088860408
1.088862678
1.08886512
1.088867856
1.088870954
1.088874435
1.088878278
1.08888244
1.088886857
1.088891467
1.088896194
1.08889991
1.088903396
1.08890685
1.088910237
1.088913541
1.088916709
1.088919743
1.0889226
1.088925265
1.088927733
1.088929961
1.088931948
1.088933716
1.088935262
1.088934913
1.08893109
1.088188848
1.086705726
1.088818261
1.088821612
1.088825695
1.088830325
1.088835247
1.088840175
1.088844839
1.088849036
1.088852665
1.088855738
1.088858367
1.088860732
1.088863033
1.088865455
1.088868141
1.088871175
1.088874592
1.088878378
1.088882495
1.088886879
1.088891466
1.088896179
1.08889988
1.088903367
1.08890682
1.088910208
1.08891351
1.08891668
1.088919714
1.088922572
1.088925238
1.088927705
1.088929935
1.088931923
1.088933692
1.088935239
1.088934699
1.088930788
1.088140362
1.086625737
1.088817653
1.088820897
1.088824881
1.088829449
1.088834371
1.088839376
1.088844192
1.088848594
1.08885245
1.088855737
1.088858537
1.088861012
1.088863363
1.088865782
1.088868428
1.088871405
1.088874759
1.088878489
1.088882559
1.088886908
1.08889147
1.088896166
1.088899852
1.088903338
1.088906791
1.088910179
1.08891348
1.088916652
1.088919685
1.088922544
1.088925211
1.088927677
1.088929908
1.088931899
1.088933668
1.088935216
1.088934481
1.08893048
1.088090723
1.086543872
1.088817102
1.088820244
1.088824131
1.088828629
1.088833534
1.088838589
1.088843527
1.088848109
1.088852177
1.088855672
1.088858649
1.088861249
1.088863665
1.088866097
1.088868715
1.088871641
1.088874936
1.088878609
1.088882631
1.088886943
1.088891478
1.088896156
1.088899823
1.088903309
1.088906762
1.08891015
1.08891345
1.088916623
1.088919657
1.088922516
1.088925184
1.08892765
1.088929882
1.088931874
1.088933644
1.088935193
1.08893426
1.088930167
1.088039905
1.086460084
1.088816598
1.088819643
1.088823435
1.08882786
1.088832734
1.08883782
1.088842854
1.088847593
1.088851853
1.08885555
1.088858707
1.088861442
1.088863938
1.088866396
1.088868998
1.088871881
1.088875121
1.088878739
1.088882711
1.088886985
1.088891491
1.08889615
1.088899794
1.08890328
1.088906732
1.088910121
1.08891342
1.088916595
1.088919628
1.088922488
1.088925158
1.088927623
1.088929855
1.08893185
1.08893362
1.08893517
1.088934035
1.088929848
1.087987884
1.086374328
1.088816134
1.088819088
1.088822788
1.088827137
1.088831971
1.08883707
1.08884218
1.088847053
1.088851489
1.088855378
1.088858713
1.088861591
1.088864179
1.088866677
1.088869275
1.088872123
1.088875312
1.088878876
1.088882799
1.088887033
1.088891509
1.088896146
1.088899766
1.088903251
1.088906703
1.088910092
1.088913391
1.088916566
1.088919599
1.088922461
1.088925131
1.088927596
1.088929829
1.088931825
1.088933597
1.088935147
1.088933805
1.088929523
1.08793463
1.086286556
1.088815705
1.088818573
1.088822183
1.088826455
1.088831243
1.088836342
1.088841509
1.088846496
1.08885109
1.08885516
1.088858672
1.088861698
1.088864388
1.088866938
1.088869543
1.088872364
1.088875508
1.08887902
1.088882895
1.088887087
1.088891532
1.088896146
1.088899737
1.088903223
1.088906674
1.088910062
1.088913361
1.088916537
1.088919571
1.088922433
1.088925104
1.088927569
1.088929803
1.088931801
1.088933573
1.088935124
1.088933572
1.088928008
1.087880117
1.086196721
1.088815307
1.088818092
1.088821616
1.088825812
1.088830548
1.088835637
1.088840846
1.088845928
1.088850666
1.088854905
1.088858589
1.088861764
1.088864564
1.088867177
1.088869799
1.088872603
1.088875707
1.08887917
1.088882996
1.088887148
1.088891559
1.088896149
1.088899708
1.088903194
1.088906645
1.088910033
1.088913332
1.088916509
1.088919542
1.088922405
1.088925077
1.088927542
1.088929777
1.088931776
1.08893355
1.088935102
1.088933334
1.088893629
1.087824314
1.086104775
1.088814935
1.088817641
1.088821083
1.088825203
1.088829884
1.088834954
1.088840191
1.088845355
1.088850219
1.088854615
1.088858465
1.088861791
1.088864708
1.088867393
1.088870043
1.088872837
1.088875908
1.088879325
1.088883104
1.088887213
1.088891591
1.088896156
1.08889968
1.088903164
1.088906615
1.088910004
1.088913302
1.08891648
1.088919514
1.088922377
1.08892505
1.088927515
1.088929752
1.088931752
1.088933526
1.088935079
1.088933092
1.088858427
1.087767193
1.086010668
1.088814586
1.088817218
1.088820581
1.088824625
1.08882925
1.088834294
1.088839549
1.088844779
1.088849755
1.088854297
1.088858307
1.088861783
1.088864821
1.088867585
1.088870272
1.088873066
1.088876108
1.088879484
1.088883217
1.088887284
1.088891627
1.088896156
1.088899651
1.088903135
1.088906585
1.088909974
1.088913272
1.088916451
1.088919485
1.088922349
1.088925023
1.088927489
1.088929726
1.088931728
1.088933503
1.088935057
1.088932846
1.088822384
1.087708722
1.085914352
1.088814258
1.08881682
1.088820105
1.088824077
1.088828643
1.088833657
1.08883892
1.088844203
1.088849279
1.088853956
1.088858117
1.08886174
1.088864902
1.088867754
1.088870486
1.088873287
1.088876308
1.088879645
1.088883334
1.08888736
1.088891667
1.088896128
1.088899621
1.088903106
1.088906556
1.088909944
1.088913243
1.088916422
1.088919456
1.088922321
1.088924996
1.088927462
1.0889297
1.088931703
1.088933479
1.088935034
1.088932595
1.088785483
1.087648869
1.085815775
1.088813949
1.088816443
1.088819655
1.088823555
1.088828062
1.08883304
1.088838304
1.088843631
1.088848794
1.088853594
1.088857899
1.088861667
1.088864955
1.088867899
1.088870684
1.088873499
1.088876505
1.088879808
1.088883456
1.08888744
1.088891711
1.088896099
1.088899592
1.088903076
1.088906526
1.088909914
1.088913213
1.088916392
1.088919428
1.088922293
1.088924968
1.088927435
1.088929674
1.088931679
1.088933456
1.088935012
1.088932339
1.088747703
1.087587605
1.085714888
1.088813657
1.088816086
1.088819228
1.088823058
1.088827505
1.088832445
1.088837703
1.088843064
1.088848303
1.088853215
1.088857655
1.088861565
1.088864979
1.088868021
1.088870865
1.088873702
1.088876699
1.088879973
1.088883581
1.088887524
1.08889176
1.08889607
1.088899562
1.088903046
1.088906496
1.088909884
1.088913183
1.088916363
1.088919399
1.088922265
1.088924941
1.088927408
1.088929648
1.088931654
1.088933432
1.088934858
1.088932078
1.088709026
1.087524895
1.085611638
1.088813379
1.088815747
1.088818821
1.088822583
1.088826971
1.08883187
1.088837116
1.088842503
1.088847808
1.088852823
1.088857391
1.088861436
1.088864977
1.088868119
1.088871028
1.088873894
1.088876888
1.088880137
1.088883708
1.088887613
1.088891812
1.08889604
1.088899533
1.088903016
1.088906465
1.088909853
1.088913152
1.088916333
1.088919369
1.088922237
1.088924913
1.088927381
1.088929622
1.088931629
1.088933408
1.088934669
1.088931812
1.088669431
1.087460706
1.085505971
1.088813116
1.088815425
1.088818433
1.088822129
1.088826458
1.088831315
1.088836545
1.08884195
1.088847311
1.08885242
1.088857108
1.088861284
1.088864949
1.088868194
1.088871174
1.088874074
1.088877071
1.0888803
1.088883838
1.088887704
1.088891867
1.088896011
1.088899503
1.088902985
1.088906435
1.088909823
1.088913122
1.088916303
1.08891934
1.088922208
1.088924885
1.088927354
1.088929595
1.088931604
1.088933384
1.088934476
1.088931542
1.088628898
1.087395006
1.085397832
1.088812865
1.088815117
1.088818063
1.088821695
1.088825965
1.088830778
1.088835988
1.088841405
1.088846815
1.088852008
1.088856808
1.08886111
1.088864898
1.088868248
1.088871302
1.088874243
1.088877249
1.088880462
1.088883969
1.088887799
1.088891926
1.088895981
1.088899472
1.088902955
1.088906404
1.088909792
1.088913092
1.088916273
1.088919311
1.088922179
1.088924857
1.088927326
1.088929569
1.088931579
1.08893336
1.088934279
1.088931266
1.088587405
1.08732776
1.085287166
1.088812626
1.088814824
1.088817709
1.088821278
1.088825491
1.088830259
1.088835446
1.088840869
1.088846321
1.088851589
1.088856493
1.088860906
1.088864776
1.08886828
1.088871413
1.0888744
1.08887742
1.088880621
1.088884101
1.088887896
1.088891989
1.088895951
1.088899442
1.088902924
1.088906373
1.088909762
1.088913061
1.088916243
1.088919281
1.08892215
1.088924829
1.088927299
1.088929542
1.088931554
1.088933336
1.088934079
1.088930985
1.088544931
1.087258932
1.085173915
1.088812398
1.088814543
1.08881737
1.088820879
1.088825035
1.088829758
1.088834918
1.088840343
1.088845829
1.088851166
1.088856167
1.088860682
1.088864594
1.088868293
1.088871507
1.088874544
1.088877583
1.088880778
1.088884233
1.088887995
1.088892054
1.088895921
1.088899412
1.088902894
1.088906342
1.088909731
1.08891303
1.088916213
1.088919251
1.088922121
1.088924801
1.088927271
1.088929516
1.088931528
1.088933312
1.088933875
1.088930698
1.088501454
1.087188486
1.085058021
1.088812179
1.088814274
1.088817045
1.088820495
1.088824595
1.088829272
1.088834404
1.088839827
1.088845342
1.08885074
1.088855831
1.088860459
1.088864411
1.088868184
1.088871585
1.088874676
1.088877738
1.088880931
1.088884366
1.088888097
1.088892122
1.088895891
1.088899381
1.088902863
1.088906312
1.0889097
1.088913
1.088916183
1.088919222
1.088922092
1.088924772
1.088927243
1.088929489
1.088931503
1.088933287
1.088933667
1.088930406
1.08845695
1.087116386
1.084939424
1.088811969
1.088814016
1.088816732
1.088820126
1.088824172
1.088828802
1.088833904
1.088839321
1.088844859
1.088850311
1.088855486
1.088860236
1.088864227
1.088868038
1.088871645
1.088874795
1.088877886
1.08888108
1.088884497
1.0888882
1.088892193
1.088895861
1.088899351
1.088902832
1.088906281
1.088909669
1.088912969
1.088916153
1.088919192
1.088922063
1.088924744
1.088927216
1.088929462
1.088931477
1.088933263
1.088933455
1.088930109
1.088411397
1.087042595
1.084818064
1.088811768
1.088813768
1.088816432
1.088819771
1.088823762
1.088828347
1.088833418
1.088838825
1.088844381
1.088849882
1.088855134
1.088859983
1.088864043
1.088867891
1.088871577
1.088874901
1.088878025
1.088881225
1.088884628
1.088888304
1.088892266
1.08889583
1.088899321
1.088902802
1.08890625
1.088909639
1.088912939
1.088916122
1.088919162
1.088922034
1.088924715
1.088927188
1.088929435
1.088931452
1.088933239
1.08893324
1.088929806
1.088364771
1.086967073
1.084693879
1.088811575
1.08881353
1.088816143
1.088819428
1.088823367
1.088827905
1.088832944
1.088838339
1.088843909
1.088849453
1.088854776
1.088859718
1.088863857
1.088867741
1.088871462
1.088874995
1.088878155
1.088881365
1.088884757
1.088888409
1.088892319
1.0888958
1.088899291
1.088902772
1.08890622
1.088909608
1.088912909
1.088916092
1.088919133
1.088922005
1.088924687
1.08892716
1.088929408
1.088931426
1.088933214
1.08893302
1.088929498
1.088317048
1.086889783
1.084566805
1.088811389
1.088813301
1.088815865
1.088819097
1.088822985
1.088827478
1.088832482
1.088837863
1.088843443
1.088849026
1.088854414
1.088859444
1.088863671
1.088867591
1.088871344
1.08887496
1.088878276
1.0888815
1.088884885
1.088888515
1.088892288
1.088895771
1.088899261
1.088902742
1.08890619
1.088909578
1.088912878
1.088916063
1.088919103
1.088921976
1.088924658
1.088927132
1.088929382
1.088931401
1.08893319
1.088932796
1.088929183
1.088268203
1.086810683
1.084436778
1.088811209
1.088813079
1.088815596
1.088818778
1.088822615
1.088827062
1.088832033
1.088837396
1.088842983
1.088848599
1.088854048
1.088859161
1.088863486
1.088867439
1.088871225
1.08887487
1.088878389
1.08888163
1.08888501
1.088888621
1.088892258
1.088895741
1.088899232
1.088902712
1.08890616
1.088909548
1.088912849
1.088916033
1.088919074
1.088921947
1.08892463
1.088927104
1.088929355
1.088931375
1.088933166
1.088932569
1.088928863
1.08821821
1.086729734
1.084303732
1.088811036
1.088812865
1.088815336
1.088818469
1.088822257
1.088826659
1.088831595
1.08883694
1.08884253
1.088848175
1.08885368
1.088858871
1.0888633
1.088867286
1.088871104
1.088874777
1.088878341
1.088881754
1.088885133
1.088888727
1.088892227
1.088895712
1.088899203
1.088902683
1.08890613
1.088909518
1.088912819
1.088916003
1.088919045
1.088921918
1.088924602
1.088927077
1.088929328
1.08893135
1.088933142
1.088932337
1.088928538
1.088167043
1.086646893
1.0841676
1.088810868
1.088812658
1.088815085
1.08881817
1.088821909
1.088826267
1.088831168
1.088836493
1.088842083
1.088847754
1.08885331
1.088858574
1.088863115
1.088867132
1.088870981
1.088874683
1.08887827
1.088881782
1.088885253
1.088888722
1.088892196
1.088895682
1.088899174
1.088902654
1.088906101
1.088909489
1.088912789
1.088915974
1.088919015
1.088921889
1.088924574
1.088927049
1.088929302
1.088931324
1.088933118
1.088932101
1.088928206
1.088114677
1.086562118
1.084028313
1.088810705
1.088812458
1.088814841
1.08881788
1.088821572
1.088825886
1.088830751
1.088836055
1.088841644
1.088847336
1.088852938
1.088858272
1.08886293
1.088866978
1.088870857
1.088874587
1.088878197
1.088881727
1.088885214
1.088888687
1.088892165
1.088895653
1.088899145
1.088902625
1.088906072
1.08890946
1.08891276
1.088915945
1.088918986
1.088921861
1.088924545
1.088927022
1.088929275
1.088931299
1.088933094
1.08893186
1.088927868
1.088061084
1.086475365
1.0838858
1.088810547
1.088812263
1.088814605
1.088817598
1.088821245
1.088825515
1.088830345
1.088835626
1.08884121
1.088846921
1.088852566
1.088857965
1.088862746
1.088866823
1.088870732
1.088874489
1.088878123
1.088881671
1.088885171
1.088888652
1.088892135
1.088895624
1.088899117
1.088902597
1.088906044
1.088909431
1.088912731
1.088915916
1.088918958
1.088921832
1.088924517
1.088926995
1.088929249
1.088931274
1.088933071
1.088931616
1.088927524
1.088006235
1.086386591
1.083739991
1.088810394
1.088812074
1.088814376
1.088817325
1.088820926
1.088825154
1.088829948
1.088835205
1.088840784
1.08884651
1.088852193
1.088857653
1.088862562
1.088866668
1.088870606
1.08887439
1.088878048
1.088881614
1.088885127
1.088888617
1.088892103
1.088895596
1.088899089
1.088902569
1.088906015
1.088909402
1.088912702
1.088915887
1.088918929
1.088921804
1.08892449
1.088926967
1.088929223
1.088931249
1.088933047
1.088931366
1.088927174
1.087950104
1.086295749
1.083590812
1.088810245
1.088811891
1.088814153
1.088817059
1.088820616
1.088824802
1.08882956
1.088834793
1.088840364
1.088846102
1.088851821
1.088857338
1.088862379
1.088866512
1.088870479
1.08887429
1.088877971
1.088881556
1.088885082
1.08888858
1.088892072
1.088895567
1.08889906
1.088902541
1.088905987
1.088909373
1.088912673
1.088915858
1.0889189
1.088921776
1.088924462
1.08892694
1.088929197
1.088931224
1.088933024
1.088931112
1.088926818
1.08789266
1.086202793
1.083438188
1.0888101
1.088811712
1.088813936
1.0888168
1.088820315
1.088824459
1.088829182
1.088834389
1.08883995
1.088845698
1.08885145
1.08885702
1.088862197
1.088866356
1.08887035
1.088874188
1.088877892
1.088881496
1.088885036
1.088888544
1.088892041
1.088895538
1.088899032
1.088902513
1.088905958
1.088909345
1.088912644
1.088915829
1.088918871
1.088921747
1.088924434
1.088926913
1.088929171
1.0889312
1.088933001
1.088930854
1.088911996
1.087833873
1.086107676
1.083282044
1.088809958
1.088811538
1.088813724
1.088816548
1.08882002
1.088824124
1.088828811
1.088833993
1.088839543
1.088845299
1.088851079
1.0888567
1.088862004
1.0888662
1.088870221
1.088874085
1.088877812
1.088881435
1.088884989
1.088888506
1.088892009
1.088895509
1.088899004
1.088902485
1.08890593
1.088909316
1.088912616
1.0889158
1.088918843
1.088921719
1.088924406
1.088926886
1.088929145
1.088931175
1.088932969
1.08893059
1.088874296
1.087773713
1.086010349
1.083122301
1.08880982
1.088811368
1.088813518
1.088816303
1.088819734
1.088823798
1.088828449
1.088833605
1.088839142
1.088844903
1.08885071
1.088856378
1.088861746
1.088866043
1.088870091
1.08887398
1.088877731
1.088881373
1.088884941
1.088888468
1.088891976
1.088895479
1.088898976
1.088902457
1.088905902
1.088909288
1.088912587
1.088915771
1.088918814
1.088921691
1.088924379
1.088926859
1.088929119
1.08893115
1.088932774
1.088930322
1.088835701
1.087712148
1.085910763
1.08295888
1.088809685
1.088811202
1.088813318
1.088816063
1.088819454
1.088823478
1.088828095
1.088833224
1.088838747
1.088844512
1.088850342
1.088856054
1.088861484
1.088865887
1.08886996
1.088873874
1.088877648
1.088881309
1.088884892
1.088888429
1.088891943
1.088895449
1.088898948
1.088902429
1.088905874
1.088909259
1.088912558
1.088915742
1.088918785
1.088921662
1.088924351
1.088926832
1.088929093
1.088931125
1.088932576
1.088930048
1.088796192
1.087649146
1.085808866
1.0827917
1.088809553
1.08881104
1.088813121
1.08881583
1.088819181
1.088823166
1.088827748
1.08883285
1.088838359
1.088844125
1.088849976
1.088855728
1.088861217
1.08886573
1.088869828
1.088873767
1.088877564
1.088881244
1.088884842
1.088888388
1.08889191
1.088895419
1.088898919
1.0889024
1.088905845
1.08890923
1.088912529
1.088915713
1.088918757
1.088921634
1.088924323
1.088926805
1.088929067
1.0889311
1.088932375
1.088929769
1.08875575
1.087584673
1.085704607
1.082620679
1.088809424
1.088810882
1.08881293
1.088815602
1.088818914
1.088822862
1.088827408
1.088832483
1.088837976
1.088843743
1.088849612
1.088855402
1.088860947
1.088865574
1.088869695
1.088873659
1.088877478
1.088881177
1.08888479
1.088888347
1.088891875
1.088895389
1.08889889
1.088902372
1.088905816
1.088909201
1.0889125
1.088915684
1.088918728
1.088921606
1.088924295
1.088926778
1.088929041
1.088931076
1.088932169
1.088929485
1.088714354
1.087518697
1.085597933
1.082445732
1.088809298
1.088810728
1.088812743
1.088815379
1.088818654
1.088822564
1.088827076
1.088832123
1.0888376
1.088843365
1.08884925
1.088855076
1.088860674
1.088865418
1.088869562
1.08887355
1.088877391
1.088881109
1.088884737
1.088888305
1.08889184
1.088895357
1.088898861
1.088902343
1.088905787
1.088909172
1.08891247
1.088915655
1.088918699
1.088921577
1.088924267
1.088926751
1.088929015
1.088931051
1.088931959
1.088929195
1.088671983
1.087451183
1.08548879
1.082266772
1.088809175
1.088810577
1.088812561
1.088815161
1.088818399
1.088822272
1.088826751
1.08883177
1.08883723
1.088842992
1.088848891
1.088854749
1.088860397
1.088865261
1.088869429
1.088873439
1.088877302
1.08888104
1.088884683
1.088888262
1.088891804
1.088895325
1.088898831
1.088902314
1.088905758
1.088909143
1.088912441
1.088915626
1.08891867
1.088921548
1.088924239
1.088926724
1.088928989
1.088931026
1.088931746
1.0889289
1.088628615
1.087382096
1.085377123
1.082083713
1.088809055
1.08881043
1.088812383
1.088814949
1.08881815
1.088821987
1.088826432
1.088831424
1.088836865
1.088842623
1.088848534
1.088854423
1.088860119
1.088865106
1.088869294
1.088873328
1.088877212
1.088880969
1.088884627
1.088888218
1.088891767
1.088895293
1.0888988
1.088902284
1.088905729
1.088909113
1.088912412
1.088915596
1.088918641
1.08892152
1.088924211
1.088926697
1.088928962
1.088931
1.088931528
1.088928599
1.08858423
1.087311401
1.085262876
1.081896465
1.088808937
1.088810286
1.088812209
1.088814742
1.088817908
1.088821709
1.08882612
1.088831084
1.088836506
1.088842258
1.08884818
1.088854097
1.088859838
1.08886495
1.08886916
1.088873215
1.088877121
1.088880897
1.088884571
1.088888173
1.08889173
1.08889526
1.08889877
1.088902254
1.088905699
1.088909084
1.088912382
1.088915567
1.088918612
1.088921491
1.088924183
1.088926669
1.088928936
1.088930975
1.088931306
1.088928292
1.088538803
1.087239063
1.085145991
1.081704936
1.088808822
1.088810146
1.088812039
1.088814539
1.08881767
1.088821436
1.088825814
1.08883075
1.088836154
1.088841899
1.08884783
1.088853772
1.088859556
1.088864795
1.088869026
1.088873102
1.088877029
1.088880824
1.088884513
1.088888127
1.088891692
1.088895226
1.088898739
1.088902224
1.088905669
1.088909054
1.088912352
1.088915537
1.088918582
1.088921463
1.088924155
1.088926642
1.08892891
1.08893095
1.08893108
1.088927979
1.088492313
1.087165043
1.085026409
1.081509034
1.08880871
1.088810008
1.088811873
1.088814341
1.088817438
1.088821169
1.088825515
1.088830423
1.088835807
1.088841544
1.088847482
1.088853448
1.088859272
1.088864641
1.088868891
1.088872989
1.088876936
1.08888075
1.088884454
1.088888079
1.088891652
1.088895192
1.088898707
1.088902194
1.088905639
1.088909024
1.088912322
1.088915508
1.088918553
1.088921434
1.088924127
1.088926615
1.088928883
1.088930925
1.088930849
1.08892766
1.088444736
1.087089305
1.084904072
1.081308663
1.088808601
1.088809875
1.088811711
1.088814148
1.088817211
1.088820909
1.088825221
1.088830102
1.088835465
1.088841194
1.088847137
1.088853126
1.088858987
1.088864488
1.088868756
1.088872875
1.088876842
1.088880674
1.088884394
1.088888031
1.088891613
1.088895158
1.088898675
1.088902163
1.088905609
1.088908994
1.088912292
1.088915478
1.088918524
1.088921405
1.088924099
1.088926588
1.088928857
1.088930899
1.088930615
1.088927335
1.088396047
1.08701181
1.084778917
1.081103727
1.088808494
1.088809744
1.088811552
1.088813959
1.08881699
1.088820653
1.088824934
1.088829786
1.08883513
1.088840848
1.088846796
1.088852804
1.088858702
1.088864335
1.088868622
1.08887276
1.088876748
1.088880598
1.088884333
1.088887982
1.088891572
1.088895123
1.088898643
1.088902133
1.088905579
1.088908964
1.088912263
1.088915449
1.088918495
1.088921377
1.088924072
1.08892656
1.08892883
1.088930874
1.088930375
1.088927004
1.088346222
1.086932519
1.084650884
1.080894127
1.08880839
1.088809616
1.088811398
1.088813774
1.088816773
1.088820404
1.088824653
1.088829477
1.088834799
1.088840508
1.088846458
1.088852485
1.088858416
1.088864098
1.088868487
1.088872645
1.088876652
1.088880521
1.088884271
1.088887933
1.088891531
1.088895087
1.088898611
1.088902102
1.088905549
1.088908934
1.088912233
1.088915419
1.088918466
1.088921348
1.088924044
1.088926533
1.088928804
1.088930849
1.088930132
1.088926667
1.088295236
1.086851392
1.084519908
1.080679766
1.088808288
1.088809491
1.088811247
1.088813594
1.088816561
1.088820159
1.088824377
1.088829173
1.088834475
1.088840172
1.088846123
1.088852167
1.08885813
1.088863858
1.088868353
1.08887253
1.088876556
1.088880443
1.088884209
1.088887882
1.08889149
1.088895051
1.088898578
1.088902071
1.088905519
1.088908904
1.088912203
1.08891539
1.088918437
1.08892132
1.088924016
1.088926506
1.088928778
1.088930824
1.088929884
1.088926324
1.088243063
1.086768389
1.084385928
1.080460544
1.088808188
1.088809369
1.088811099
1.088813417
1.088816353
1.088819919
1.088824106
1.088828875
1.088834155
1.08883984
1.088845792
1.08885185
1.088857844
1.088863616
1.08886822
1.088872415
1.08887646
1.088880364
1.088884146
1.088887831
1.088891448
1.088895015
1.088898545
1.08890204
1.088905489
1.088908875
1.088912174
1.088915361
1.088918409
1.088921292
1.088923988
1.088926479
1.088928752
1.088930799
1.088929631
1.088925974
1.088189677
1.086683467
1.084248878
1.080235468
1.08880809
1.08880925
1.088810954
1.088813244
1.08881615
1.088819685
1.088823841
1.088828582
1.08883384
1.088839513
1.088845465
1.088851536
1.088857559
1.088863373
1.088868086
1.088872299
1.088876363
1.088880285
1.088884082
1.08888778
1.088891405
1.088894979
1.088898513
1.088902009
1.088905459
1.088908845
1.088912145
1.088915332
1.08891838
1.088921264
1.088923961
1.088926452
1.088928726
1.088930774
1.088929374
1.088925618
1.088135051
1.086596585
1.084108694
1.080003945
1.088807995
1.088809133
1.088810812
1.088813075
1.088815951
1.088819455
1.08882358
1.088828294
1.088833531
1.08883919
1.08884514
1.088851224
1.088857273
1.088863128
1.088867954
1.088872184
1.088876266
1.088880205
1.088884017
1.088887728
1.088891362
1.088894942
1.08889848
1.088901978
1.088905429
1.088908816
1.088912116
1.088915303
1.088918352
1.088921236
1.088923934
1.088926426
1.0889287
1.088930749
1.088929112
1.088925255
1.088079158
1.0865077
1.083965308
1.079767172
1.088807901
1.088809018
1.088810673
1.088812909
1.088815755
1.088819229
1.088823325
1.088828011
1.088833226
1.088838872
1.088844819
1.088850914
1.088856988
1.088862881
1.088867821
1.088872069
1.088876168
1.088880124
1.088883952
1.088887675
1.088891319
1.088894905
1.088898447
1.088901947
1.088905399
1.088908786
1.088912087
1.088915274
1.088918323
1.088921208
1.088923906
1.088926399
1.088928674
1.088930724
1.088928845
1.088924886
1.088021968
1.086416766
1.083818649
1.079525035
1.088807809
1.088808905
1.088810537
1.088812746
1.088815563
1.088819007
1.088823073
1.088827733
1.088832926
1.088838557
1.088844502
1.088850606
1.088856704
1.088862634
1.088867689
1.088871953
1.088876071
1.088880043
1.088883886
1.088887622
1.088891275
1.088894868
1.088898414
1.088901917
1.08890537
1.088908757
1.088912058
1.088915246
1.088918295
1.08892118
1.088923879
1.088926372
1.088928648
1.088930577
1.088928573
1.08892451
1.087963455
1.086323741
1.083668647
1.079277419
1.088807718
1.088808794
1.088810402
1.088812585
1.088815375
1.088818789
1.088822826
1.088827459
1.08883263
1.088838247
1.088844187
1.0888503
1.08885642
1.088862386
1.088867558
1.088871838
1.088875972
1.088879962
1.08888382
1.088887568
1.088891231
1.088894831
1.088898381
1.088901886
1.08890534
1.088908728
1.088912029
1.088915217
1.088918267
1.088921153
1.088923852
1.088926346
1.088928622
1.088930374
1.088928296
1.088924127
1.087903588
1.086228576
1.083515228
1.079024205
1.088807628
1.088808684
1.08881027
1.088812428
1.088815189
1.088818575
1.088822583
1.088827189
1.088832338
1.08883794
1.088843876
1.088849996