/*--------------------------------*- C++ -*----------------------------------*\
| =========                 |                                                 |
| \\      /  F ield         | OpenFOAM: The Open Source CFD Toolbox           |
|  \\    /   O peration     | Version:  v2006                                 |
|   \\  /    A nd           | Website:  www.openfoam.com                      |
|    \\/     M anipulation  |                                                 |
\*---------------------------------------------------------------------------*/
FoamFile
{
    version     2.0;
    format      ascii;
    class       volScalarField;
    location    "0.09";
    object      rho_0;
}
// * * * * * * * * * * * * * * * * * * * * * * * * * * * * * * * * * * * * * //

dimensions      [1 -3 0 0 0 0 0];


internalField   nonuniform List<scalar> 
168000
(
1.088835796
1.088838468
1.088840332
1.088841837
1.088843251
1.08884471
1.088846198
1.088847785
1.088849626
1.088851696
1.088853964
1.088856543
1.088859416
1.088862552
1.088865987
1.088869708
1.088873691
1.088877874
1.088882358
1.088886893
1.088891669
1.088896426
1.088900191
1.088903656
1.08890714
1.08891048
1.088913858
1.088916945
1.088920023
1.088922864
1.088925499
1.088927998
1.088930212
1.088932171
1.088933935
1.088935484
1.088936705
1.088933571
1.088577087
1.087348693
1.088830949
1.088834924
1.088838215
1.088840902
1.088843148
1.088845105
1.088846874
1.088848586
1.08885038
1.088852337
1.088854495
1.088856938
1.088859684
1.088862737
1.088866095
1.088869761
1.088873711
1.088877873
1.088882332
1.088886872
1.08889163
1.088896395
1.088900156
1.088903627
1.088907102
1.088910457
1.088913814
1.088916922
1.088919988
1.088922833
1.088925474
1.088927966
1.088930182
1.088932146
1.08893391
1.088935458
1.088936515
1.088933315
1.088537991
1.087283532
1.088827905
1.088832142
1.088836158
1.088839679
1.088842662
1.08884517
1.088847307
1.088849218
1.088851063
1.088852974
1.088855044
1.08885737
1.08886
1.088862954
1.088866233
1.088869838
1.088873744
1.088877887
1.088882311
1.088886854
1.088891594
1.088896364
1.088900121
1.088903597
1.088907066
1.088910431
1.088913772
1.088916897
1.088919954
1.088922801
1.088925447
1.088927933
1.088930152
1.08893212
1.088933884
1.088935431
1.088936322
1.088933053
1.088497923
1.087216912
1.088825735
1.088829941
1.088834283
1.088838349
1.088841927
1.088844963
1.088847506
1.088849681
1.08885165
1.088853576
1.088855595
1.088857828
1.088860351
1.088863206
1.088866402
1.088869939
1.088873795
1.088877911
1.088882303
1.088886842
1.088891564
1.088896335
1.08890009
1.088903569
1.088907034
1.088910406
1.088913736
1.088916872
1.088919923
1.088922772
1.088925423
1.088927904
1.088930125
1.088932096
1.08893386
1.088935407
1.08893613
1.088932789
1.088456872
1.087148788
1.088824051
1.088828149
1.088832612
1.088837011
1.088841041
1.088844545
1.088847496
1.088849974
1.088852124
1.08885412
1.088856128
1.088858296
1.088860727
1.088863486
1.088866596
1.088870061
1.088873862
1.088877944
1.088882303
1.088886832
1.088891538
1.088896307
1.088900059
1.088903541
1.088907002
1.088910379
1.088913702
1.088916847
1.088919893
1.088922743
1.088925397
1.088927875
1.088930098
1.088932072
1.088933837
1.088935383
1.088935935
1.08893252
1.088414819
1.087079107
1.088822681
1.08882665
1.088831127
1.088835717
1.088840076
1.088843975
1.088847312
1.088850109
1.088852479
1.088854592
1.08885663
1.088858761
1.088861118
1.088863788
1.088866813
1.088870204
1.088873945
1.088877988
1.088882312
1.088886826
1.088891515
1.08889628
1.088900028
1.088903511
1.088906971
1.088910351
1.088913668
1.08891682
1.088919862
1.088922714
1.088925371
1.088927846
1.08893007
1.088932047
1.088933812
1.088935358
1.088935737
1.088932244
1.088371745
1.087007822
1.088821531
1.088825369
1.088829805
1.088834491
1.08883908
1.0888433
1.088846987
1.088850102
1.088852718
1.088854985
1.088857088
1.088859213
1.088861516
1.088864108
1.088867051
1.088870366
1.088874044
1.088878043
1.088882329
1.088886825
1.088891496
1.088896255
1.088899997
1.088903482
1.08890694
1.088910323
1.088913635
1.088916792
1.088919832
1.088922685
1.088925345
1.088927817
1.088930042
1.088932022
1.088933788
1.088935334
1.088935536
1.088931964
1.088327633
1.086934887
1.088820546
1.088824255
1.088828619
1.088833339
1.088838085
1.088842558
1.088846552
1.088849973
1.088852846
1.088855294
1.088857495
1.088859643
1.088861913
1.08886444
1.088867306
1.088870546
1.08887416
1.088878109
1.088882356
1.088886829
1.088891482
1.088896232
1.088899967
1.088903453
1.088906909
1.088910294
1.088913602
1.088916764
1.088919802
1.088922657
1.088925318
1.088927788
1.088930015
1.088931997
1.088933764
1.08893531
1.088935332
1.088931678
1.08828246
1.086860256
1.088819689
1.088823273
1.088827549
1.088832263
1.088837106
1.088841777
1.088846034
1.088849739
1.088852872
1.08885552
1.088857845
1.088860042
1.088862302
1.088864778
1.088867575
1.088870742
1.08887429
1.088878187
1.088882393
1.088886839
1.088891471
1.088896211
1.088899938
1.088903424
1.088906879
1.088910265
1.088913571
1.088916736
1.088919772
1.088922628
1.088925291
1.08892776
1.088929988
1.088931973
1.088933739
1.088935286
1.088935124
1.088931387
1.088236206
1.086783884
1.088818933
1.088822397
1.088826579
1.088831259
1.088836158
1.088840977
1.088845456
1.088849421
1.088852807
1.088855666
1.088858135
1.088860406
1.088862676
1.088865117
1.088867853
1.088870952
1.088874433
1.088878276
1.088882438
1.088886855
1.088891466
1.088896192
1.088899908
1.088903395
1.088906849
1.088910236
1.08891354
1.088916708
1.088919743
1.0889226
1.088925264
1.088927732
1.088929961
1.088931948
1.088933715
1.088935262
1.088934913
1.08893109
1.088188848
1.086705727
1.088818258
1.088821609
1.088825692
1.088830322
1.088835244
1.088840173
1.088844836
1.088849034
1.088852662
1.088855735
1.088858365
1.088860729
1.08886303
1.088865453
1.088868138
1.088871173
1.08887459
1.088878376
1.088882493
1.088886877
1.088891465
1.088896177
1.088899879
1.088903366
1.088906819
1.088910207
1.088913509
1.08891668
1.088919714
1.088922571
1.088925237
1.088927704
1.088929934
1.088931923
1.088933691
1.088935238
1.088934699
1.088930788
1.088140362
1.086625738
1.088817651
1.088820895
1.088824879
1.088829447
1.088834369
1.088839374
1.08884419
1.088848592
1.088852448
1.088855735
1.088858535
1.08886101
1.08886336
1.08886578
1.088868426
1.088871403
1.088874757
1.088878487
1.088882557
1.088886906
1.088891468
1.088896164
1.08889985
1.088903337
1.08890679
1.088910178
1.088913479
1.088916651
1.088919685
1.088922543
1.088925211
1.088927677
1.088929907
1.088931898
1.088933667
1.088935215
1.088934481
1.08893048
1.088090723
1.086543872
1.0888171
1.088820242
1.088824129
1.088828627
1.088833532
1.088838588
1.088843525
1.088848108
1.088852175
1.08885567
1.088858647
1.088861247
1.088863663
1.088866095
1.088868713
1.088871639
1.088874934
1.088878607
1.088882629
1.088886942
1.088891477
1.088896155
1.088899822
1.088903308
1.088906761
1.088910149
1.088913449
1.088916623
1.088919656
1.088922515
1.088925184
1.088927649
1.088929881
1.088931873
1.088933643
1.088935192
1.088934259
1.088930167
1.088039906
1.086460085
1.088816597
1.088819642
1.088823434
1.088827859
1.088832733
1.088837819
1.088842853
1.088847592
1.088851852
1.088855549
1.088858706
1.088861441
1.088863936
1.088866394
1.088868997
1.08887188
1.088875119
1.088878737
1.08888271
1.088886984
1.08889149
1.088896148
1.088899793
1.088903279
1.088906732
1.08891012
1.08891342
1.088916594
1.088919627
1.088922488
1.088925157
1.088927622
1.088929855
1.088931849
1.08893362
1.088935169
1.088934034
1.088929848
1.087987884
1.086374328
1.088816134
1.088819088
1.088822787
1.088827136
1.088831971
1.08883707
1.08884218
1.088847052
1.088851488
1.088855377
1.088858713
1.08886159
1.088864178
1.088866676
1.088869274
1.088872122
1.088875311
1.088878874
1.088882798
1.088887032
1.088891508
1.088896146
1.088899765
1.088903251
1.088906703
1.088910091
1.08891339
1.088916566
1.088919599
1.08892246
1.08892513
1.088927595
1.088929829
1.088931824
1.088933596
1.088935146
1.088933805
1.088929523
1.087934631
1.086286556
1.088815706
1.088818573
1.088822184
1.088826456
1.088831244
1.088836343
1.08884151
1.088846496
1.088851091
1.088855161
1.088858673
1.088861698
1.088864388
1.088866937
1.088869542
1.088872364
1.088875507
1.088879019
1.088882894
1.088887087
1.088891531
1.088896146
1.088899737
1.088903222
1.088906674
1.088910062
1.088913361
1.088916537
1.08891957
1.088922432
1.088925103
1.088927568
1.088929803
1.0889318
1.088933572
1.088935123
1.088933571
1.088928007
1.087880117
1.086196721
1.088815308
1.088818093
1.088821618
1.088825813
1.08883055
1.088835638
1.088840847
1.08884593
1.088850667
1.088854906
1.08885859
1.088861765
1.088864565
1.088867177
1.0888698
1.088872603
1.088875707
1.08887917
1.088882996
1.088887147
1.088891559
1.08889615
1.088899708
1.088903194
1.088906645
1.088910033
1.088913331
1.088916508
1.088919542
1.088922405
1.088925076
1.088927542
1.088929777
1.088931776
1.088933549
1.088935101
1.088933334
1.088893629
1.087824315
1.086104775
1.088814937
1.088817644
1.088821085
1.088825205
1.088829887
1.088834957
1.088840194
1.088845357
1.088850221
1.088854617
1.088858467
1.088861793
1.08886471
1.088867394
1.088870044
1.088872838
1.088875908
1.088879325
1.088883104
1.088887214
1.088891591
1.088896157
1.08889968
1.088903165
1.088906615
1.088910004
1.088913302
1.08891648
1.088919514
1.088922377
1.088925049
1.088927515
1.088929751
1.088931751
1.088933526
1.088935078
1.088933091
1.088858427
1.087767193
1.086010669
1.088814589
1.088817222
1.088820584
1.088824628
1.088829253
1.088834297
1.088839552
1.088844782
1.088849758
1.0888543
1.08885831
1.088861785
1.088864823
1.088867588
1.088870274
1.088873067
1.08887611
1.088879485
1.088883218
1.088887285
1.088891628
1.088896157
1.088899652
1.088903136
1.088906586
1.088909974
1.088913273
1.088916451
1.088919485
1.088922349
1.088925022
1.088927488
1.088929725
1.088931727
1.088933502
1.088935056
1.088932845
1.088822384
1.087708722
1.085914352
1.088814262
1.088816823
1.088820109
1.088824081
1.088828647
1.08883366
1.088838923
1.088844207
1.088849283
1.08885396
1.08885812
1.088861744
1.088864905
1.088867757
1.088870489
1.088873289
1.08887631
1.088879647
1.088883336
1.088887361
1.088891668
1.088896129
1.088899623
1.088903107
1.088906557
1.088909945
1.088913243
1.088916422
1.088919456
1.088922321
1.088924995
1.088927462
1.0889297
1.088931703
1.088933479
1.088935033
1.088932594
1.088785482
1.087648869
1.085815775
1.088813953
1.088816447
1.088819659
1.088823559
1.088828066
1.088833045
1.088838308
1.088843635
1.088848798
1.088853598
1.088857902
1.088861671
1.088864958
1.088867902
1.088870687
1.088873502
1.088876508
1.088879811
1.088883458
1.088887442
1.088891713
1.088896101
1.088899594
1.088903077
1.088906527
1.088909915
1.088913213
1.088916392
1.088919428
1.088922293
1.088924968
1.088927435
1.088929674
1.088931678
1.088933455
1.088935011
1.088932338
1.088747703
1.087587605
1.085714888
1.088813661
1.08881609
1.088819232
1.088823062
1.08882751
1.08883245
1.088837707
1.088843068
1.088848307
1.088853219
1.08885766
1.088861569
1.088864983
1.088868024
1.088870868
1.088873705
1.088876701
1.088879975
1.088883583
1.088887527
1.088891762
1.088896072
1.088899564
1.088903047
1.088906497
1.088909885
1.088913183
1.088916363
1.088919399
1.088922265
1.088924941
1.088927408
1.088929648
1.088931654
1.088933432
1.088934857
1.088932078
1.088709026
1.087524894
1.085611638
1.088813384
1.088815751
1.088818825
1.088822587
1.088826975
1.088831875
1.088837121
1.088842507
1.088847812
1.088852827
1.088857395
1.08886144
1.088864981
1.088868122
1.088871031
1.088873897
1.088876891
1.08888014
1.088883711
1.088887615
1.088891814
1.088896043
1.088899535
1.088903017
1.088906466
1.088909854
1.088913153
1.088916333
1.088919369
1.088922237
1.088924913
1.088927381
1.088929622
1.088931629
1.088933408
1.088934668
1.088931812
1.088669431
1.087460706
1.085505971
1.08881312
1.088815428
1.088818437
1.088822133
1.088826462
1.088831319
1.088836549
1.088841954
1.088847315
1.088852423
1.088857112
1.088861287
1.088864953
1.088868198
1.088871177
1.088874078
1.088877074
1.088880303
1.088883841
1.088887707
1.08889187
1.088896013
1.088899504
1.088902987
1.088906436
1.088909824
1.088913123
1.088916303
1.08891934
1.088922208
1.088924885
1.088927354
1.088929595
1.088931604
1.088933384
1.088934476
1.088931541
1.088628898
1.087395006
1.085397832
1.088812868
1.08881512
1.088818066
1.088821698
1.088825969
1.088830782
1.088835991
1.088841408
1.088846819
1.088852011
1.088856811
1.088861113
1.088864902
1.088868251
1.088871305
1.088874246
1.088877252
1.088880464
1.088883972
1.088887801
1.088891929
1.088895983
1.088899474
1.088902956
1.088906405
1.088909793
1.088913092
1.088916273
1.088919311
1.088922179
1.088924857
1.088927326
1.088929569
1.088931579
1.08893336
1.088934279
1.088931266
1.088587405
1.08732776
1.085287166
1.088812629
1.088814826
1.088817711
1.088821281
1.088825494
1.088830262
1.088835448
1.088840872
1.088846324
1.088851592
1.088856496
1.088860908
1.088864778
1.088868283
1.088871416
1.088874403
1.088877422
1.088880624
1.088884103
1.088887898
1.088891991
1.088895953
1.088899444
1.088902926
1.088906374
1.088909762
1.088913061
1.088916243
1.088919281
1.08892215
1.088924829
1.088927299
1.088929542
1.088931554
1.088933336
1.088934079
1.088930985
1.088544931
1.087258932
1.085173915
1.088812399
1.088814544
1.088817371
1.088820881
1.088825037
1.088829759
1.08883492
1.088840345
1.088845831
1.088851168
1.088856169
1.088860684
1.088864596
1.088868295
1.088871509
1.088874546
1.088877585
1.08888078
1.088884235
1.088887997
1.088892056
1.088895922
1.088899413
1.088902895
1.088906343
1.088909731
1.088913031
1.088916213
1.088919251
1.088922121
1.088924801
1.088927271
1.088929516
1.088931529
1.088933312
1.088933875
1.088930698
1.088501454
1.087188486
1.085058021
1.088812179
1.088814275
1.088817045
1.088820496
1.088824596
1.088829273
1.088834405
1.088839828
1.088845343
1.08885074
1.088855832
1.08886046
1.088864413
1.088868185
1.088871586
1.088874677
1.08887774
1.088880932
1.088884367
1.088888098
1.088892123
1.088895892
1.088899382
1.088902864
1.088906312
1.0889097
1.088913
1.088916183
1.088919222
1.088922092
1.088924772
1.088927243
1.088929489
1.088931503
1.088933288
1.088933667
1.088930406
1.08845695
1.087116386
1.084939424
1.088811969
1.088814016
1.088816732
1.088820126
1.088824171
1.088828801
1.088833904
1.08883932
1.088844859
1.088850311
1.088855486
1.088860236
1.088864228
1.088868039
1.088871646
1.088874795
1.088877887
1.088881081
1.088884498
1.0888882
1.088892193
1.088895861
1.088899352
1.088902833
1.088906281
1.088909669
1.088912969
1.088916152
1.088919192
1.088922063
1.088924744
1.088927216
1.088929462
1.088931478
1.088933263
1.088933456
1.088930109
1.088411397
1.087042595
1.084818064
1.088811767
1.088813767
1.088816431
1.088819769
1.088823761
1.088828345
1.088833416
1.088838823
1.08884438
1.088849881
1.088855133
1.088859982
1.088864042
1.08886789
1.088871577
1.088874901
1.088878025
1.088881225
1.088884628
1.088888304
1.088892266
1.088895831
1.088899321
1.088902802
1.08890625
1.088909639
1.088912939
1.088916122
1.088919162
1.088922034
1.088924715
1.088927188
1.088929435
1.088931452
1.088933239
1.08893324
1.088929806
1.088364771
1.086967073
1.084693879
1.088811572
1.088813528
1.088816141
1.088819426
1.088823365
1.088827903
1.088832942
1.088838336
1.088843907
1.088849451
1.088854775
1.088859717
1.088863856
1.08886774
1.088871461
1.088874994
1.088878154
1.088881365
1.088884757
1.088888409
1.088892319
1.0888958
1.088899291
1.088902772
1.08890622
1.088909608
1.088912908
1.088916092
1.088919133
1.088922005
1.088924687
1.08892716
1.088929409
1.088931426
1.088933215
1.08893302
1.088929498
1.088317048
1.086889783
1.084566805
1.088811386
1.088813298
1.088815862
1.088819094
1.088822982
1.088827475
1.088832479
1.08883786
1.08884344
1.088849023
1.088854412
1.088859442
1.088863669
1.088867589
1.088871342
1.088874959
1.088878275
1.088881499
1.088884884
1.088888514
1.088892288
1.08889577
1.088899261
1.088902741
1.088906189
1.088909578
1.088912878
1.088916062
1.088919103
1.088921976
1.088924658
1.088927132
1.088929382
1.088931401
1.088933191
1.088932797
1.088929184
1.088268203
1.086810683
1.084436778
1.088811206
1.088813076
1.088815593
1.088818774
1.088822612
1.088827059
1.08883203
1.088837393
1.08884298
1.088848596
1.088854045
1.088859158
1.088863483
1.088867436
1.088871223
1.088874868
1.088878387
1.088881628
1.088885009
1.088888619
1.088892257
1.08889574
1.088899231
1.088902712
1.088906159
1.088909548
1.088912848
1.088916033
1.088919074
1.088921947
1.08892463
1.088927105
1.088929355
1.088931375
1.088933166
1.088932569
1.088928864
1.08821821
1.086729734
1.084303732
1.088811032
1.088812862
1.088815333
1.088818465
1.088822253
1.088826656
1.088831591
1.088836936
1.088842527
1.088848172
1.088853677
1.088858868
1.088863297
1.088867283
1.088871101
1.088874775
1.088878339
1.088881752
1.088885131
1.088888725
1.088892226
1.08889571
1.088899201
1.088902682
1.08890613
1.088909518
1.088912819
1.088916003
1.088919045
1.088921918
1.088924602
1.088927077
1.088929328
1.08893135
1.088933142
1.088932337
1.088928538
1.088167044
1.086646893
1.0841676
1.088810864
1.088812655
1.088815082
1.088818166
1.088821906
1.088826264
1.088831164
1.088836489
1.08884208
1.088847751
1.088853306
1.088858571
1.088863112
1.088867129
1.088870979
1.08887468
1.088878268
1.08888178
1.088885251
1.088888721
1.088892195
1.088895681
1.088899173
1.088902653
1.0889061
1.088909488
1.088912789
1.088915974
1.088919016
1.08892189
1.088924574
1.088927049
1.088929302
1.088931325
1.088933119
1.088932101
1.088928207
1.088114677
1.086562118
1.084028313
1.088810702
1.088812455
1.088814838
1.088817877
1.088821569
1.088825883
1.088830748
1.088836051
1.08884164
1.088847333
1.088852935
1.088858269
1.088862927
1.088866975
1.088870855
1.088874584
1.088878195
1.088881725
1.088885212
1.088888686
1.088892164
1.088895652
1.088899144
1.088902624
1.088906071
1.088909459
1.08891276
1.088915945
1.088918987
1.088921861
1.088924546
1.088927022
1.088929276
1.0889313
1.088933095
1.088931861
1.088927869
1.088061084
1.086475365
1.0838858
1.088810545
1.088812261
1.088814603
1.088817596
1.088821242
1.088825513
1.088830342
1.088835623
1.088841208
1.088846918
1.088852563
1.088857962
1.088862743
1.08886682
1.08887073
1.088874487
1.088878121
1.08888167
1.088885169
1.088888651
1.088892133
1.088895623
1.088899116
1.088902596
1.088906043
1.088909431
1.088912731
1.088915916
1.088918958
1.088921833
1.088924518
1.088926995
1.088929249
1.088931275
1.088933071
1.088931616
1.088927525
1.088006236
1.086386591
1.083739991
1.088810393
1.088812073
1.088814374
1.088817323
1.088820925
1.088825153
1.088829946
1.088835203
1.088840782
1.088846508
1.088852191
1.088857651
1.08886256
1.088866666
1.088870604
1.088874389
1.088878046
1.088881613
1.088885126
1.088888615
1.088892102
1.088895594
1.088899088
1.088902568
1.088906015
1.088909402
1.088912702
1.088915887
1.08891893
1.088921805
1.08892449
1.088926968
1.088929223
1.08893125
1.088933048
1.088931367
1.088927175
1.087950104
1.086295749
1.083590812
1.088810245
1.08881189
1.088814152
1.088817059
1.088820616
1.088824802
1.08882956
1.088834792
1.088840363
1.088846101
1.08885182
1.088857337
1.088862378
1.088866511
1.088870477
1.088874289
1.08887797
1.088881555
1.088885081
1.088888579
1.088892071
1.088895566
1.08889906
1.08890254
1.088905986
1.088909373
1.088912674
1.088915859
1.088918901
1.088921777
1.088924463
1.088926941
1.088929197
1.088931225
1.088933025
1.088931113
1.088926818
1.08789266
1.086202793
1.083438188
1.0888101
1.088811713
1.088813937
1.088816801
1.088820315
1.08882446
1.088829182
1.088834389
1.08883995
1.088845698
1.088851449
1.08885702
1.088862196
1.088866355
1.08887035
1.088874187
1.088877892
1.088881496
1.088885036
1.088888543
1.08889204
1.088895537
1.088899032
1.088902512
1.088905958
1.088909345
1.088912645
1.08891583
1.088918873
1.088921748
1.088924435
1.088926914
1.088929171
1.0889312
1.088933001
1.088930854
1.088911997
1.087833873
1.086107676
1.083282043
1.08880996
1.08881154
1.088813726
1.08881655
1.088820022
1.088824126
1.088828813
1.088833994
1.088839544
1.0888453
1.08885108
1.088856701
1.088862004
1.0888662
1.088870221
1.088874085
1.088877812
1.088881435
1.088884989
1.088888506
1.088892009
1.088895508
1.088899004
1.088902485
1.08890593
1.088909317
1.088912616
1.088915801
1.088918844
1.08892172
1.088924407
1.088926887
1.088929145
1.088931175
1.088932969
1.088930591
1.088874297
1.087773713
1.086010349
1.083122301
1.088809823
1.088811371
1.088813521
1.088816306
1.088819736
1.0888238
1.088828451
1.088833607
1.088839144
1.088844905
1.088850711
1.088856379
1.088861748
1.088866044
1.088870091
1.088873981
1.088877731
1.088881373
1.088884941
1.088888468
1.088891976
1.088895479
1.088898976
1.088902457
1.088905902
1.088909288
1.088912588
1.088915772
1.088918816
1.088921692
1.08892438
1.08892686
1.088929119
1.08893115
1.088932775
1.088930322
1.088835702
1.087712148
1.085910762
1.08295888
1.088809689
1.088811206
1.088813321
1.088816067
1.088819457
1.088823482
1.088828098
1.088833227
1.08883875
1.088844515
1.088850344
1.088856056
1.088861486
1.088865888
1.088869961
1.088873876
1.088877649
1.08888131
1.088884893
1.088888429
1.088891944
1.08889545
1.088898948
1.088902429
1.088905874
1.08890926
1.088912559
1.088915744
1.088918787
1.088921664
1.088924352
1.088926833
1.088929093
1.088931126
1.088932577
1.088930049
1.088796193
1.087649146
1.085808865
1.0827917
1.088809557
1.088811045
1.088813126
1.088815834
1.088819185
1.088823171
1.088827752
1.088832854
1.088838362
1.088844129
1.088849979
1.088855731
1.08886122
1.088865732
1.08886983
1.088873769
1.088877565
1.088881245
1.088884843
1.088888389
1.08889191
1.08889542
1.08889892
1.088902401
1.088905846
1.088909231
1.08891253
1.088915715
1.088918758
1.088921635
1.088924324
1.088926806
1.088929067
1.088931101
1.088932375
1.08892977
1.08875575
1.087584673
1.085704606
1.082620679
1.088809429
1.088810887
1.088812935
1.088815606
1.088818919
1.088822866
1.088827413
1.088832487
1.08883798
1.088843747
1.088849615
1.088855406
1.08886095
1.088865576
1.088869698
1.088873661
1.088877479
1.088881179
1.088884791
1.088888349
1.088891876
1.088895389
1.088898891
1.088902372
1.088905817
1.088909202
1.088912501
1.088915685
1.088918729
1.088921607
1.088924296
1.088926779
1.088929041
1.088931076
1.088932169
1.088929485
1.088714354
1.087518696
1.085597933
1.082445731
1.088809303
1.088810733
1.088812748
1.088815384
1.088818658
1.088822568
1.088827081
1.088832128
1.088837604
1.088843369
1.088849254
1.088855079
1.088860677
1.08886542
1.088869565
1.088873552
1.088877392
1.088881111
1.088884738
1.088888307
1.088891841
1.088895358
1.088898861
1.088902343
1.088905788
1.088909173
1.088912471
1.088915656
1.0889187
1.088921578
1.088924268
1.088926751
1.088929015
1.088931051
1.08893196
1.088929195
1.088671983
1.087451182
1.08548879
1.082266772
1.08880918
1.088810582
1.088812565
1.088815166
1.088818404
1.088822277
1.088826755
1.088831774
1.088837234
1.088842995
1.088848895
1.088854753
1.0888604
1.088865264
1.088869431
1.088873441
1.088877304
1.088881042
1.088884684
1.088888263
1.088891805
1.088895326
1.088898831
1.088902314
1.088905759
1.088909143
1.088912442
1.088915626
1.088918671
1.088921549
1.08892424
1.088926724
1.088928989
1.088931026
1.088931746
1.0889289
1.088628615
1.087382095
1.085377123
1.082083713
1.088809059
1.088810434
1.088812387
1.088814953
1.088818155
1.088821991
1.088826436
1.088831427
1.088836869
1.088842626
1.088848538
1.088854426
1.088860121
1.088865108
1.088869297
1.08887333
1.088877214
1.088880971
1.088884629
1.088888219
1.088891768
1.088895294
1.088898801
1.088902285
1.088905729
1.088909114
1.088912412
1.088915597
1.088918641
1.08892152
1.088924212
1.088926697
1.088928962
1.088931
1.088931528
1.088928599
1.088584229
1.087311401
1.085262875
1.081896465
1.08880894
1.088810289
1.088812212
1.088814745
1.088817911
1.088821712
1.088826123
1.088831087
1.088836509
1.088842261
1.088848183
1.0888541
1.08885984
1.088864952
1.088869162
1.088873217
1.088877123
1.088880898
1.088884572
1.088888174
1.088891731
1.088895261
1.08889877
1.088902255
1.0889057
1.088909084
1.088912382
1.088915567
1.088918612
1.088921491
1.088924183
1.088926669
1.088928936
1.088930975
1.088931306
1.088928292
1.088538803
1.087239062
1.08514599
1.081704936
1.088808824
1.088810148
1.088812041
1.088814541
1.088817672
1.088821438
1.088825816
1.088830752
1.088836156
1.088841901
1.088847831
1.088853774
1.088859557
1.088864797
1.088869027
1.088873103
1.08887703
1.088880825
1.088884514
1.088888127
1.088891692
1.088895227
1.088898739
1.088902224
1.08890567
1.088909054
1.088912352
1.088915537
1.088918582
1.088921462
1.088924155
1.088926642
1.088928909
1.08893095
1.08893108
1.088927979
1.088492313
1.087165043
1.085026409
1.081509033
1.088808711
1.088810009
1.088811874
1.088814342
1.088817439
1.08882117
1.088825516
1.088830424
1.088835808
1.088841545
1.088847483
1.088853449
1.088859273
1.088864642
1.088868891
1.088872989
1.088876937
1.08888075
1.088884454
1.08888808
1.088891653
1.088895192
1.088898707
1.088902194
1.088905639
1.088909024
1.088912322
1.088915507
1.088918553
1.088921433
1.088924127
1.088926614
1.088928883
1.088930924
1.088930849
1.08892766
1.088444735
1.087089304
1.084904071
1.081308662
1.0888086
1.088809874
1.08881171
1.088814147
1.088817211
1.088820908
1.088825221
1.088830101
1.088835465
1.088841194
1.088847137
1.088853126
1.088858987
1.088864487
1.088868756
1.088872874
1.088876842
1.088880674
1.088884394
1.088888031
1.088891612
1.088895157
1.088898675
1.088902163
1.088905609
1.088908993
1.088912292
1.088915477
1.088918523
1.088921404
1.088924099
1.088926587
1.088928856
1.088930899
1.088930614
1.088927335
1.088396047
1.08701181
1.084778917
1.081103726
1.088808492
1.088809742
1.088811551
1.088813957
1.088816988
1.088820652
1.088824933
1.088829785
1.088835128
1.088840847
1.088846795
1.088852803
1.088858701
1.088864334
1.088868621
1.088872759
1.088876747
1.088880597
1.088884332
1.088887982
1.088891572
1.088895122
1.088898643
1.088902132
1.088905579
1.088908963
1.088912262
1.088915447
1.088918494
1.088921376
1.08892407
1.088926559
1.08892883
1.088930873
1.088930375
1.088927004
1.088346222
1.086932519
1.084650883
1.080894127
1.088808386
1.088809613
1.088811395
1.088813771
1.08881677
1.088820401
1.08882465
1.088829474
1.088834797
1.088840505
1.088846456
1.088852483
1.088858414
1.088864096
1.088868486
1.088872643
1.088876651
1.088880519
1.08888427
1.088887932
1.08889153
1.088895086
1.08889861
1.088902101
1.088905548
1.088908933
1.088912232
1.088915418
1.088918465
1.088921347
1.088924042
1.088926532
1.088928803
1.088930848
1.088930131
1.088926667
1.088295236
1.086851392
1.084519908
1.080679766
1.088808283
1.088809487
1.088811242
1.088813589
1.088816557
1.088820155
1.088824373
1.08882917
1.088834471
1.088840168
1.08884612
1.088852164
1.088858128
1.088863856
1.088868351
1.088872528
1.088876554
1.088880441
1.088884207
1.088887881
1.088891488
1.08889505
1.088898577
1.08890207
1.088905518
1.088908903
1.088912202
1.088915388
1.088918436
1.088921319
1.088924015
1.088926505
1.088928777
1.088930823
1.088929883
1.088926323
1.088243063
1.086768388
1.084385927
1.080460544
1.088808182
1.088809364
1.088811093
1.088813412
1.088816348
1.088819915
1.088824101
1.088828871
1.088834151
1.088839836
1.088845789
1.088851847
1.088857841
1.088863613
1.088868217
1.088872412
1.088876458
1.088880362
1.088884144
1.08888783
1.088891446
1.088895014
1.088898544
1.088902039
1.088905488
1.088908873
1.088912172
1.088915359
1.088918407
1.08892129
1.088923987
1.088926478
1.088928751
1.088930798
1.08892963
1.088925973
1.088189677
1.086683467
1.084248877
1.080235468
1.088808084
1.088809243
1.088810948
1.088813238
1.088816144
1.088819679
1.088823835
1.088828577
1.088833836
1.088839508
1.08884546
1.088851532
1.088857555
1.088863369
1.088868083
1.088872296
1.08887636
1.088880282
1.08888408
1.088887778
1.088891404
1.088894977
1.088898512
1.088902008
1.088905458
1.088908844
1.088912143
1.08891533
1.088918378
1.088921262
1.088923959
1.088926451
1.088928725
1.088930773
1.088929373
1.088925617
1.088135051
1.086596585
1.084108694
1.080003945
1.088807988
1.088809126
1.088810806
1.088813068
1.088815944
1.088819449
1.088823575
1.088828289
1.088833526
1.088839185
1.088845136
1.08885122
1.088857269
1.088863124
1.08886795
1.088872181
1.088876263
1.088880202
1.088884015
1.088887726
1.088891361
1.088894941
1.088898479
1.088901977
1.088905428
1.088908814
1.088912114
1.088915301
1.08891835
1.088921234
1.088923932
1.088926424
1.088928699
1.088930748
1.088929111
1.088925254
1.088079157
1.086507699
1.083965308
1.079767172
1.088807894
1.088809011
1.088810667
1.088812902
1.088815749
1.088819223
1.088823319
1.088828006
1.088833221
1.088838867
1.088844815
1.08885091
1.088856984
1.088862878
1.088867818
1.088872065
1.088876166
1.088880122
1.08888395
1.088887673
1.088891317
1.088894904
1.088898446
1.088901946
1.088905398
1.088908785
1.088912085
1.088915273
1.088918322
1.088921207
1.088923905
1.088926398
1.088928673
1.088930723
1.088928844
1.088924885
1.088021968
1.086416766
1.083818649
1.079525035
1.088807802
1.088808899
1.08881053
1.088812739
1.088815557
1.088819001
1.088823068
1.088827728
1.088832921
1.088838553
1.088844497
1.088850602
1.0888567
1.088862631
1.088867686
1.08887195
1.088876068
1.088880041
1.088883884
1.08888762
1.088891274
1.088894867
1.088898413
1.088901916
1.088905369
1.088908756
1.088912057
1.088915244
1.088918294
1.088921179
1.088923878
1.088926371
1.088928647
1.088930577
1.088928572
1.088924509
1.087963454
1.08632374
1.083668647
1.079277419
1.088807712
1.088808788
1.088810397
1.08881258
1.088815369
1.088818784
1.088822821
1.088827454
1.088832625
1.088838243
1.088844183
1.088850296
1.088856417
1.088862383
1.088867555
1.088871835
1.08887597
1.08887996
1.088883818
1.088887567
1.08889123
1.08889483
1.08889838
1.088901885
1.088905339
1.088908727
1.088912028
1.088915216
1.088918266
1.088921151
1.088923851
1.088926345
1.088928621
1.088930373
1.088928295
1.088924126
1.087903587
1.086228576
1.083515228
1.079024205
1.088807623
1.08880868
1.088810266
1.088812423
1.088815185
1.08881857
1.088822579
1.088827185
1.088832334
1.088837937
1.088843872