/*--------------------------------*- C++ -*----------------------------------*\
| =========                 |                                                 |
| \\      /  F ield         | OpenFOAM: The Open Source CFD Toolbox           |
|  \\    /   O peration     | Version:  v2006                                 |
|   \\  /    A nd           | Website:  www.openfoam.com                      |
|    \\/     M anipulation  |                                                 |
\*---------------------------------------------------------------------------*/
FoamFile
{
    version     2.0;
    format      ascii;
    class       volScalarField;
    location    "0.09";
    object      T;
}
// * * * * * * * * * * * * * * * * * * * * * * * * * * * * * * * * * * * * * //

dimensions      [0 0 0 1 0 0 0];


internalField   nonuniform List<scalar> 
168000
(
333.0402367
333.0409471
333.0414823
333.0419611
333.0424228
333.0428839
333.0433482
333.0438208
333.044311
333.0448179
333.0453419
333.0458873
333.0464544
333.0470422
333.0476504
333.0482802
333.0489303
333.0495945
333.0502808
333.0509722
333.0516812
333.0523905
333.053103
333.0538067
333.0545099
333.0551899
333.055869
333.0564991
333.0571197
333.0576961
333.0582304
333.0587353
333.059184
333.0595814
333.0599386
333.0602524
333.0605159
333.0607164
333.1645633
333.5253727
333.0392656
333.0402368
333.0409945
333.0416363
333.0422128
333.0427521
333.0432701
333.0437786
333.0442891
333.0448075
333.0453383
333.0458863
333.0464539
333.0470417
333.0476497
333.048279
333.0489282
333.0495932
333.0502779
333.0509706
333.0516783
333.0523885
333.0531002
333.0538048
333.0545068
333.0551887
333.0558651
333.0564981
333.057117
333.0576939
333.0582293
333.0587331
333.0591822
333.0595804
333.0599376
333.0602513
333.0605144
333.0607152
333.1760024
333.5445022
333.038641
333.0396739
333.0405506
333.0413098
333.0419846
333.0425997
333.0431737
333.0437218
333.0442576
333.0447916
333.0453314
333.0458837
333.0464529
333.0470411
333.0476491
333.0482779
333.0489265
333.0495918
333.0502753
333.0509689
333.0516756
333.0523865
333.0530975
333.0538028
333.0545039
333.0551872
333.0558615
333.0564968
333.0571144
333.0576918
333.058228
333.0587309
333.0591805
333.0595793
333.0599366
333.0602502
333.0605129
333.060714
333.1877271
333.5640627
333.0381969
333.0392297
333.0401634
333.0410001
333.0417522
333.0424348
333.0430633
333.0436524
333.0442169
333.0447695
333.0453207
333.0458792
333.0464512
333.0470403
333.0476485
333.048277
333.048925
333.0495903
333.0502729
333.050967
333.0516731
333.0523843
333.0530949
333.0538007
333.0545012
333.0551855
333.0558582
333.0564953
333.057112
333.0576896
333.0582266
333.0587288
333.0591787
333.0595782
333.0599356
333.0602491
333.0605113
333.0607128
333.1997417
333.5840693
333.0378551
333.0388718
333.0398298
333.040715
333.0415249
333.0422644
333.042943
333.0435728
333.0441677
333.0447414
333.0453061
333.0458724
333.0464484
333.0470392
333.0476478
333.0482761
333.0489236
333.0495888
333.0502708
333.050965
333.0516707
333.0523821
333.0530925
333.0537985
333.0544986
333.0551836
333.0558551
333.0564936
333.0571096
333.0576875
333.0582251
333.0587268
333.059177
333.0595771
333.0599346
333.060248
333.0605098
333.0607115
333.2120511
333.6045363
333.0375793
333.0385763
333.0395418
333.0404561
333.0413078
333.0420936
333.0428167
333.0434852
333.044111
333.0447073
333.0452874
333.0458631
333.0464442
333.0470374
333.047647
333.0482752
333.0489224
333.0495873
333.0502688
333.050963
333.0516684
333.0523799
333.05309
333.0537962
333.0544961
333.0551816
333.0558522
333.0564918
333.0571073
333.0576855
333.0582236
333.0587248
333.0591753
333.059576
333.0599336
333.060247
333.0605083
333.0607102
333.2246606
333.6254779
333.0373497
333.0383272
333.0392916
333.0402223
333.0411034
333.041926
333.0426875
333.0433919
333.0440479
333.0446677
333.0452645
333.0458512
333.0464386
333.047035
333.0476459
333.0482743
333.0489213
333.0495859
333.0502669
333.0509611
333.0516662
333.0523776
333.0530876
333.0537939
333.0544936
333.0551795
333.0558495
333.0564899
333.057105
333.0576834
333.0582221
333.0587228
333.0591736
333.0595748
333.0599326
333.060246
333.0605068
333.060709
333.2375759
333.6469079
333.0371546
333.0381136
333.0390724
333.0400112
333.0409126
333.0417638
333.0425579
333.0432947
333.0439797
333.0446232
333.0452377
333.0458364
333.0464313
333.0470317
333.0476444
333.0482734
333.0489202
333.0495846
333.0502652
333.0509592
333.051664
333.0523754
333.0530853
333.0537916
333.0544912
333.0551773
333.0558468
333.0564879
333.0571027
333.0576814
333.0582204
333.0587209
333.059172
333.0595736
333.0599315
333.060245
333.0605053
333.0607077
333.2508031
333.6688399
333.036986
333.0379277
333.0388786
333.0398203
333.0407352
333.0416084
333.0424297
333.0431953
333.0439076
333.0445744
333.0452072
333.0458189
333.0464222
333.0470274
333.0476424
333.0482723
333.0489192
333.0495833
333.0502635
333.0509573
333.0516619
333.0523732
333.0530829
333.0537893
333.0544888
333.0551751
333.0558442
333.0564859
333.0571005
333.0576793
333.0582188
333.058719
333.0591703
333.0595725
333.0599305
333.060244
333.0605038
333.0607064
333.2643488
333.6912876
333.0368382
333.0377641
333.0387059
333.0396471
333.0405705
333.0414603
333.0423041
333.043095
333.0438325
333.044522
333.0451732
333.0457987
333.0464112
333.047022
333.0476399
333.048271
333.0489181
333.049582
333.050262
333.0509555
333.0516598
333.052371
333.0530806
333.053787
333.0544864
333.0551728
333.0558417
333.0564838
333.0570983
333.0576773
333.0582171
333.0587171
333.0591687
333.0595713
333.0599295
333.060243
333.0605023
333.0607051
333.2782196
333.7142643
333.0367074
333.0376186
333.0385508
333.0394893
333.0404176
333.0413197
333.0421818
333.0429948
333.0437554
333.0444665
333.0451362
333.0457758
333.0463983
333.0470154
333.0476368
333.0482694
333.0489169
333.0495808
333.0502604
333.0509537
333.0516578
333.0523688
333.0530783
333.0537847
333.0544841
333.0551706
333.0558392
333.0564817
333.0570961
333.0576753
333.0582154
333.0587152
333.059167
333.0595701
333.0599284
333.060242
333.0605008
333.0607037
333.2924227
333.7377837
333.0365904
333.0374881
333.0384106
333.0393449
333.0402755
333.0411866
333.0420636
333.0428956
333.0436771
333.0444086
333.0450963
333.0457505
333.0463835
333.0470075
333.0476329
333.0482674
333.0489157
333.0495796
333.050259
333.050952
333.0516558
333.0523667
333.053076
333.0537824
333.0544817
333.0551683
333.0558368
333.0564796
333.057094
333.0576733
333.0582136
333.0587134
333.0591654
333.0595688
333.0599274
333.0602411
333.0604993
333.0607024
333.3069654
333.7618593
333.0364849
333.0373701
333.0382831
333.0392122
333.0401432
333.0410606
333.0419496
333.0427979
333.0435982
333.0443489
333.0450541
333.0457229
333.0463669
333.0469983
333.0476283
333.0482651
333.0489143
333.0495784
333.0502576
333.0509503
333.0516539
333.0523646
333.0530737
333.0537801
333.0544794
333.055166
333.0558344
333.0564774
333.0570918
333.0576713
333.0582119
333.0587116
333.0591638
333.0595676
333.0599263
333.0602402
333.0604978
333.0607011
333.3218553
333.786505
333.0363891
333.0372627
333.0381664
333.0390898
333.0400198
333.0409415
333.0418399
333.0427022
333.0435193
333.0442878
333.0450099
333.0456931
333.0463484
333.0469878
333.0476228
333.0482624
333.0489127
333.0495771
333.0502562
333.0509487
333.051652
333.0523625
333.0530715
333.0537778
333.0544771
333.0551637
333.055832
333.0564753
333.0570897
333.0576693
333.0582101
333.0587098
333.0591622
333.0595664
333.0599253
333.0602392
333.0604962
333.0606997
333.3371002
333.8117346
333.0363016
333.0371645
333.0380592
333.0389766
333.0399044
333.0408287
333.0417347
333.0426087
333.0434408
333.0442257
333.0449639
333.0456615
333.0463282
333.046976
333.0476164
333.0482591
333.0489109
333.0495758
333.0502548
333.0509471
333.0516501
333.0523604
333.0530693
333.0537755
333.0544748
333.0551614
333.0558297
333.0564731
333.0570876
333.0576673
333.0582083
333.058708
333.0591606
333.0595652
333.0599242
333.0602383
333.0604947
333.0606984
333.3527082
333.8375622
333.0362211
333.037074
333.0379601
333.0388713
333.0397964
333.040722
333.0416337
333.0425177
333.0433631
333.044163
333.0449166
333.0456281
333.0463064
333.0469629
333.0476092
333.0482553
333.0489089
333.0495744
333.0502535
333.0509455
333.0516483
333.0523584
333.053067
333.0537733
333.0544725
333.055159
333.0558273
333.0564709
333.0570854
333.0576653
333.0582065
333.0587062
333.059159
333.0595639
333.0599232
333.0602374
333.0604932
333.0610469
333.3686877
333.8640021
333.0361469
333.0369904
333.0378683
333.0387732
333.0396949
333.0406208
333.0415369
333.0424293
333.0432863
333.0441001
333.0448681
333.0455932
333.0462831
333.0469485
333.047601
333.0482509
333.0489065
333.0495729
333.0502521
333.050944
333.0516466
333.0523564
333.0530648
333.053771
333.0544702
333.0551567
333.055825
333.0564687
333.0570833
333.0576634
333.0582047
333.0587044
333.0591575
333.0595627
333.0599221
333.0602366
333.0604917
333.0710956
333.3850473
333.8910689
333.036078
333.0369127
333.0377827
333.0386814
333.0395994
333.0405247
333.0414441
333.0423435
333.0432108
333.0440372
333.0448188
333.045557
333.0462584
333.0469329
333.0475919
333.048246
333.0489039
333.0495712
333.0502507
333.0509425
333.0516448
333.0523545
333.0530627
333.0537688
333.0544679
333.0551544
333.0558227
333.0564665
333.0570812
333.0576614
333.0582029
333.0587026
333.0591559
333.0595614
333.0599211
333.0602357
333.0604902
333.0813859
333.4017961
333.9187774
333.0360139
333.0368403
333.0377028
333.0385953
333.0395093
333.0404335
333.0413551
333.0422603
333.0431367
333.0439746
333.0447688
333.0455197
333.0462324
333.0469161
333.0475818
333.0482404
333.0489008
333.0495694
333.0502492
333.050941
333.0516431
333.0523526
333.0530605
333.0537665
333.0544656
333.0551521
333.0558204
333.0564644
333.0570791
333.0576594
333.0582011
333.0587009
333.0591543
333.0595601
333.05992
333.0602348
333.0604886
333.0919229
333.418943
333.9471425
333.0359539
333.0367726
333.0376279
333.0385144
333.0394241
333.0403467
333.0412697
333.0421797
333.043064
333.0439123
333.0447185
333.0454814
333.0462052
333.0468982
333.0475709
333.0482342
333.0488974
333.0495673
333.0502477
333.0509395
333.0516415
333.0523505
333.0530583
333.0537643
333.0544633
333.0551499
333.0558181
333.0564622
333.057077
333.0576575
333.0581993
333.0586991
333.0591528
333.0595589
333.059919
333.060234
333.0604871
333.1027123
333.4364976
333.9761796
333.0358977
333.0367091
333.0375575
333.0384381
333.0393435
333.0402641
333.0411878
333.0421017
333.0429929
333.0438506
333.0446678
333.0454423
333.046177
333.0468792
333.0475591
333.0482273
333.0488936
333.0495651
333.0502461
333.050938
333.0516398
333.0523485
333.0530562
333.0537621
333.054461
333.0551476
333.0558158
333.05646
333.0570749
333.0576555
333.0581975
333.0586974
333.0591512
333.0595576
333.059918
333.0602332
333.0604855
333.1137597
333.4544691
334.0059037
333.0358449
333.0366493
333.0374911
333.0383659
333.039267
333.0401852
333.0411092
333.0420261
333.0429233
333.0437896
333.0446171
333.0454025
333.0461478
333.0468592
333.0475464
333.0482198
333.0488894
333.0495627
333.0502444
333.0509365
333.0516382
333.0523464
333.0530541
333.0537599
333.0544588
333.0551453
333.0558136
333.0564578
333.0570728
333.0576535
333.0581957
333.0586957
333.0591497
333.0595564
333.0599169
333.0602317
333.060484
333.1250707
333.4728674
334.0363307
333.035795
333.0365929
333.0374284
333.0382976
333.0391943
333.0401099
333.0410336
333.041953
333.0428554
333.0437294
333.0445664
333.0453623
333.0461178
333.0468383
333.0475329
333.0482117
333.0488847
333.04956
333.0502426
333.0509349
333.0516366
333.0523444
333.053052
333.0537577
333.0544565
333.055143
333.0558113
333.0564556
333.0570707
333.0576516
333.0581938
333.0586939
333.0591482
333.0595551
333.0599159
333.0602301
333.0604825
333.1366516
333.4917023
334.0674771
333.0357479
333.0365395
333.037369
333.0382327
333.0391251
333.0400379
333.0409609
333.0418822
333.0427891
333.04367
333.0445159
333.0453216
333.046087
333.0468166
333.0475185
333.0482029
333.0488796
333.049557
333.0502407
333.0509333
333.051635
333.0523424
333.0530499
333.0537555
333.0544543
333.0551408
333.0558091
333.0564535
333.0570686
333.0576496
333.058192
333.0586922
333.0591466
333.0595538
333.0599148
333.0602285
333.0604809
333.1485082
333.5109838
334.0993593
333.0357033
333.0364889
333.0373126
333.038171
333.039059
333.039969
333.040891
333.0418136
333.0427244
333.0436116
333.0444656
333.0452806
333.0460556
333.046794
333.0475034
333.0481934
333.0488741
333.0495538
333.0502386
333.0509317
333.0516333
333.0523404
333.0530478
333.0537533
333.0544521
333.0551385
333.0558068
333.0564513
333.0570665
333.0576476
333.0581902
333.0586905
333.0591451
333.0595526
333.0599138
333.0602269
333.0604793
333.160647
333.5307224
334.1319945
333.0356609
333.0364409
333.0372589
333.0381123
333.038996
333.0399029
333.0408237
333.0417472
333.0426613
333.0435541
333.0444156
333.0452394
333.0460234
333.0467707
333.0474875
333.0481834
333.048868
333.0495503
333.0502364
333.05093
333.0516317
333.0523384
333.0530457
333.0537512
333.0544498
333.0551362
333.0558046
333.0564491
333.0570645
333.0576457
333.0581884
333.0586888
333.0591436
333.0595513
333.0599128
333.0602253
333.0604778
333.1730743
333.5509284
334.1653999
333.0356205
333.0363951
333.0372078
333.0380562
333.0389356
333.0398395
333.0407588
333.0416829
333.0425998
333.0434976
333.0443661
333.0451981
333.0459907
333.0467467
333.047471
333.0481727
333.0488616
333.0495464
333.050234
333.0509282
333.0516301
333.0523364
333.0530436
333.053749
333.0544476
333.055134
333.0558024
333.0564469
333.0570624
333.0576437
333.0581865
333.0586871
333.0591421
333.05955
333.0599117
333.0602237
333.0604762
333.1857967
333.5716128
334.1995934
333.035582
333.0363514
333.0371591
333.0380026
333.0388779
333.0397786
333.0406963
333.0416205
333.0425397
333.043442
333.044317
333.0451569
333.0459576
333.0467218
333.0474538
333.0481614
333.0488546
333.0495423
333.0502315
333.0509264
333.0516284
333.0523344
333.0530416
333.0537469
333.0544454
333.0551318
333.0558001
333.0564448
333.0570603
333.0576418
333.0581847
333.0586854
333.0591405
333.0595488
333.0599107
333.0602221
333.0604746
333.198821
333.5927864
334.234593
333.0355453
333.0363097
333.0371124
333.0379513
333.0388224
333.03972
333.0406359
333.0415601
333.0424812
333.0433875
333.0442684
333.0451157
333.0459242
333.0466963
333.047436
333.0481496
333.0488472
333.0495379
333.0502287
333.0509245
333.0516267
333.0523324
333.0530395
333.0537447
333.0544432
333.0551295
333.0557979
333.0564426
333.0570582
333.0576398
333.0581829
333.0586837
333.059139
333.0595475
333.0599097
333.0602205
333.060473
333.2121541
333.6144606
334.2704173
333.0355101
333.0362698
333.0370677
333.0379021
333.0387692
333.0396636
333.0405776
333.0415014
333.0424241
333.043334
333.0442203
333.0450745
333.0458907
333.0466703
333.0474171
333.0481372
333.0488394
333.0495331
333.0502258
333.0509224
333.051625
333.0523304
333.0530375
333.0537426
333.054441
333.0551273
333.0557957
333.0564405
333.0570562
333.0576379
333.058181
333.058682
333.0591375
333.0595462
333.0599087
333.0602188
333.0604714
333.225803
333.6366469
334.3070852
333.0354764
333.0362316
333.0370249
333.0378548
333.038718
333.0396092
333.0405212
333.0414445
333.0423685
333.0432815
333.0441728
333.0450335
333.045857
333.0466439
333.0473977
333.0481242
333.0488311
333.049528
333.0502227
333.0509203
333.0516232
333.0523284
333.0530354
333.0537405
333.0544389
333.0551251
333.0557935
333.0564383
333.0570541
333.0576359
333.0581792
333.0586803
333.059136
333.059545
333.0599077
333.0602172
333.0604699
333.2397749
333.659357
334.3446159
333.0354441
333.0361949
333.0369838
333.0378094
333.0386687
333.0395568
333.0404666
333.0413893
333.0423142
333.0432301
333.0441259
333.0449927
333.0458232
333.0466172
333.0473777
333.0481104
333.0488223
333.0495226
333.0502193
333.050918
333.0516209
333.0523263
333.0530334
333.0537384
333.0544367
333.0551229
333.0557913
333.0564362
333.0570521
333.057634
333.0581774
333.0586786
333.0591345
333.0595437
333.0599066
333.0602155
333.0604683
333.2540773
333.6826028
334.3830294
333.0354131
333.0361596
333.0369443
333.0377658
333.0386213
333.0395062
333.0404138
333.0413356
333.0422612
333.0431796
333.0440797
333.0449521
333.0457893
333.0465903
333.0473574
333.0480958
333.0488132
333.0495168
333.0502158
333.0509157
333.0516186
333.0523243
333.0530313
333.0537363
333.0544345
333.0551207
333.0557891
333.056434
333.05705
333.057632
333.0581756
333.0586769
333.059133
333.0595425
333.0599056
333.0602139
333.0604666
333.2687177
333.7063968
334.4223456
333.0353832
333.0361257
333.0369062
333.0377237
333.0385755
333.0394572
333.0403627
333.0412834
333.0422095
333.0431301
333.044034
333.0449118
333.0457554
333.046563
333.0473366
333.0480809
333.048803
333.0495108
333.050212
333.0509132
333.0516163
333.0523222
333.0530293
333.0537342
333.0544324
333.0551185
333.0557869
333.0564319
333.0570479
333.0576301
333.0581737
333.0586752
333.0591315
333.0595412
333.0599046
333.0602122
333.060465
333.2837038
333.7307513
334.4625853
333.0353544
333.036093
333.0368695
333.0376831
333.0385313
333.0394099
333.0403131
333.0412327
333.0421591
333.0430815
333.043989
333.0448718
333.0457216
333.0465356
333.0473155
333.0480655
333.0487924
333.049504
333.050208
333.0509101
333.0516139
333.05232
333.0530272
333.0537321
333.0544302
333.0551164
333.0557848
333.0564298
333.0570459
333.0576281
333.0581719
333.0586736
333.05913
333.0595399
333.0599036
333.0602105
333.0604634
333.2990435
333.7556793
334.5037695
333.0353267
333.0360615
333.0368341
333.0376439
333.0384885
333.0393641
333.040265
333.0411833
333.0421099
333.0430339
333.0439446
333.0448321
333.0456878
333.046508
333.0472941
333.0480498
333.0487814
333.0494967
333.0502031
333.0509068
333.0516114
333.0523179
333.0530251
333.05373
333.0544281
333.0551142
333.0557826
333.0564276
333.0570438
333.0576262
333.0581701
333.0586719
333.0591285
333.0595387
333.0599027
333.0602088
333.0604618
333.3147448
333.7811938
334.5459198
333.0352999
333.036031
333.0368
333.037606
333.0384472
333.0393198
333.0402183
333.0411353
333.0420618
333.0429872
333.0439009
333.0447927
333.0456541
333.0464802
333.0472724
333.0480337
333.0487701
333.049489
333.0501981
333.0509033
333.0516088
333.0523157
333.0530231
333.0537279
333.054426
333.055112
333.0557804
333.0564255
333.0570418
333.0576242
333.0581683
333.0586702
333.059127
333.0595374
333.0599017
333.0602072
333.0604602
333.3308161
333.8073082
334.5890581
333.0352741
333.0360016
333.036767
333.0375694
333.0384072
333.0392767
333.0401729
333.0410886
333.0420148
333.0429415
333.0438578
333.0447537
333.0456205
333.0464524
333.0472505
333.0480173
333.0487584
333.0494811
333.0501928
333.0508997
333.0516061
333.0523135
333.053021
333.0537259
333.0544238
333.0551099
333.0557783
333.0564234
333.0570397
333.0576223
333.0581665
333.0586685
333.0591256
333.0595362
333.0599007
333.0602055
333.0604585
333.3472657
333.8340363
334.6332069
333.0352491
333.0359732
333.036735
333.037534
333.0383684
333.039235
333.0401288
333.041043
333.0419689
333.0428966
333.0438154
333.0447151
333.0455871
333.0464245
333.0472283
333.0480005
333.0487464
333.0494728
333.0501872
333.050896
333.0516034
333.0523112
333.0530189
333.0537238
333.0544217
333.0551077
333.0557761
333.0564213
333.0570377
333.0576203
333.0581647
333.0586669
333.0591241
333.0595349
333.0598997
333.0602038
333.0604569
333.3641024
333.8613919
334.6783893
333.0352249
333.0359457
333.0367041
333.0374996
333.0383308
333.0391945
333.040086
333.0409986
333.0419241
333.0428526
333.0437736
333.0446769
333.0455538
333.0463965
333.0472059
333.0479835
333.0487341
333.0494643
333.0501815
333.0508921
333.0516005
333.0523089
333.0530168
333.0537217
333.0544196
333.0551056
333.055774
333.0564192
333.0570357
333.0576184
333.0581628
333.0586652
333.0591226
333.0595337
333.0598988
333.060202
333.0647239
333.3813352
333.8893894
334.7246287
333.0352014
333.035919
333.0366741
333.0374663
333.0382943
333.0391551
333.0400443
333.0409554
333.0418803
333.0428094
333.0437324
333.0446391
333.0455206
333.0463685
333.0471833
333.0479662
333.0487214
333.0494555
333.0501755
333.050888
333.0515976
333.0523065
333.0530146
333.0537196
333.0544175
333.0551034
333.0557718
333.0564171
333.0570336
333.0576165
333.058161
333.0586635
333.0591211
333.0595325
333.0598978
333.0602003
333.0757435
333.3989731
333.9180436
334.771949
333.0351787
333.0358932
333.036645
333.037434
333.0382589
333.0391169
333.0400037
333.0409132
333.0418374
333.0427671
333.0436919
333.0446016
333.0454874
333.0463404
333.0471605
333.0479486
333.0487085
333.0494464
333.0501694
333.0508838
333.0515946
333.0523041
333.0530125
333.0537175
333.0544154
333.0551013
333.0557697
333.056415
333.0570316
333.0576145
333.0581592
333.0586619
333.0591197
333.0595312
333.059896
333.0601986
333.0870258
333.4170257
333.9473693
334.820375
333.0351566
333.0358681
333.0366168
333.0374027
333.0382245
333.0390797
333.0399642
333.040872
333.0417955
333.0427255
333.043652
333.0445646
333.0454545
333.0463124
333.0471376
333.0479308
333.0486953
333.0494371
333.050163
333.0508794
333.0515914
333.0523017
333.0530103
333.0537154
333.0544133
333.0550992
333.0557676
333.0564129
333.0570296
333.0576126
333.0581574
333.0586602
333.0591182
333.05953
333.0598942
333.0601969
333.0985766
333.4355027
333.977382
334.8699316
333.0351352
333.0358437
333.0365894
333.0373722
333.038191
333.0390435
333.0399256
333.0408318
333.0417545
333.0426848
333.0436127
333.044528
333.0454217
333.0462845
333.0471146
333.0479127
333.0486819
333.0494275
333.0501563
333.0508749
333.0515882
333.0522991
333.0530081
333.0537133
333.0544112
333.055097
333.0557654
333.0564108
333.0570275
333.0576107
333.0581556
333.0586585
333.0591167
333.0595288
333.0598925
333.0601951
333.1104017
333.4544138
334.0080974
334.9206445
333.0351144
333.0358201
333.0365627
333.0373425
333.0381584
333.0390082
333.0398881
333.0407925
333.0417143
333.0426448
333.043574
333.0444918
333.0453891
333.0462566
333.0470915
333.0478945
333.0486682
333.0494177
333.0501495
333.0508702
333.0515849
333.0522966
333.0530059
333.0537112
333.0544091
333.0550949
333.0557633
333.0564087
333.0570255
333.0576087
333.0581538
333.0586569
333.0591153
333.0595275
333.0598907
333.0601933
333.1225071
333.473769
334.0395315
334.9725398
333.0350942
333.035797
333.0365368
333.0373137
333.0381267
333.0389739
333.0398514
333.0407541
333.041675
333.0426055
333.0435359
333.0444561
333.0453568
333.0462287
333.0470683
333.0478761
333.0486542
333.0494076
333.0501425
333.0508654
333.0515814
333.0522939
333.0530036
333.0537091
333.054407
333.0550928
333.0557612
333.0564066
333.0570235
333.0576068
333.058152
333.0586552
333.0591138
333.0595263
333.0598889
333.0601916
333.134899
333.4935786
334.0717006
335.0256444
333.0350745
333.0357746
333.0365116
333.0372856
333.0380959
333.0389404
333.0398157
333.0407167
333.0416366
333.042567
333.0434983
333.0444207
333.0453247
333.0462009
333.0470451
333.0478575
333.0486401
333.0493973
333.0501352
333.0508603
333.0515779
333.0522912
333.0530013
333.0537069
333.0544049
333.0550907
333.0557591
333.0564045
333.0570215
333.0576049
333.0581502
333.0586536
333.0591123
333.0595251
333.0598871
333.0601898
333.1475838
333.5138528
334.1046216
335.0799854
333.0350554
333.0357528
333.0364871
333.0372583
333.0380658
333.0389077
333.0397807
333.04068
333.0415989
333.0425291
333.0434614
333.0443858
333.0452928
333.0461732
333.0470218
333.0478388
333.0486257
333.0493867
333.0501278
333.0508552
333.0515742
333.0522884
333.052999
333.0537048
333.0544028
333.0550886
333.055757
333.0564024
333.0570195
333.057603
333.0581484
333.0586519
333.0591109
333.0595239
333.0598853
333.060188
333.1605681
333.5346023
334.1383115
335.1355909
333.0350367
333.0357316
333.0364631
333.0372316
333.0380365
333.0388758
333.0397466
333.0406441
333.0415619
333.042492
333.043425
333.0443513
333.0452612
333.0461457
333.0469984
333.0478199
333.0486111
333.049376
333.0501202
333.0508499
333.0515705
333.0522856
333.0529966
333.0537026
333.0544007
333.0550865
333.0557549
333.0564003
333.0570175
333.057601
333.0581466
333.0586503
333.0591094
333.0595227
333.0598835
333.0601862
333.1738583
333.5558379
334.1727878
335.1924894
333.0350185
333.0357109
333.0364398
333.0372057
333.0380078
333.0388447
333.0397133
333.0406091
333.0415257
333.0424555
333.0433892
333.0443172
333.0452298
333.0461182
333.0469751
333.0478009
333.0485964
333.049365
333.0501123
333.0508444
333.0515666
333.0522827
333.0529942
333.0537004
333.0543986
333.0550844
333.0557528
333.0563983
333.0570154
333.0575991
333.0581448
333.0586486
333.059108
333.0595215
333.0598816
333.0601844
333.1874616
333.5775708
334.2080684
335.2507099
333.0350008
333.0356907
333.0364171
333.0371803
333.0379799
333.0388143
333.0396807
333.0405747
333.0414902
333.0424196
333.0433539
333.0442835
333.0451987
333.0460909
333.0469517
333.0477818
333.0485814
333.0493539
333.0501043
333.0508387
333.0515626
333.0522797
333.0529918
333.0536983
333.0543964
333.0550823
333.0557507
333.0563962
333.0570134
333.0575972
333.058143
333.058647
333.0591065
333.0595203
333.0598798
333.0601826
333.2013847
333.5998121
334.2441714
335.3102821
333.0349835
333.035671
333.0363949
333.0371556
333.0379526
333.0387846
333.0396489
333.0405411
333.0414554
333.0423844
333.0433192
333.0442502
333.0451679
333.0460637
333.0469283
333.0477626
333.0485663
333.0493425
333.0500961
333.050833
333.0515585
333.0522767
333.0529893
333.053696
333.0543943
333.0550802
333.0557486
333.0563941
333.0570114
333.0575953
333.0581412
333.0586453
333.0591051
333.0595191
333.0598779
333.0601808
333.2156349
333.6225734
334.2811155
335.3712364
333.0349666
333.0356518
333.0363732
333.0371314
333.037926
333.0387556
333.0396177
333.0405082
333.0414213
333.0423498
333.0432849
333.0442173
333.0451374
333.0460366
333.046905
333.0477433
333.0485511
333.049331
333.0500877
333.050827
333.0515543
333.0522735
333.0529868
333.0536938
333.0543922
333.0550781
333.0557465
333.0563921
333.0570094
333.0575934
333.0581394
333.0586437
333.0591036
333.0595179
333.0598761
333.0601789
333.2302196
333.6458665
334.3189197
335.4336036
333.0349501
333.035633
333.0363521
333.0371078
333.0378999
333.0387272
333.0395872
333.0404759
333.0413878
333.0423157
333.0432512
333.0441848
333.0451071
333.0460094
333.0468817
333.0477239
333.0485357
333.0493193
333.0500792
333.0508209
333.0515499
333.0522703
333.0529842
333.0536916
333.0543901
333.055076
333.0557444
333.05639
333.0570074
333.0575915
333.0581376
333.0586421
333.0591022
333.0595167
333.0598742
333.0601771
333.2451461
333.6697035
334.3576031
335.4974149
333.034934
333.0356146
333.0363314
333.0370847
333.0378745
333.0386995
333.0395574
333.0404443
333.0413549
333.0422823
333.043218
333.0441527
333.0450771
333.0459823
333.0468584
333.0477044
333.0485202
333.0493074
333.0500704
333.0508147
333.0515455
333.052267
333.0529816
333.0536893
333.0543879
333.0550739
333.0557423
333.056388
333.0570054
333.0575896
333.0581358
333.0586404
333.0591007
333.0595155
333.0598723
333.0601752
333.2604223
333.6940964
334.3971854
335.5627014
333.0349182
333.0355967
333.0363111
333.0370621
333.0378495
333.0386723
333.0395281
333.0404133
333.0413227
333.0422494
333.0431852
333.044121
333.0450473
333.0459554
333.0468351
333.047685
333.0485045
333.0492954
333.0500616
333.0508083
333.0515409
333.0522637
333.052979
333.053687
333.0543858
333.0550718
333.0557402
333.0563859
333.0570034
333.0575876
333.058134
333.0586388
333.0590993
333.0595143
333.0598704
333.0601733
333.2760559
333.7190579
334.4376859
335.6296783
333.0349028
333.0355792
333.0362914
333.0370401
333.0378252
333.0386457
333.0394995
333.0403829
333.041291
333.042217
333.043153
333.0440897
333.0450179
333.0459286
333.0468119
333.0476654
333.0484887
333.0492832
333.0500525
333.0508018
333.0515362
333.0522602
333.0529763
333.0536847
333.0543836
333.0550697
333.0557382
333.0563839
333.0570014
333.0575857
333.0581322
333.0586372
333.0590979
333.0595131
333.0598685
333.0601715
333.2920548
333.7446007
334.4791247
335.6984791
333.0348877
333.035562
333.036272
333.0370185
333.0378013
333.0386196
333.0394714
333.0403531
333.0412599
333.0421852
333.0431212
333.0440588
333.0449887
333.045902
333.0467888
333.0476458
333.0484728
333.0492709
333.0500433
333.0507951
333.0515314
333.0522567
333.0529735
333.0536823
333.0543815
333.0550676
333.0557361
333.0563818
333.0569994
333.0575838
333.0581304
333.0586355
333.0590964
333.059512
333.0598665
333.0601696
333.3084274
333.7707379
334.5215227
335.7688706
333.034873
333.0355452
333.0362531
333.0369973
333.0377779
333.0385941
333.0394438
333.0403239
333.0412293
333.0421539
333.0430899
333.0440282
333.0449597
333.0458755
333.0467657
333.0476262
333.0484569
333.0492584
333.0500339
333.0507883
333.0515265
333.0522531
333.0529707
333.0536799
333.0543793
333.0550655
333.055734
333.0563798
333.0569975
333.0575819
333.0581287
333.0586339
333.059095
333.0595108
333.0598646
333.0601677
333.325182
333.7974826
334.5649016
335.8408883
333.0348585
333.0355288
333.0362345
333.0369766
333.037755
333.0385691
333.0394168
333.0402951
333.0411993
333.0421231
333.043059
333.043998
333.0449311
333.0458492
333.0467427
333.0476066
333.0484408
333.0492458
333.0500244
333.0507813
333.0515215
333.0522494
333.0529679
333.0536775
333.0543771
333.0550633
333.0557319
333.0563777
333.0569955
333.05758
333.0581269
333.0586323
333.0590936
333.0595091
333.0598627
333.0601658
333.342327
333.8248486
334.6092832
335.9145688
333.0348444
333.0355126
333.0362164
333.0369563
333.0377326
333.0385446
333.0393904
333.040267
333.0411698
333.0420928
333.0430285
333.0439682
333.0449027
333.0458231
333.0467197
333.047587
333.0484247
333.049233
333.0500148
333.0507742
333.0515164
333.0522457
333.052965
333.0536751
333.0543749
333.0550612
333.0557299
333.0563757
333.0569935
333.0575781
333.0581251
333.0586306
333.0590922
333.0595071
333.0598607
333.0601639
333.3598714
333.8528497
334.6546902
335.9899494
333.0348305
333.0354969
333.0361986
333.0369364
333.0377106
333.0385205
333.0393644
333.0402393
333.0411408
333.042063