/*--------------------------------*- C++ -*----------------------------------*\
| =========                 |                                                 |
| \\      /  F ield         | OpenFOAM: The Open Source CFD Toolbox           |
|  \\    /   O peration     | Version:  v2006                                 |
|   \\  /    A nd           | Website:  www.openfoam.com                      |
|    \\/     M anipulation  |                                                 |
\*---------------------------------------------------------------------------*/
FoamFile
{
    version     2.0;
    format      ascii;
    class       volScalarField;
    location    "0.09";
    object      theta1_0;
}
// * * * * * * * * * * * * * * * * * * * * * * * * * * * * * * * * * * * * * //

dimensions      [0 0 0 0 0 0 0];


internalField   nonuniform List<scalar> 
168000
(
60.00000764
60.00003757
60.00007253
60.00010962
60.00015079
60.00019738
60.00024639
60.0002982
60.00035899
60.00042509
60.00049533
60.00057579
60.00066486
60.00075958
60.00086778
60.00098475
60.00110991
60.00124915
60.00139583
60.00155361
60.00171983
60.00189179
60.00206988
60.00224711
60.00242507
60.00259044
60.00275237
60.00288022
60.0029934
60.00306599
60.00309141
60.00307655
60.00298912
60.00281628
60.00255353
60.00217236
60.00160294
60.00072781
59.99939688
59.99729938
60.00000393
60.00002798
60.00006342
60.0001045
60.00014988
60.00019913
60.000251
60.00030584
60.00036635
60.00043187
60.00050252
60.00058144
60.00066869
60.00076357
60.00086981
60.00098575
60.00111131
60.00124903
60.00139611
60.00155316
60.00171926
60.00189122
60.00206898
60.00224644
60.00242388
60.00258986
60.00275065
60.00287938
60.00299166
60.00306392
60.00308942
60.00307299
60.00298407
60.00280981
60.00254405
60.0021564
60.0015762
60.00068686
59.99933033
59.99718813
60.00000311
60.00002272
60.00005629
60.0000986
60.00014668
60.00019879
60.00025366
60.00031122
60.00037271
60.00043849
60.00050934
60.00058731
60.00067327
60.0007676
60.0008724
60.00098738
60.00111265
60.00124932
60.00139629
60.0015529
60.00171872
60.00189067
60.00206812
60.00224575
60.00242273
60.00258925
60.00274893
60.00287851
60.00298988
60.00306184
60.00308736
60.00306933
60.00297897
60.00280319
60.00253421
60.00213998
60.001549
60.0006449
59.99926213
59.99707438
60.00000276
60.00001961
60.00005084
60.00009283
60.00014232
60.00019679
60.00025447
60.0003147
60.00037787
60.00044455
60.00051577
60.00059326
60.00067829
60.00077184
60.00087543
60.00098943
60.0011141
60.00124998
60.00139654
60.00155278
60.00171825
60.00189014
60.00206731
60.00224504
60.00242162
60.00258857
60.00274724
60.00287759
60.00298809
60.00305974
60.0030852
60.0030656
60.0029738
60.00279638
60.00252402
60.0021231
60.00152132
60.00060191
59.99919223
59.99695803
60.00000252
60.00001758
60.00004663
60.00008755
60.00013748
60.00019364
60.00025378
60.00031656
60.00038178
60.00044982
60.00052173
60.00059913
60.00068354
60.0007763
60.00087883
60.00099185
60.00111577
60.00125089
60.00139691
60.00155278
60.00171786
60.00188963
60.00206654
60.0022443
60.00242056
60.00258781
60.00274561
60.00287659
60.00298629
60.00305763
60.00308295
60.00306179
60.00296855
60.0027894
60.00251348
60.00210577
60.0014931
60.00055787
59.99912063
59.996839
60.00000235
60.00001615
60.00004332
60.00008286
60.00013257
60.00018975
60.00025186
60.00031703
60.00038446
60.0004542
60.00052713
60.0006048
60.00068887
60.00078096
60.00088254
60.0009946
60.00111767
60.00125203
60.00139743
60.00155287
60.00171756
60.00188916
60.00206581
60.00224356
60.00241953
60.00258699
60.00274402
60.00287552
60.00298448
60.00305549
60.00308061
60.00305792
60.00296321
60.00278222
60.0025026
60.00208799
60.00146433
60.00051276
59.99904727
59.99671721
60.00000224
60.00001508
60.00004065
60.00007873
60.00012781
60.00018547
60.00024907
60.00031639
60.00038601
60.00045765
60.00053189
60.00061015
60.00069417
60.00078575
60.0008865
60.00099762
60.00111982
60.00125339
60.00139812
60.00155309
60.00171736
60.00188873
60.00206513
60.00224281
60.00241854
60.00258611
60.00274249
60.00287437
60.00298266
60.00305334
60.00307816
60.00305397
60.00295778
60.00277484
60.00249137
60.00206975
60.00143496
60.00046657
59.99897214
59.99659259
60.00000215
60.00001425
60.00003846
60.00007513
60.00012331
60.00018102
60.00024567
60.00031478
60.00038654
60.00046018
60.00053597
60.00061511
60.00069934
60.00079059
60.00089064
60.00100089
60.00112221
60.00125495
60.00139898
60.00155343
60.00171725
60.00188835
60.00206449
60.00224206
60.00241757
60.00258517
60.002741
60.00287316
60.00298083
60.00305115
60.00307562
60.00304996
60.00295224
60.00276726
60.0024798
60.00205105
60.00140498
60.00041926
59.99889519
59.99646504
60.00000209
60.00001358
60.00003663
60.00007196
60.00011914
60.00017657
60.00024187
60.00031246
60.0003862
60.00046185
60.00053934
60.0006196
60.0007043
60.00079543
60.00089493
60.00100437
60.00112481
60.00125672
60.00140001
60.00155389
60.00171724
60.00188803
60.00206389
60.00224133
60.00241662
60.0025842
60.00273954
60.00287188
60.002979
60.00304893
60.00307299
60.00304588
60.0029466
60.00275946
60.00246789
60.00203189
60.00137435
60.00037083
59.9988164
59.9963345
60.00000204
60.00001303
60.00003507
60.00006917
60.00011528
60.00017221
60.00023784
60.0003096
60.00038509
60.00046272
60.00054201
60.00062358
60.00070898
60.0008002
60.00089929
60.00100802
60.00112762
60.00125868
60.00140121
60.00155447
60.00171732
60.00188776
60.00206335
60.0022406
60.00241569
60.00258319
60.00273811
60.00287054
60.00297714
60.00304668
60.00307027
60.00304173
60.00294084
60.00275144
60.00245564
60.00201225
60.00134304
60.00032125
59.99873571
59.99620089
60.000002
60.00001257
60.00003374
60.0000667
60.00011173
60.00016801
60.00023371
60.00030633
60.00038336
60.00046286
60.000544
60.00062704
60.00071333
60.00080483
60.00090368
60.0010118
60.0011306
60.00126083
60.00140257
60.00155519
60.00171751
60.00188757
60.00206284
60.0022399
60.00241478
60.00258216
60.0027367
60.00286916
60.00297527
60.00304439
60.00306745
60.0030375
60.00293496
60.0027432
60.00244304
60.00199213
60.00131104
60.00027048
59.99865309
59.99606412
60.00000197
60.00001218
60.00003259
60.00006451
60.00010847
60.00016401
60.00022955
60.00030279
60.00038113
60.00046241
60.00054535
60.00062996
60.00071732
60.00080929
60.00090806
60.00101568
60.00113374
60.00126315
60.0014041
60.00155604
60.0017178
60.00188744
60.00206239
60.00223922
60.00241388
60.00258112
60.00273531
60.00286773
60.00297338
60.00304206
60.00306455
60.00303319
60.00292896
60.00273474
60.00243009
60.00197153
60.00127832
60.00021851
59.99856849
59.99592411
60.00000194
60.00001185
60.00003158
60.00006254
60.00010549
60.00016021
60.00022546
60.00029908
60.0003785
60.00046136
60.0005461
60.00063235
60.00072092
60.00081353
60.00091237
60.00101962
60.00113701
60.00126563
60.00140579
60.00155703
60.0017182
60.00188739
60.00206198
60.00223856
60.00241299
60.00258005
60.00273392
60.00286625
60.00297146
60.00303969
60.00306156
60.0030288
60.00292282
60.00272604
60.00241679
60.00195042
60.00124486
60.0001653
59.99848187
59.99578079
60.00000192
60.00001156
60.00003069
60.00006078
60.00010274
60.00015663
60.00022144
60.00029525
60.00037555
60.00045985
60.0005463
60.00063423
60.00072411
60.00081751
60.00091659
60.00102358
60.00114039
60.00126825
60.00140762
60.00155814
60.0017187
60.00188741
60.00206163
60.00223793
60.00241212
60.00257898
60.00273254
60.00286474
60.00296952
60.00303727
60.00305849
60.00302432
60.00291655
60.0027171
60.00240313
60.00192881
60.00121063
60.00011083
59.99839319
59.99563408
60.00000191
60.00001131
60.0000299
60.00005919
60.00010022
60.00015325
60.00021755
60.00029139
60.00037238
60.00045794
60.00054604
60.00063561
60.00072689
60.00082122
60.00092067
60.00102754
60.00114384
60.00127099
60.00140959
60.00155938
60.00171931
60.0018875
60.00206133
60.00223733
60.00241126
60.0025779
60.00273116
60.0028632
60.00296755
60.00303481
60.00305532
60.00301976
60.00291014
60.00270792
60.0023891
60.00190668
60.00117562
60.00005506
59.9983024
59.99548389
60.00000189
60.00001109
60.0000292
60.00005775
60.0000979
60.00015008
60.00021379
60.00028753
60.00036904
60.0004557
60.00054531
60.00063653
60.00072927
60.00082464
60.0009246
60.00103146
60.00114735
60.00127385
60.00141169
60.00156074
60.00172002
60.00188768
60.00206109
60.00223676
60.00241042
60.00257682
60.00272978
60.00286162
60.00296555
60.00303231
60.00305208
60.00301509
60.00290358
60.0026985
60.00237471
60.00188402
60.0011398
59.99999796
59.99820945
59.99533014
60.00000188
60.0000109
60.00002856
60.00005644
60.00009575
60.00014709
60.00021017
60.00028371
60.00036556
60.00045319
60.0005442
60.00063701
60.00073124
60.00082774
60.00092834
60.00103531
60.00115089
60.00127679
60.0014139
60.00156223
60.00172084
60.00188794
60.0020609
60.00223622
60.0024096
60.00257573
60.0027284
60.00286002
60.00296353
60.00302975
60.00304875
60.00301034
60.00289687
60.00268883
60.00235995
60.00186081
60.00110314
59.99993949
59.99811428
59.99517275
60.00000188
60.00001072
60.00002799
60.00005525
60.00009377
60.00014429
60.0002067
60.00027994
60.00036203
60.00045046
60.00054275
60.00063709
60.00073283
60.00083054
60.00093187
60.00103908
60.00115445
60.00127981
60.00141623
60.00156382
60.00172175
60.00188828
60.00206077
60.00223573
60.00240879
60.00257465
60.00272702
60.00285838
60.00296146
60.00302714
60.00304533
60.00300548
60.00289
60.0026789
60.0023448
60.00183705
60.00106563
59.99987961
59.99801686
59.99501163
60.00000187
60.00001057
60.00002748
60.00005415
60.00009193
60.00014165
60.00020339
60.00027626
60.00035846
60.00044756
60.00054101
60.00063683
60.00073405
60.00083302
60.00093519
60.00104274
60.00115798
60.00128289
60.00141865
60.00156552
60.00172277
60.0018887
60.00206071
60.00223526
60.002408
60.00257357
60.00272563
60.00285672
60.00295937
60.00302448
60.00304183
60.00300051
60.00288297
60.00266871
60.00232927
60.00181273
60.00102724
59.9998183
59.99791711
59.99484669
60.00000187
60.00001043
60.00002701
60.00005314
60.00009022
60.00013917
60.00020021
60.00027266
60.00035488
60.00044451
60.00053901
60.00063621
60.00073492
60.00083519
60.00093828
60.00104627
60.00116149
60.00128601
60.00142115
60.00156732
60.00172388
60.0018892
60.0020607
60.00223484
60.00240723
60.00257249
60.00272424
60.00285503
60.00295724
60.00302176
60.00303824
60.00299544
60.00287578
60.00265826
60.00231334
60.00178782
60.00098795
59.99975552
59.997815
59.99467785
60.00000186
60.00001031
60.00002658
60.00005221
60.00008863
60.00013683
60.00019719
60.00026917
60.00035131
60.00044137
60.0005368
60.0006353
60.00073545
60.00083705
60.00094114
60.00104966
60.00116495
60.00128915
60.00142372
60.00156921
60.00172508
60.00188978
60.00206074
60.00223446
60.00240649
60.00257142
60.00272284
60.00285332
60.00295508
60.00301899
60.00303457
60.00299026
60.00286842
60.00264754
60.00229701
60.00176232
60.00094774
59.99969124
59.99771046
59.99450502
60.00000186
60.0000102
60.00002618
60.00005135
60.00008714
60.00013463
60.00019429
60.00026578
60.00034777
60.00043816
60.00053441
60.00063412
60.00073567
60.00083861
60.00094375
60.0010529
60.00116835
60.0012923
60.00142636
60.00157118
60.00172637
60.00189043
60.00206085
60.00223411
60.00240576
60.00257035
60.00272144
60.00285158
60.00295288
60.00301616
60.00303081
60.00298496
60.00286088
60.00263655
60.00228028
60.00173621
60.00090658
59.99962542
59.99760344
59.99432809
60.00000186
60.0000101
60.00002582
60.00005056
60.00008575
60.00013255
60.00019153
60.00026249
60.00034428
60.0004349
60.00053187
60.0006327
60.00073561
60.00083989
60.00094612
60.00105597
60.00117166
60.00129545
60.00142904
60.00157323
60.00172774
60.00189117
60.00206102
60.00223381
60.00240506
60.00256929
60.00272003
60.00284982
60.00295065
60.00301328
60.00302696
60.00297955
60.00285317
60.00262528
60.00226312
60.00170947
60.00086445
59.99955804
59.99749388
59.99414699
60.00000186
60.00001
60.00002549
60.00004982
60.00008445
60.00013059
60.0001889
60.00025931
60.00034084
60.00043161
60.00052919
60.00063107
60.00073528
60.00084089
60.00094826
60.00105887
60.00117489
60.00129858
60.00143176
60.00157535
60.00172919
60.00189197
60.00206125
60.00223355
60.00240438
60.00256824
60.00271862
60.00284804
60.00294838
60.00301032
60.00302301
60.00297401
60.00284527
60.00261372
60.00224555
60.00168211
60.00082133
59.99948904
59.99738173
59.99396162
60.00000186
60.00000992
60.00002518
60.00004913
60.00008323
60.00012873
60.00018638
60.00025624
60.00033746
60.00042831
60.00052642
60.00062925
60.0007347
60.00084162
60.00095015
60.00106159
60.00117801
60.00130168
60.0014345
60.00157753
60.00173072
60.00189285
60.00206154
60.00223333
60.00240373
60.0025672
60.00271721
60.00284623
60.00294608
60.00300731
60.00301898
60.00296834
60.00283719
60.00260187
60.00222753
60.00165409
60.00077719
59.99941841
59.99726691
59.99377186
60.00000187
60.00000985
60.00002489
60.00004848
60.00008208
60.00012697
60.00018398
60.00025328
60.00033416
60.00042502
60.00052357
60.00062727
60.00073389
60.0008421
60.00095182
60.00106413
60.00118101
60.00130474
60.00143726
60.00157976
60.00173231
60.00189379
60.00206188
60.00223315
60.0024031
60.00256617
60.00271578
60.0028444
60.00294373
60.00300423
60.00301485
60.00296255
60.00282891
60.00258972
60.00220908
60.0016254
60.000732
59.9993461
59.99714938
59.99357763
60.00000187
60.00000978
60.00002463
60.00004788
60.000081
60.0001253
60.00018168
60.00025041
60.00033092
60.00042174
60.00052066
60.00062515
60.00073288
60.00084235
60.00095325
60.00106648
60.0011839
60.00130774
60.00144003
60.00158203
60.00173396
60.0018948
60.00206229
60.00223302
60.00240249
60.00256514
60.00271436
60.00284255
60.00294135
60.00300109
60.00301063
60.00295663
60.00282044
60.00257728
60.00219017
60.00159603
60.00068575
59.99927207
59.99702907
59.99337883
60.00000187
60.00000972
60.00002438
60.00004732
60.00007999
60.00012372
60.00017949
60.00024765
60.00032776
60.00041848
60.0005177
60.0006229
60.00073168
60.00084237
60.00095446
60.00106865
60.00118666
60.00131068
60.00144279
60.00158434
60.00173567
60.00189587
60.00206274
60.00223293
60.00240192
60.00256413
60.00271292
60.00284068
60.00293893
60.00299788
60.00300631
60.00295057
60.00281176
60.00256452
60.0021708
60.00156597
60.00063841
59.99919629
59.99690591
59.99317533
60.00000188
60.00000966
60.00002415
60.00004678
60.00007902
60.00012222
60.00017739
60.00024498
60.00032468
60.00041526
60.00051471
60.00062054
60.00073031
60.0008422
60.00095546
60.00107064
60.00118929
60.00131356
60.00144553
60.00158668
60.00173744
60.001897
60.00206325
60.00223287
60.00240136
60.00256312
60.00271149
60.00283878
60.00293647
60.0029946
60.0030019
60.00294437
60.00280288
60.00255145
60.00215096
60.00153519
60.00058995
59.99911871
59.99677984
59.99296705
60.00000188
60.00000961
60.00002394
60.00004629
60.00007811
60.00012079
60.00017537
60.00024241
60.00032167
60.00041208
60.0005117
60.0006181
60.00072879
60.00084181
60.00095626
60.00107244
60.00119179
60.00131635
60.00144826
60.00158904
60.00173925
60.00189818
60.00206381
60.00223286
60.00240084
60.00256213
60.00271004
60.00283686
60.00293396
60.00299125
60.00299738
60.00293803
60.00279378
60.00253806
60.00213064
60.00150368
60.00054035
59.99903929
59.99665079
59.99275387
60.00000188
60.00000956
60.00002374
60.00004581
60.00007725
60.00011942
60.00017344
60.00023992
60.00031874
60.00040893
60.00050868
60.00061558
60.00072713
60.00084125
60.00095685
60.00107406
60.00119414
60.00131907
60.00145095
60.00159141
60.0017411
60.00189941
60.00206443
60.00223289
60.00240034
60.00256115
60.0027086
60.00283492
60.00293141
60.00298784
60.00299276
60.00293155
60.00278447
60.00252434
60.00210982
60.00147142
60.00048957
59.99895799
59.9965187
59.99253567
60.00000189
60.00000952
60.00002355
60.00004537
60.00007643
60.00011812
60.0001716
60.00023752
60.00031589
60.00040584
60.00050565
60.000613
60.00072534
60.00084052
60.00095726
60.00107551
60.00119635
60.00132169
60.00145361
60.00159379
60.00174298
60.0019007
60.00206508
60.00223296
60.00239987
60.00256018
60.00270714
60.00283296
60.00292882
60.00298435
60.00298804
60.00292491
60.00277494
60.00251028
60.00208851
60.0014384
60.0004376
59.99887477
59.99638349
59.99231234
60.00000189
60.00000948
60.00002337
60.00004495
60.00007565
60.00011688
60.00016982
60.00023521
60.00031311
60.00040279
60.00050263
60.00061036
60.00072345
60.00083963
60.00095748
60.00107677
60.00119843
60.00132422
60.00145622
60.00159616
60.00174489
60.00190202
60.00206579
60.00223306
60.00239942
60.00255922
60.00270568
60.00283097
60.00292619
60.00298079
60.00298321
60.00291813
60.00276518
60.00249588
60.00206668
60.0014046
60.0003844
59.99878959
59.99624509
59.99208377
60.0000019
60.00000944
60.00002321
60.00004455
60.00007491
60.0001157
60.00016812
60.00023297
60.00031041
60.0003998
60.00049962
60.00060769
60.00072144
60.00083859
60.00095753
60.00107788
60.00120036
60.00132665
60.00145878
60.00159853
60.00174683
60.00190339
60.00206654
60.0022332
60.002399
60.00255827
60.00270422
60.00282895
60.00292351
60.00297716
60.00297827
60.00291118
60.00275519
60.00248114
60.00204432
60.00136999
60.00032995
59.99870239
59.99610344
59.99184984
60.0000019
60.0000094
60.00002305
60.00004417
60.00007421
60.00011457
60.00016648
60.0002308
60.00030778
60.00039686
60.00049663
60.00060497
60.00071936
60.00083742
60.00095744
60.00107881
60.00120214
60.00132897
60.00146129
60.00160089
60.00174879
60.00190479
60.00206732
60.00223338
60.0023986
60.00255733
60.00270275
60.00282692
60.00292078
60.00297345
60.00297322
60.00290408
60.00274496
60.00246603
60.00202143
60.00133457
60.00027421
59.99861314
59.99595845
59.99161041
60.00000191
60.00000937
60.0000229
60.00004382
60.00007354
60.00011348
60.00016491
60.00022871
60.00030522
60.00039397
60.00049366
60.00060224
60.0007172
60.00083612
60.00095718
60.00107959
60.00120379
60.0013312
60.00146374
60.00160323
60.00175075
60.00190622
60.00206815
60.00223359
60.00239822
60.0025564
60.00270127
60.00282485
60.00291801
60.00296967
60.00296805
60.00289681
60.00273448
60.00245056
60.00199798
60.0012983
60.00021716
59.99852178
59.99581005
59.99136538
60.00000192
60.00000934
60.00002276
60.00004347
60.0000729
60.00011244
60.00016339
60.00022669
60.00030273
60.00039114
60.00049072
60.00059948
60.00071497
60.00083471
60.00095677
60.00108021
60.0012053
60.00133331
60.00146612
60.00160555
60.00175273
60.00190768
60.00206901
60.00223384
60.00239787
60.00255548
60.00269979
60.00282276
60.00291518
60.00296581
60.00296277
60.00288937
60.00272376
60.00243472
60.00197398
60.00126118
60.00015876
59.99842827
59.99565816
59.99111461
60.00000192
60.00000932
60.00002263
60.00004315
60.00007228
60.00011144
60.00016193
60.00022473
60.0003003
60.00038836
60.0004878
60.00059672
60.00071269
60.0008332
60.00095623
60.00108068
60.00120667
60.00133532
60.00146844
60.00160783
60.00175471
60.00190917
60.0020699
60.00223411
60.00239754
60.00255457
60.0026983
60.00282065
60.0029123
60.00296189
60.00295737
60.00288177
60.00271279
60.0024185
60.00194941
60.00122319
60.00009899
59.99833256
59.99550271
59.99085797
60.00000193
60.00000929
60.0000225
60.00004284
60.0000717
60.00011049
60.00016053
60.00022284
60.00029794
60.00038564
60.00048491
60.00059395
60.00071035
60.00083159
60.00095556
60.00108101
60.0012079
60.00133722
60.00147068
60.00161009
60.00175669
60.00191067
60.00207083
60.00223442
60.00239724
60.00255367
60.0026968
60.0028185
60.00290937
60.00295788
60.00295185
60.00287398
60.00270156
60.00240189
60.00192424
60.00118429
60.0000378
59.9982346
59.99534361
59.99059532
60.00000193
60.00000927
60.00002239
60.00004255
60.00007113
60.00010957
60.00015917
60.00022101
60.00029564
60.00038297
60.00048206
60.00059117
60.00070796
60.00082989
60.00095476
60.00108121
60.001209
60.00133901
60.00147285
60.0016123
60.00175867
60.0019122
60.00207178
60.00223475
60.00239695
60.00255278
60.0026953
60.00281633
60.00290638
60.00295379
60.00294621
60.00286602
60.00269006
60.00238488
60.00189848
60.00114447
59.99997516
59.99813433
59.99518077
59.99032654
60.00000194
60.00000925
60.00002227
60.00004226
60.00007059
60.00010868
60.00015787
60.00021923
60.00029341
60.00038036
60.00047924
60.0005884
60.00070554
60.00082811
60.00095385
60.00108126
60.00120997
60.00134069
60.00147494
60.00161448
60.00176063
60.00191373
60.00207275
60.00223511
60.00239668
60.00255189
60.00269378
60.00281412
60.00290334
60.00294963
60.00294045
60.00285787
60.00267829
60.00236747
60.00187211
60.00110371
59.99991102
59.99803171
59.99501412
59.99005148
60.00000194
60.00000923
60.00002217
60.00004199
60.00007008
60.00010783
60.0001566
60.00021751
60.00029123
60.0003778
60.00047646
60.00058564
60.00070308
60.00082626
60.00095284
60.0010812
60.00121081
60.00134225
60.00147695
60.00161661
60.00176258
60.00191528
60.00207375
60.00223549
60.00239643
60.00255101
60.00269226
60.00281189
60.00290024
60.00294538
60.00293456
60.00284954
60.00266624
60.00234964
60.00184511
60.00106198
59.99984535
59.99792667
59.99484357
59.98977
60.00000195
60.00000921
60.00002207
60.00004174
60.00006958
60.00010701
60.00015538
60.00021584
60.00028911
60.00037529
60.00047372
60.00058288
60.0007006
60.00082435
60.00095172
60.00108101
60.00121153
60.00134371
60.00147887
60.00161869
60.00176451
60.00191683
60.00207476
60.00223589
60.0023962
60.00255013
60.00269072
60.00280963
60.00289709
60.00294104
60.00292853
60.00284102
60.00265391
60.00233139
60.00181746
60.00101927
59.99977812
59.99781917
59.99466902
59.98948196
60.00000196
60.0000092
60.00002197
60.00004149
60.0000691
60.00010622
60.0001542
60.00021422
60.00028704
60.00037283
60.00047101
60.00058014
60.0006981
60.00082237
60.00095051
60.00108071
60.00121213
60.00134506
60.00148072
60.00162072
60.00176643
60.00191838
60.00207579
60.00223632
60.00239598
60.00254926
60.00268917
60.00280733
60.00289388
60.00293662
60.00292238
60.0028323
60.00264129
60.0023127
60.00178916
60.00097554
59.99970929
59.99770914
59.99449038
59.9891872
60.00000196
60.00000918
60.00002188
60.00004125
60.00006864
60.00010545
60.00015306
60.00021264
60.00028502
60.00037043
60.00046834
60.00057741
60.00069558
60.00082034
60.00094922
60.00108029
60.00121261
60.0013463
60.00148248
60.00162269
60.00176832
60.00191994
60.00207684
60.00223676
60.00239577
60.00254839
60.00268761
60.002805
60.00289061
60.0029321
60.00291609
60.00282337
60.00262837
60.00229357
60.00176019
60.00093078
59.99963883
59.99759652
59.99430757
59.98888557
60.00000197
60.00000917
60.00002179
60.00004102
60.0000682
60.00010472
60.00015195
60.00021112
60.00028306
60.00036807
60.00046571
60.0005747
60.00069304
60.00081826
60.00094784
60.00107977
60.00121297
60.00134744
60.00148415
60.00162461
60.00177018
60.00192148
60.00207789
60.00223721
60.00239558
60.00254753
60.00268604
60.00280263
60.00288728
60.0029275
60.00290966
60.00281425
60.00261515
60.00227398
60.00173054
60.00088496
59.99956671
59.99748127
59.99412049
59.98857693
60.00000197
60.00000915
60.0000217
60.0000408
60.00006777
60.000104
60.00015088
60.00020963
60.00028115
60.00036576
60.00046312
60.00057201
60.0006905
60.00081614
60.00094638
60.00107915
60.00121322
60.00134847
60.00148574
60.00162647
60.00177201
60.00192303
60.00207896
60.00223768
60.0023954
60.00254666
60.00268445
60.00280024
60.00288389
60.0029228
60.00290308
60.00280491
60.00260162
60.00225394
60.00170018
60.00083806
59.99949287
59.99736331
59.99392903
59.98826111
60.00000198
60.00000914
60.00002162
60.00004059
60.00006736
60.00010331
60.00014984
60.00020819
60.00027928
60.0003635
60.00046056
60.00056934
60.00068795
60.00081397
60.00094486
60.00107843
60.00121337
60.00134939
60.00148725
60.00162827
60.0017738
60.00192456
60.00208003
60.00223817
60.00239523
60.0025458
60.00268285
60.0027978
60.00288043
60.002918
60.00289637
60.00279537
60.00258777
60.00223342
60.0016691
60.00079005
59.9994173
59.99724259
59.99373311
59.98793795
60.00000199
60.00000913
60.00002154
60.00004039
60.00006696
60.00010265
60.00014883
60.00020679
60.00027745
60.00036129
60.00045805
60.00056669
60.0006854
60.00081178
60.00094327
60.00107763
60.00121341
60.00135022
60.00148866
60.00163
60.00177556
60.00192608
60.0020811
60.00223866
60.00239507
60.00254493
60.00268123
60.00279533
60.00287692
60.0029131
60.0028895
60.0027856
60.0025736
60.00221241
60.00163729
60.00074091
59.99933995
59.99711904
59.99353262
59.98760728
60.00000199
60.00000912
60.00002147
60.00004019
60.00006657
60.000102
60.00014786
60.00020542
60.00027568
60.00035912
60.00045557
60.00056406
60.00068284
60.00080955
60.00094161
60.00107673
60.00121336
60.00135094
60.00148999
60.00163167
60.00177729
60.00192758
60.00208217
60.00223916
60.00239491
60.00254407
60.00267959
60.00279282
60.00287334
60.00290811
60.00288249
60.00277561
60.0025591
60.00219091
60.00160473
60.00069061
59.99926077
59.99699259
59.99332745
59.98726894
60.000002
60.00000911
60.0000214
60.00004
60.0000662
60.00010137
60.00014691
60.00020409
60.00027394
60.00035699
60.00045313
60.00056146
60.00068029
60.00080729
60.0009399
60.00107576
60.0012132
60.00135157
60.00149123
60.00163328
60.00177897
60.00192906
60.00208324
60.00223966
60.00239475
60.00254319
60.00267794
60.00279026
60.00286969
60.00290301
60.00287532
60.00276539
60.00254426
60.0021689
60.00157141
60.00063912
59.99917973
59.99686319
59.9931175
59.98692276
60.000002
60.0000091
60.00002133
60.00003982
60.00006584
60.00010076
60.00014598
60.0002028
60.00027224
60.00035491
60.00045073
60.00055889
60.00067774
60.00080501
60.00093814
60.0010747
60.00121295
60.0013521
60.00149239
60.00163482
60.0017806
60.00193053
60.00208431
60.00224017
60.0023946
60.00254232
60.00267626
60.00278767
60.00286597
60.0028978
60.00286799
60.00275494
60.00252907
60.00214638
60.00153729
60.00058643
59.99909679
59.99673077
59.99290267
59.98656856
60.00000201
60.00000909
60.00002126
60.00003964
60.00006549
60.00010017
60.00014509
60.00020154
60.00027059
60.00035286
60.00044837
60.00055633
60.00067519
60.00080271
60.00093633
60.00107358
60.00121261
60.00135253
60.00149346
60.00163629
60.0017822
60.00193197
60.00208536
60.00224068
60.00239446
60.00254143
60.00267457
60.00278504
60.00286218
60.00289248
60.0028605
60.00274424
60.00251353
60.00212332
60.00150238
60.0005325
59.99901191
59.99659525
59.99268284
59.98620616
60.00000202
60.00000908
60.0000212
60.00003947
60.00006515
60.0000996
60.00014421
60.00020031
60.00026897
60.00035086
60.00044604
60.00055381
60.00067265
60.00080039
60.00093447
60.00107237
60.00121218
60.00135287
60.00149444
60.00163769
60.00178374
60.00193338
60.00208641
60.00224118
60.00239431
60.00254054
60.00267285
60.00278236
60.00285832
60.00288706
60.00285284
60.00273331
60.00249762
60.00209973
60.00146664
60.0004773
59.99892503
59.99645657
59.99245789
59.98583538
60.00000202
60.00000908
60.00002114
60.0000393
60.00006482
60.00009904
60.00014336
60.00019911
60.00026738
60.00034889
60.00044375
60.00055131
60.00067012
60.00079806
60.00093257
60.00107111
60.00121167
60.00135312
60.00149534
60.00163902
60.00178524
60.00193477
60.00208745
60.00224169
60.00239415
60.00253964
60.00267111
60.00277964
60.00285438
60.00288152
60.00284501
60.00272212
60.00248135
60.00207558
60.00143007
60.0004208
59.99883612
59.99631466
59.99222773
59.98545604
60.00000203
60.00000907
60.00002108
60.00003914
60.0000645
60.0000985
60.00014254
60.00019794
60.00026584
60.00034697
60.00044149
60.00054883
60.0006676
60.00079571
60.00093063
60.00106978
60.00121108
60.00135329
60.00149615
60.00164029
60.00178669
60.00193612
60.00208847
60.00224219
60.002394
60.00253873
60.00266934
60.00277688
60.00285037
60.00287586
60.00283702
60.00271068
60.0024647
60.00205087
60.00139263
60.00036298
59.99874513
59.99616944
59.99199223
59.98506796
60.00000203
60.00000906
60.00002102
60.00003899
60.00006419
60.00009798
60.00014173
60.0001968
60.00026432
60.00034508
60.00043927
60.00054638
60.00066509
60.00079336
60.00092865
60.00106839
60.00121041
60.00135336
60.00149689
60.00164148
60.00178808
60.00193744
60.00208947
60.00224268
60.00239383
60.00253781
60.00266755
60.00277406
60.00284628
60.00287009
60.00282884
60.00269898
60.00244766
60.00202557
60.00135432
60.00030381
59.99865201
59.99602084
59.99175127
59.98467096
60.00000204
60.00000905
60.00002096
60.00003884
60.00006389
60.00009746
60.00014094
60.00019568
60.00026284
60.00034322
60.00043708
60.00054396
60.0006626
60.00079099
60.00092664
60.00106695
60.00120967
60.00135336
60.00149754
60.0016426
60.00178942
60.00193873
60.00209046
60.00224316
60.00239367
60.00253687
60.00266573
60.0027712
60.0028421
60.00286419
60.00282048
60.00268701
60.00243023
60.00199969
60.00131511
60.00024325
59.99855672
59.99586878
59.99150475
59.98426482
60.00000204
60.00000905
60.00002091
60.00003869
60.0000636
60.00009696
60.00014018
60.00019459
60.00026139
60.0003414
60.00043493
60.00054157
60.00066011
60.00078862
60.0009246
60.00106545
60.00120886
60.00135327
60.00149811
60.00164365
60.00179071
60.00193999
60.00209143
60.00224364
60.00239349
60.00253592
60.00266388
60.00276828
60.00283785
60.00285817
60.00281194
60.00267477
60.00241239
60.0019732
60.00127499
60.00018128
59.99845921
59.99571319
59.99125252
59.98384935
60.00000205
60.00000904
60.00002086
60.00003854
60.00006331
60.00009648
60.00013943
60.00019353
60.00025997
60.00033961
60.00043281
60.0005392
60.00065764
60.00078624
60.00092254
60.0010639
60.00120797
60.00135311
60.00149859
60.00164463
60.00179194
60.0019412
60.00209237
60.0022441
60.0023933
60.00253494
60.00266199
60.00276531
60.00283351
60.00285202
60.00280321
60.00266224
60.00239414
60.00194609
60.00123392
60.00011786
59.99835942
59.99555399
59.99099448
59.98342434
60.00000205
60.00000904
60.0000208
60.0000384
60.00006303
60.000096
60.0001387
60.00019248
60.00025857
60.00033786
60.00043072
60.00053685
60.00065518
60.00078386
60.00092045
60.0010623
60.00120702
60.00135286
60.001499
60.00164554
60.00179312
60.00194238
60.00209329
60.00224454
60.00239309
60.00253395
60.00266008
60.00276229
60.00282908
60.00284575
60.00279429
60.00264944
60.00237547
60.00191835
60.00119189
60.00005295
59.99825731
59.99539109
59.99073047
59.98298958
60.00000206
60.00000903
60.00002075
60.00003827
60.00006276
60.00009554
60.00013798
60.00019147
60.00025721
60.00033613
60.00042866
60.00053454