/*--------------------------------*- C++ -*----------------------------------*\
| =========                 |                                                 |
| \\      /  F ield         | OpenFOAM: The Open Source CFD Toolbox           |
|  \\    /   O peration     | Version:  v2006                                 |
|   \\  /    A nd           | Website:  www.openfoam.com                      |
|    \\/     M anipulation  |                                                 |
\*---------------------------------------------------------------------------*/
FoamFile
{
    version     2.0;
    format      ascii;
    class       volScalarField;
    location    "0.09";
    object      theta2_0;
}
// * * * * * * * * * * * * * * * * * * * * * * * * * * * * * * * * * * * * * //

dimensions      [0 0 0 0 0 0 0];


internalField   nonuniform List<scalar> 
168000
(
59.99990569
59.99981027
59.99972026
59.99961835
59.99951771
59.99942868
59.9993371
59.99924608
59.99918489
59.99913728
59.99909708
59.9990861
59.9990976
59.99911918
59.99917261
59.99924312
59.99932678
59.9994358
59.99955464
59.9996869
59.99982901
59.99997317
60.00012105
60.00026175
60.00039842
60.00051643
60.0006277
60.00070511
60.00077028
60.00080492
60.00081076
60.00079325
60.00073776
60.00064009
60.00049715
60.00029361
59.99999113
59.99952688
59.99883064
59.99777316
59.99989978
59.99980621
59.99975434
59.99969755
59.99962816
59.99954913
59.99945941
59.99936579
59.99928517
59.99921735
59.99916318
59.99913417
59.99912954
59.99914435
59.99918712
59.99925146
59.99933385
59.99943771
59.99955672
59.99968718
59.99982883
59.99997289
60.00012027
60.0002612
60.00039736
60.00051591
60.00062623
60.0007044
60.00076872
60.00080317
60.00080889
60.00079013
60.0007336
60.00063486
60.00048979
60.00028191
59.9999729
59.99950096
59.99879183
59.99771416
59.99990481
59.99980645
59.99977064
59.99974415
59.99970402
59.99964409
59.99956469
59.99947321
59.99938278
59.99930054
59.99923238
59.99918721
59.99916759
59.99917248
59.99920525
59.99926271
59.99934165
59.9994416
59.99955897
59.99968812
59.9998288
59.99997273
60.00011955
60.00026067
60.00039631
60.00051542
60.00062471
60.00070367
60.00076715
60.00080138
60.00080695
60.00078698
60.00072939
60.0006295
60.00048216
60.00026993
59.99995442
59.99947447
59.99875219
59.99765407
59.99990844
59.99980656
59.99977617
59.99976862
59.9997531
59.9997151
59.99965137
59.99956738
59.9994745
59.99938332
59.99930333
59.99924395
59.99921033
59.99920398
59.99922668
59.99927662
59.99935076
59.99944683
59.99956177
59.99968955
59.99982899
59.99997268
60.00011892
60.00026016
60.00039529
60.00051489
60.0006232
60.00070287
60.00076558
60.00079957
60.00080492
60.00078378
60.00072513
60.000624
60.00047428
60.00025767
59.99993567
59.9994474
59.99871172
59.99759287
59.99991022
59.99980513
59.99977493
59.99977834
59.99978201
59.99976532
59.99971989
59.99964776
59.99955821
59.99946312
59.99937443
59.99930311
59.99925662
59.99923869
59.99925116
59.99929303
59.99936146
59.99945332
59.9995653
59.99969145
59.99982954
59.99997276
60.0001184
60.00025965
60.00039433
60.0005143
60.00062174
60.00070201
60.00076401
60.00079774
60.00080282
60.00078053
60.00072081
60.00061834
60.00046615
60.00024513
59.99991663
59.99941976
59.9986704
59.99753052
59.9999108
59.99980212
59.99976935
59.99977826
59.99979607
59.99979836
59.9997719
59.99971448
59.99963268
59.99953815
59.99944417
59.9993634
59.99930549
59.99927625
59.99927843
59.99931181
59.99937385
59.99946105
59.99956966
59.99969387
59.99983043
59.99997299
60.00011801
60.00025915
60.00039343
60.00051366
60.00062032
60.00070107
60.00076243
60.00079587
60.00080064
60.00077725
60.00071642
60.00061253
60.00045778
60.00023231
59.99989727
59.99939153
59.99862822
59.99746698
59.99991063
59.9997979
59.99976102
59.99977178
59.99979936
59.99981767
59.99980945
59.99976822
59.99969738
59.99960716
59.99951126
59.99942366
59.99935601
59.99931615
59.99930819
59.99933282
59.99938796
59.99947005
59.99957492
59.99969683
59.9998317
59.99997342
60.00011776
60.00025869
60.00039259
60.00051296
60.00061895
60.00070006
60.00076085
60.00079397
60.00079838
60.00077391
60.00071196
60.00060657
60.00044916
60.00021921
59.99987758
59.99936272
59.99858518
59.99740223
59.99990996
59.99979284
59.99975095
59.99976103
59.99979503
59.99982623
59.99983472
59.99981013
59.99975232
59.99966943
59.99957468
59.99948289
59.99940735
59.99935785
59.99934009
59.99935587
59.99940377
59.99948033
59.99958111
59.99970037
59.99983337
59.99997405
60.00011765
60.00025827
60.00039181
60.00051222
60.00061763
60.00069899
60.00075926
60.00079204
60.00079605
60.00077052
60.00070741
60.00060045
60.00044031
60.00020583
59.99985753
59.99933331
59.99854126
59.99733624
59.99990894
59.99978722
59.99973983
59.99974754
59.99978516
59.99982647
59.9998498
59.99984146
59.99979787
59.9997246
59.9996337
59.99954022
59.99945873
59.99940078
59.99937378
59.99938079
59.99942121
59.99949188
59.99958826
59.99970454
59.99983546
59.99997492
60.00011769
60.00025792
60.00039108
60.00051144
60.00061634
60.00069786
60.00075766
60.00079007
60.00079365
60.00076708
60.00070278
60.00059417
60.00043123
60.00019216
59.99983711
59.99930329
59.99849644
59.99726896
59.99990769
59.99978127
59.99972812
59.99973236
59.99977151
59.99982054
59.99985654
59.99986355
59.99983467
59.99977264
59.99968783
59.99959497
59.99950948
59.99944443
59.9994089
59.99940736
59.99944019
59.9995047
59.99959636
59.99970936
59.99983801
59.99997605
60.00011788
60.00025763
60.0003904
60.00051065
60.00061509
60.00069668
60.00075604
60.00078808
60.00079118
60.00076358
60.00069806
60.00058773
60.00042191
60.00017819
59.9998163
59.99927265
59.99845071
59.99720039
59.9999063
59.99977516
59.99971616
59.99971615
59.99975524
59.99980974
59.99985652
59.99987768
59.99986345
59.99981372
59.99973681
59.99964664
59.99955902
59.99948828
59.99944507
59.99943536
59.99946059
59.99951874
59.99960543
59.99971486
59.99984102
59.99997747
60.00011827
60.00025743
60.00038977
60.00050984
60.00061386
60.00069546
60.00075441
60.00078604
60.00078864
60.00076002
60.00069324
60.00058112
60.00041235
60.00016393
59.99979509
59.99924139
59.99840406
59.99713049
59.99990482
59.99976899
59.99970414
59.99969942
59.99973722
59.99979546
59.99985123
59.99988507
59.99988502
59.99984815
59.99978053
59.99969484
59.99960686
59.99953187
59.99948195
59.99946454
59.9994823
59.99953395
59.99961546
59.99972106
59.99984452
59.99997919
60.00011884
60.00025733
60.00038921
60.00050903
60.00061265
60.0006942
60.00075275
60.00078397
60.00078603
60.00075639
60.00068832
60.00057435
60.00040256
60.00014936
59.99977348
59.99920948
59.99835647
59.99705923
59.99990329
59.99976284
59.99969222
59.99968248
59.9997181
59.99977858
59.99984155
59.99988674
59.9999002
59.99987639
59.99981905
59.99973935
59.99965264
59.99957481
59.99951918
59.99949466
59.99950516
59.99955028
59.99962642
59.99972797
59.99984851
59.99998124
60.00011962
60.00025734
60.0003887
60.00050822
60.00061146
60.00069291
60.00075107
60.00078186
60.00078336
60.0007527
60.0006833
60.00056741
60.00039252
60.00013449
59.99975143
59.99917693
59.99830793
59.99698658
59.99990173
59.99975677
59.9996805
59.99966556
59.99969832
59.99975986
59.99982855
59.99988379
59.99990977
59.9998989
59.99985252
59.99978002
59.99969604
59.99961674
59.99955647
59.9995255
59.99952902
59.99956763
59.99963828
59.99973558
59.99985302
59.99998363
60.00012061
60.00025745
60.00038826
60.00050743
60.00061029
60.00069158
60.00074937
60.00077971
60.00078062
60.00074893
60.00067817
60.0005603
60.00038225
60.00011929
59.99972895
59.99914371
59.9982584
59.99691253
59.99990018
59.99975082
59.99966903
59.99964883
59.99967823
59.99973984
59.99981294
59.99987679
59.99991443
59.99991619
59.99988114
59.99981682
59.99973685
59.99965736
59.99959351
59.99955681
59.99955374
59.99958594
59.99965102
59.99974389
59.99985805
59.99998637
60.00012183
60.0002577
60.00038789
60.00050666
60.00060914
60.00069023
60.00074764
60.00077752
60.00077782
60.00074509
60.00067293
60.00055302
60.00037173
60.00010378
59.99970602
59.99910982
59.99820789
59.99683703
59.99989863
59.99974501
59.99965785
59.99963238
59.99965806
59.99971896
59.99979534
59.99986657
59.99991483
59.99992876
59.9999052
59.99984979
59.99977492
59.99969644
59.99963007
59.99958837
59.99957915
59.99960509
59.99966457
59.99975289
59.99986359
59.99998947
60.00012328
60.0002581
60.00038759
60.00050591
60.000608
60.00068886
60.00074589
60.00077528
60.00077495
60.00074117
60.00066758
60.00054556
60.00036097
60.00008794
59.99968262
59.99907523
59.99815636
59.99676008
59.9998971
59.99973934
59.999647
59.99961629
59.999638
59.99969755
59.99977623
59.99985375
59.99991175
59.99993711
59.99992499
59.99987902
59.99981018
59.99973379
59.99966589
59.99962
59.99960511
59.99962501
59.99967891
59.99976256
59.99986967
59.99999295
60.00012498
60.00025864
60.00038738
60.0005052
60.00060687
60.00068747
60.0007441
60.00077301
60.00077201
60.00073717
60.00066211
60.00053793
60.00034996
60.00007176
59.99965876
59.99903993
59.99810381
59.99668163
59.99989561
59.99973385
59.99963648
59.9996006
59.99961817
59.99967586
59.999756
59.99983877
59.99990541
59.99994166
59.99994082
59.99990464
59.99984258
59.99976926
59.9997008
59.9996515
59.99963146
59.99964558
59.99969396
59.99977288
59.99987626
59.9999968
60.00012693
60.00025934
60.00038725
60.00050452
60.00060576
60.00068606
60.00074229
60.0007707
60.000769
60.00073309
60.00065652
60.00053011
60.0003387
60.00005524
59.9996344
59.9990039
59.9980502
59.99660167
59.99989414
59.99972851
59.99962629
59.99958534
59.99959865
59.99965407
59.99973497
59.99982208
59.99989644
59.99994285
59.99995301
59.99992678
59.99987214
59.99980274
59.99973463
59.99968269
59.99965806
59.99966671
59.99970967
59.99978382
59.99988336
60.00000104
60.00012915
60.0002602
60.00038722
60.00050388
60.00060466
60.00068463
60.00074045
60.00076834
60.00076593
60.00072892
60.0006508
60.00052212
60.00032718
60.00003837
59.99960955
59.99896714
59.99799552
59.99652016
59.99989271
59.99972335
59.99961644
59.99957051
59.99957951
59.99963235
59.9997134
59.99980401
59.99988525
59.99994118
59.99996188
59.99994567
59.99989889
59.99983416
59.99976724
59.99971342
59.99968477
59.9996883
59.99972597
59.99979535
59.99989097
60.00000566
60.00013164
60.00026123
60.00038727
60.00050329
60.00060359
60.00068319
60.00073858
60.00076594
60.00076279
60.00072466
60.00064496
60.00051393
60.00031541
60.00002114
59.9995842
59.99892962
59.99793976
59.99643709
59.99989132
59.99971835
59.99960692
59.99955614
59.99956078
59.99961079
59.99969148
59.99978488
59.99987217
59.99993682
59.9999677
59.99996148
59.99992292
59.9998635
59.99979852
59.99974357
59.99971146
59.99971024
59.99974281
59.99980744
59.99989907
60.00001067
60.0001344
60.00026244
60.00038744
60.00050275
60.00060253
60.00068174
60.00073668
60.00076349
60.00075958
60.00072031
60.00063899
60.00050556
60.00030337
60.00000355
59.99955832
59.99889133
59.99788289
59.99635242
59.99988997
59.99971351
59.99959771
59.9995422
59.99954251
59.99958948
59.99966937
59.99976492
59.99985752
59.99993018
59.99997076
59.9999744
59.99994429
59.99989072
59.9998284
59.99977301
59.99973802
59.99973245
59.99976011
59.99982004
59.99990764
60.00001605
60.00013744
60.00026383
60.00038772
60.00050227
60.00060149
60.00068027
60.00073475
60.000761
60.0007563
60.00071587
60.00063289
60.000497
60.00029106
59.99998558
59.99953191
59.99885227
59.99782489
59.99626613
59.99988865
59.99970884
59.99958882
59.9995287
59.99952469
59.99956848
59.99964722
59.99974434
59.99984155
59.99992157
59.99997132
59.99998464
59.99996313
59.99991585
59.9998568
59.99980164
59.99976434
59.99975482
59.99977781
59.99983313
59.99991667
60.00002181
60.00014075
60.00026542
60.00038811
60.00050185
60.00060048
60.0006788
60.00073279
60.00075846
60.00075296
60.00071134
60.00062665
60.00048824
60.00027848
59.99996724
59.99950496
59.99881241
59.99776573
59.9961782
59.99988738
59.99970431
59.99958023
59.99951563
59.99950734
59.99954784
59.99962511
59.99972331
59.9998245
59.99991124
59.99996975
59.99999239
59.99997954
59.99993891
59.99988369
59.99982936
59.99979032
59.99977728
59.99979585
59.99984665
59.99992612
60.00002794
60.00014435
60.00026719
60.00038862
60.00050149
60.00059949
60.00067732
60.00073081
60.00075588
60.00074953
60.0007067
60.00062027
60.00047928
60.00026562
59.9999485
59.99947746
59.99877174
59.99770541
59.99608858
59.99988613
59.99969993
59.99957192
59.99950297
59.99949045
59.99952758
59.99960314
59.99970197
59.99980656
59.99989941
59.99996607
59.99999783
59.99999364
59.99995994
59.99990904
59.99985612
59.99981588
59.99979973
59.99981415
59.99986056
59.99993599
60.00003443
60.00014822
60.00026916
60.00038926
60.00050119
60.00059853
60.00067584
60.0007288
60.00075324
60.00074604
60.00070197
60.00061375
60.00047012
60.00025247
59.99992938
59.99944938
59.99873025
59.9976439
59.99599727
59.99988493
59.9996957
59.9995639
59.99949071
59.99947403
59.99950774
59.99958135
59.99968044
59.99978791
59.99988628
59.99996059
60.00000114
60.00000555
59.99997899
59.99993283
59.99988186
59.99984094
59.99982211
59.99983267
59.99987483
59.99994625
60.00004127
60.00015238
60.00027133
60.00039002
60.00050097
60.0005976
60.00067436
60.00072676
60.00075056
60.00074247
60.00069713
60.00060708
60.00046076
60.00023904
59.99990985
59.99942074
59.99868792
59.99758118
59.99590422
59.99988376
59.9996916
59.99955613
59.99947884
59.99945806
59.99948831
59.99955981
59.99965881
59.99976868
59.99987204
59.99995351
60.00000249
60.0000154
59.99999614
59.99995508
59.99990653
59.99986542
59.99984433
59.99985133
59.99988941
59.99995687
60.00004845
60.0001568
60.00027369
60.00039091
60.00050082
60.00059671
60.00067287
60.00072469
60.00074783
60.00073883
60.00069219
60.00060027
60.00045118
60.00022532
59.9998899
59.9993915
59.99864473
59.99751723
59.99580942
59.99988263
59.99968763
59.99954862
59.99946733
59.99944254
59.99946931
59.99953855
59.99963716
59.99974901
59.99985685
59.999945
60.00000208
60.00002332
60.00001144
59.99997578
59.99993009
59.99988928
59.99986634
59.99987008
59.99990426
59.99996782
60.00005595
60.0001615
60.00027626
60.00039193
60.00050076
60.00059584
60.00067138
60.00072259
60.00074504
60.00073511
60.00068714
60.00059331
60.00044139
60.0002113
59.99986954
59.99936166
59.99860067
59.99745202
59.99571283
59.99988153
59.99968379
59.99954135
59.99945619
59.99942745
59.99945075
59.99951761
59.99961556
59.99972899
59.99984086
59.99993522
60.00000003
60.00002942
60.00002495
59.99999497
59.99995254
59.99991245
59.99988808
59.99988886
59.99991933
59.99997908
60.00006376
60.00016646
60.00027903
60.00039309
60.00050077
60.00059501
60.00066989
60.00072047
60.00074221
60.00073131
60.00068198
60.00058619
60.00043139
60.00019697
59.99984875
59.99933121
59.99855572
59.99738553
59.99561443
59.99988046
59.99968006
59.99953431
59.99944538
59.99941279
59.99943261
59.99949699
59.99959407
59.99970873
59.99982418
59.9999243
59.99999645
60.00003381
60.00003678
60.00001266
59.99997384
59.99993491
59.99990948
59.99990763
59.99993458
59.99999062
60.00007186
60.00017168
60.000282
60.00039439
60.00050085
60.00059422
60.0006684
60.00071832
60.00073933
60.00072743
60.00067671
60.00057892
60.00042116
60.00018234
59.99982752
59.99930013
59.99850987
59.99731775
59.99551418
59.99987942
59.99967646
59.99952749
59.9994349
59.99939853
59.9994149
59.99947672
59.99957273
59.99968831
59.99980692
59.99991238
59.99999152
60.00003661
60.00004699
60.0000289
59.999994
59.99995661
59.99993051
59.99992632
59.99994998
60.0000024
60.00008024
60.00017715
60.00028516
60.00039582
60.00050102
60.00059347
60.00066691
60.00071615
60.00073639
60.00072348
60.00067133
60.00057148
60.00041071
60.00016738
59.99980584
59.99926841
59.9984631
59.99724865
59.99541207
59.99987841
59.99967296
59.99952089
59.99942474
59.99938466
59.99939761
59.99945681
59.99955157
59.99966777
59.99978919
59.99989959
59.99998534
60.00003794
60.00005565
60.00004372
60.00001302
59.99997752
59.99995111
59.99994491
59.99996548
60.00001442
60.00008888
60.00018286
60.00028852
60.0003974
60.00050128
60.00059276
60.00066543
60.00071395
60.0007334
60.00071944
60.00066583
60.00056389
60.00040003
60.00015211
59.99978371
59.99923605
59.99841539
59.99717821
59.99530806
59.99987743
59.99966957
59.99951448
59.99941488
59.99937118
59.99938073
59.99943726
59.99953062
59.9996472
59.99977107
59.99988602
59.99997804
60.00003788
60.00006286
60.00005716
60.0000309
59.99999762
59.99997126
59.99996334
59.99998105
60.00002662
60.00009777
60.00018881
60.00029207
60.00039911
60.00050163
60.00059209
60.00066395
60.00071172
60.00073036
60.00071532
60.00066021
60.00055612
60.00038911
60.0001365
59.99976112
59.99920302
59.99836673
59.9971064
59.99520213
59.99987648
59.99966627
59.99950827
59.99940531
59.99935806
59.99936425
59.99941808
59.99950991
59.99962663
59.99975263
59.99987177
59.99996973
60.00003662
60.00006868
60.00006928
60.00004765
60.0000169
59.99999091
59.99998158
59.99999665
60.000039
60.00010688
60.00019498
60.00029581
60.00040096
60.00050207
60.00059146
60.00066248
60.00070947
60.00072726
60.00071111
60.00065448
60.00054819
60.00037795
60.00012056
59.99973805
59.99916931
59.9983171
59.99703321
59.99509424
59.99987556
59.99966308
59.99950223
59.99939601
59.9993453
59.99934817
59.99939927
59.99948946
59.9996061
59.99973395
59.99985693
59.99996049
60.0000341
60.00007319
60.0000801
60.00006329
60.00003534
60.00001004
59.99999958
60.00001224
60.00005151
60.00011619
60.00020137
60.00029974
60.00040295
60.00050259
60.00059088
60.00066102
60.00070719
60.00072411
60.00070682
60.00064862
60.00054008
60.00036655
60.00010428
59.9997145
59.99913491
59.99826647
59.9969586
59.99498436
59.99987466
59.99965997
59.99949638
59.99938698
59.99933288
59.99933248
59.99938082
59.99946928
59.99958566
59.99971507
59.99984157
59.99995041
60.00003049
60.00007645
60.00008969
60.00007784
60.00005294
60.00002863
60.00001733
60.0000278
60.00006414
60.0001257
60.00020795
60.00030385
60.00040508
60.00050321
60.00059035
60.00065956
60.00070488
60.00072091
60.00070244
60.00064263
60.00053179
60.00035491
60.00008765
59.99969045
59.99909982
59.99821484
59.99688256
59.99487248
59.99987378
59.99965696
59.99949069
59.9993782
59.99932079
59.99931715
59.99936274
59.99944937
59.99956532
59.99969605
59.99982577
59.99993957
60.00002586
60.00007855
60.00009809
60.00009133
60.00006969
60.00004665
60.00003478
60.00004329
60.00007686
60.00013537
60.00021473
60.00030812
60.00040735
60.00050392
60.00058987
60.00065812
60.00070255
60.00071765
60.00069797
60.00063651
60.00052333
60.00034301
60.00007066
59.99966591
59.999064
59.99816219
59.99680507
59.99475855
59.99987293
59.99965402
59.99948516
59.99936966
59.99930901
59.99930219
59.99934502
59.99942975
59.99954512
59.99967694
59.99980959
59.99992805
60.00002031
60.00007953
60.00010536
60.00010376
60.0000856
60.00006409
60.00005191
60.00005868
60.00008964
60.0001452
60.00022169
60.00031257
60.00040974
60.00050472
60.00058943
60.00065668
60.0007002
60.00071433
60.00069341
60.00063027
60.00051468
60.00033085
60.00005332
59.99964085
59.99902745
59.99810849
59.99672609
59.99464256
59.9998721
59.99965117
59.99947979
59.99936136
59.99929754
59.99928758
59.99932765
59.99941043
59.99952507
59.99965777
59.99979309
59.99991592
60.00001389
60.00007948
60.00011154
60.00011518
60.00010068
60.00008093
60.00006869
60.00007396
60.00010246
60.00015516
60.00022882
60.00031718
60.00041227
60.0005056
60.00058904
60.00065525
60.00069782
60.00071095
60.00068876
60.00062389
60.00050584
60.00031843
60.0000356
59.99961526
59.99899015
59.99805372
59.99664561
59.99452446
59.99987129
59.9996484
59.99947456
59.99935327
59.99928636
59.99927331
59.99931063
59.9993914
59.9995052
59.99963858
59.99977631
59.99990325
60.00000668
60.00007852
60.00011668
60.00012562
60.00011492
60.00009716
60.00008512
60.00008908
60.00011529
60.00016523
60.00023611
60.00032195
60.00041493
60.00050658
60.0005887
60.00065383
60.00069542
60.00070751
60.00068402
60.00061737
60.00049682
60.00030574
60.0000175
59.99958914
59.99895209
59.99799788
59.9965636
59.99440424
59.9998705
59.9996457
59.99946947
59.9993454
59.99927546
59.99925937
59.99929395
59.99937268
59.99948552
59.9996194
59.9997593
59.99989009
59.99999873
60.00007658
60.00012083
60.00013509
60.00012834
60.00011278
60.00010115
60.00010404
60.00012812
60.00017541
60.00024354
60.00032686
60.00041771
60.00050765
60.0005884
60.00065242
60.000693
60.00070402
60.00067918
60.00061072
60.00048759
60.00029277
59.99999902
59.99956248
59.99891324
59.99794093
59.99648004
59.99428185
59.99986974
59.99964307
59.99946452
59.99933774
59.99926484
59.99924575
59.99927761
59.99935425
59.99946603
59.99960025
59.9997421
59.99987648
59.99999011
60.00007379
60.00012403
60.00014363
60.00014095
60.00012778
60.00011679
60.0001188
60.00014092
60.00018566
60.0002511
60.00033192
60.00042061
60.0005088
60.00058816
60.00065103
60.00069054
60.00070046
60.00067424
60.00060393
60.00047817
60.00027953
59.99998015
59.99953527
59.99887359
59.99788286
59.9963949
59.99415728
59.99986899
59.9996405
59.99945969
59.99933027
59.99925447
59.99923244
59.9992616
59.99933612
59.99944676
59.99958115
59.99972476
59.99986249
59.99998087
60.00007019
60.00012631
60.00015127
60.00015276
60.00014216
60.00013202
60.00013335
60.00015368
60.00019597
60.00025879
60.00033711
60.00042364
60.00051004
60.00058797
60.00064964
60.00068807
60.00069684
60.00066921
60.00059699
60.00046855
60.000266
59.99996088
59.99950748
59.99883313
59.99782365
59.99630816
59.99403048
59.99986826
59.999638
59.99945499
59.99932299
59.99924436
59.99921944
59.9992459
59.99931828
59.9994277
59.99956214
59.99970729
59.99984816
59.99997105
60.00006585
60.00012774
60.00015805
60.00016379
60.00015591
60.00014681
60.00014767
60.00016636
60.00020634
60.00026658
60.00034242
60.00042677
60.00051137
60.00058782
60.00064827
60.00068556
60.00069316
60.00066407
60.00058991
60.00045871
60.00025218
59.9999412
59.99947912
59.99879185
59.99776327
59.99621979
59.99390143
59.99986755
59.99963557
59.99945041
59.99931589
59.99923449
59.99920672
59.99923052
59.99930074
59.99940886
59.99954321
59.99968974
59.99983352
59.99996072
60.0000608
60.00012835
60.00016399
60.00017405
60.00016904
60.00016118
60.00016175
60.00017897
60.00021673
60.00027447
60.00034786
60.00043002
60.00051278
60.00058773
60.00064691
60.00068303
60.00068941
60.00065884
60.00058268
60.00044867
60.00023807
59.9999211
59.99945017
59.99874972
59.99770171
59.99612976
59.9937701
59.99986686
59.99963319
59.99944594
59.99930896
59.99922485
59.99919428
59.99921544
59.99928349
59.99939025
59.9995244
59.99967213
59.99981862
59.99994991
60.0000551
60.00012819
60.00016912
60.00018356
60.00018155
60.0001751
60.00017556
60.00019147
60.00022714
60.00028244
60.0003534
60.00043337
60.00051427
60.00058768
60.00064556
60.00068046
60.0006856
60.00065349
60.00057529
60.00043841
60.00022365
59.99990058
59.99942062
59.99870674
59.99763895
59.99603806
59.99363646
59.99986618
59.99963088
59.99944158
59.9993022
59.99921543
59.99918211
59.99920066
59.99926653
59.99937188
59.9995057
59.99965448
59.99980348
59.99993867
60.00004879
60.00012731
60.00017348
60.00019234
60.00019345
60.00018857
60.0001891
60.00020385
60.00023755
60.00029049
60.00035905
60.00043682
60.00051583
60.00058768
60.00064423
60.00067787
60.00068173
60.00064805
60.00056775
60.00042793
60.00020893
59.99987962
59.99939046
59.99866289
59.99757496
59.99594465
59.99350047
59.99986552
59.99962862
59.99943732
59.99929561
59.99920623
59.99917021
59.99918617
59.99924985
59.99935373
59.99948714
59.99963681
59.99978815
59.99992702
60.0000419
60.00012571
60.00017708
60.00020041
60.00020474
60.00020158
60.00020236
60.0002161
60.00024795
60.00029859
60.00036479
60.00044037
60.00051748
60.00058771
60.0006429
60.00067525
60.00067778
60.00064249
60.00056005
60.00041723
60.00019389
59.99985823
59.99935967
59.99861815
59.99750973
59.99584951
59.99336209
59.99986487
59.99962641
59.99943317
59.99928916
59.99919724
59.99915856
59.99917196
59.99923344
59.99933582
59.99946872
59.99961914
59.99977264
59.99991502
60.00003447
60.00012345
60.00017996
60.00020778
60.00021543
60.00021414
60.00021531
60.00022821
60.00025831
60.00030675
60.00037062
60.00044401
60.00051919
60.0005878
60.00064159
60.0006726
60.00067377
60.00063682
60.00055219
60.0004063
60.00017853
59.99983638
59.99932825
59.99857252
59.99744324
59.99575261
59.99322131
59.99986424
59.99962425
59.99942911
59.99928287
59.99918845
59.99914716
59.99915802
59.99921731
59.99931814
59.99945045
59.9996015
59.99975698
59.99990269
60.00002654
60.00012056
60.00018215
60.00021447
60.00022552
60.00022623
60.00022796
60.00024016
60.00026864
60.00031494
60.00037653
60.00044773
60.00052098
60.00058793
60.00064028
60.00066992
60.00066969
60.00063105
60.00054417
60.00039514
60.00016285
59.99981408
59.99929618
59.99852596
59.99737546
59.99565392
59.99307809
59.99986362
59.99962214
59.99942515
59.99927671
59.99917986
59.99913599
59.99914435
59.99920145
59.9993007
59.99943233
59.99958388
59.9997412
59.99989005
60.00001815
60.00011708
60.00018368
60.00022051
60.00023503
60.00023787
60.0002403
60.00025193
60.00027892
60.00032317
60.0003825
60.00045153
60.00052284
60.0005881
60.00063898
60.00066721
60.00066554
60.00062515
60.00053598
60.00038374
60.00014683
59.9997913
59.99926345
59.99847848
59.99730637
59.99555343
59.99293238
59.99986302
59.99962008
59.99942127
59.9992707
59.99917145
59.99912506
59.99913094
59.99918586
59.99928349
59.99941438
59.99956632
59.99972531
59.99987715
60.00000933
60.00011303
60.00018457
60.0002259
60.00024396
60.00024904
60.00025232
60.00026352
60.00028913
60.0003314
60.00038854
60.00045541
60.00052475
60.00058831
60.00063768
60.00066448
60.00066132
60.00061914
60.00052761
60.0003721
60.00013047
59.99976805
59.99923005
59.99843004
59.99723595
59.99545109
59.99278416
59.99986243
59.99961806
59.99941748
59.99926482
59.99916322
59.99911435
59.99911778
59.99917052
59.99926651
59.99939659
59.99954881
59.99970935
59.99986401
60.00000011
60.00010846
60.00018485
60.00023067
60.00025233
60.00025975
60.00026401
60.00027493
60.00029926
60.00033965
60.00039463
60.00045936
60.00052673
60.00058855
60.00063638
60.00066172
60.00065702
60.00061301
60.00051908
60.00036021
60.00011377
59.99974432
59.99919596
59.99838064
59.99716418
59.99534689
59.9926334
59.99986185
59.99961609
59.99941378
59.99925906
59.99915516
59.99910385
59.99910487
59.99915543
59.99924976
59.99937897
59.99953138
59.99969332
59.99985064
59.99999051
60.00010339
60.00018457
60.00023484
60.00026014
60.00027001
60.00027536
60.00028613
60.0003093
60.00034789
60.00040077
60.00046337
60.00052877
60.00058883
60.00063508
60.00065893
60.00065265
60.00060676
60.00051036
60.00034807
60.00009671
59.99972008
59.99916118
59.99833025
59.99709104
59.9952408
59.99248006
59.99986128
59.99961417
59.99941015
59.99925343
59.99914728
59.99909356
59.9990922
59.9991406
59.99923324
59.99936153
59.99951402
59.99967724
59.99983708
59.99998056
60.00009784
60.00018371
60.00023843
60.00026741
60.00027981
60.00028638
60.00029712
60.00031925
60.00035612
60.00040694
60.00046743
60.00053085
60.00058914
60.00063378
60.0006561
60.0006482
60.00060039
60.00050146
60.00033567
60.00007929
59.99969535
59.99912568
59.99827887
59.99701651
59.99513279
59.9923241
59.99986073
59.99961228
59.99940661
59.99924792
59.99913955
59.99908348
59.99907975
59.999126
59.99921695
59.99934426
59.99949675
59.99966113
59.99982334
59.9999703
60.00009184
60.00018232
60.00024146
60.00027414
60.00028915
60.00029706
60.00030789
60.00032909
60.00036432
60.00041314
60.00047155
60.00053299
60.00058947
60.00063248
60.00065324
60.00064367
60.00059389
60.00049238
60.00032301
60.0000615
59.99967009
59.99908946
59.99822646
59.99694055
59.99502283
59.9921655
59.99986018
59.99961043
59.99940313
59.99924253
59.99913199
59.99907359
59.99906754
59.99911164
59.99920088
59.99932717
59.99947958
59.999645
59.99980945
59.99995973
60.00008542
60.00018042
60.00024394
60.00028035
60.00029805
60.0003074
60.00031844
60.00033882
60.00037249
60.00041937
60.00047571
60.00053517
60.00058984
60.00063118
60.00065035
60.00063907
60.00058726
60.00048311
60.00031008
60.00004334
59.99964431
59.9990525
59.99817302
59.99686316
59.9949109
59.99200419
59.99985965
59.99960862
59.99939973
59.99923724
59.99912457
59.99906389
59.99905554
59.99909752
59.99918503
59.99931025
59.9994625
59.99962886
59.99979541
59.99994889
60.00007859
60.00017803
60.00024589
60.00028605
60.0003065
60.00031739
60.00032876
60.00034842
60.00038063
60.0004256
60.00047992
60.0005374
60.00059023
60.00062988
60.00064741
60.00063438
60.0005805
60.00047365
60.00029688
60.0000248
59.999618
59.99901479
59.99811853
59.99678431
59.99479697
59.99184016
59.99985913
59.99960685
59.9993964
59.99923206
59.99911731
59.99905438
59.99904376
59.99908362
59.9991694
59.99929352
59.99944554
59.99961273
59.99978126
59.9999378
60.0000714
60.00017517
60.00024733
60.00029124
60.00031451
60.00032704
60.00033884
60.00035788
60.00038871
60.00043185
60.00048416
60.00053966
60.00059064
60.00062857
60.00064444
60.00062961
60.00057361
60.00046399
60.0002834
60.00000587
59.99959114
59.99897632
59.99806297
59.99670397
59.994681
59.99167335
59.99985862
59.99960511
59.99939314
59.99922699
59.99911018
59.99904504
59.99903218
59.99906994
59.99915398
59.99927696
59.99942868
59.99959661
59.999767
59.99992646
60.00006384
60.00017187
60.00024828
60.00029596
60.00032209
60.00033634
60.00034868
60.00036721
60.00039674
60.0004381
60.00048842
60.00054195
60.00059107
60.00062725
60.00064142
60.00062476
60.00056658
60.00045413
60.00026964
59.99998654
59.99956372
59.99893707
59.99800632
59.99662212
59.99456298
59.99150374
59.99985812
59.99960341
59.99938994
59.99922201
59.99910319
59.99903588
59.9990208
59.99905648
59.99913877
59.99926059
59.99941195
59.99958052
59.99975265
59.99991492
60.00005596
60.00016814
60.00024875
60.00030019
60.00032924
60.0003453
60.00035827
60.00037639
60.0004047
60.00044434
60.00049271
60.00054427
60.00059151
60.00062592
60.00063836
60.00061982
60.00055941
60.00044407
60.00025559
59.9999668
59.99953574
59.99889701
59.99794856
59.99653874
59.99444286
59.99133127
59.99985763
59.99960174
59.99938681
59.99921714
59.99909634
59.99902689
59.99900962
59.99904323