/*--------------------------------*- C++ -*----------------------------------*\
| =========                 |                                                 |
| \\      /  F ield         | OpenFOAM: The Open Source CFD Toolbox           |
|  \\    /   O peration     | Version:  v2006                                 |
|   \\  /    A nd           | Website:  www.openfoam.com                      |
|    \\/     M anipulation  |                                                 |
\*---------------------------------------------------------------------------*/
FoamFile
{
    version     2.0;
    format      ascii;
    class       volScalarField;
    location    "0.09";
    object      theta3_0;
}
// * * * * * * * * * * * * * * * * * * * * * * * * * * * * * * * * * * * * * //

dimensions      [0 0 0 0 0 0 0];


internalField   nonuniform List<scalar> 
168000
(
3.591270942
3.605040395
3.615426679
3.624730056
3.633702302
3.642660169
3.651682919
3.660865779
3.670372431
3.68019588
3.690346422
3.700892222
3.71184449
3.723191265
3.734910546
3.747036006
3.759542585
3.772304537
3.785485784
3.798751104
3.812347837
3.825946742
3.839686979
3.853276835
3.866855597
3.879988126
3.893102746
3.905270647
3.917254249
3.928386241
3.93870478
3.948455211
3.957118833
3.964793236
3.971692226
3.97775107
3.982847517
3.987105245
3.990790367
3.99412792
3.572520004
3.591324729
3.605986264
3.618411937
3.629585541
3.64004805
3.65010427
3.659981528
3.669891276
3.679948871
3.690237209
3.700843484
3.71181523
3.723165306
3.734888405
3.7470076
3.759498881
3.772278989
3.785426947
3.798720963
3.8122923
3.82590939
3.839632719
3.853240567
3.866795866
3.879965441
3.89302651
3.905250813
3.917202694
3.928343927
3.938682083
3.9484118
3.957084782
3.964773385
3.971672925
3.97772944
3.982833143
3.9871034
3.990800446
3.994161163
3.56045511
3.580451158
3.597403104
3.612081437
3.625136167
3.637051089
3.648183255
3.658822963
3.669227591
3.679591523
3.690062074
3.70076191
3.711773392
3.723136561
3.734865314
3.746979743
3.759460184
3.772248759
3.785375148
3.798686083
3.812240884
3.825869283
3.839581324
3.853201317
3.866740439
3.879936681
3.892957439
3.905225676
3.917153441
3.92830227
3.938657277
3.948369864
3.957051048
3.964752942
3.971653507
3.977708241
3.982819065
3.987101721
3.990811148
3.994195767
3.551875152
3.571872785
3.589922289
3.606086706
3.620621396
3.633827178
3.646001198
3.657429822
3.668388368
3.679117268
3.689814259
3.700640699
3.711713588
3.72310183
3.734840201
3.746952245
3.759424905
3.772216398
3.785328114
3.798648522
3.812192338
3.825827477
3.839531912
3.853160059
3.866688079
3.879903431
3.892893889
3.905196448
3.91710598
3.928261188
3.938630697
3.948329173
3.95701763
3.964731972
3.971633978
3.977687444
3.982805286
3.987100234
3.99082249
3.994231787
3.545274565
3.564960273
3.583478737
3.60057382
3.616214836
3.630507881
3.643639853
3.655846352
3.667389129
3.678526343
3.689489452
3.700474324
3.711631016
3.723057837
3.734811682
3.746924574
3.759391914
3.772183218
3.785284415
3.798609547
3.812145699
3.825784708
3.839483894
3.85311747
3.866637898
3.879866876
3.892834598
3.905164066
3.91705992
3.928220609
3.938602628
3.948289536
3.956984526
3.964710534
3.971614344
3.977667025
3.982791808
3.987098962
3.990834491
3.994269275
3.539946659
3.559254566
3.577919951
3.595573465
3.612014418
3.627191072
3.641171886
3.654117196
3.666250514
3.677824113
3.689086101
3.70025872
3.711521525
3.723001428
3.734778161
3.746895968
3.759360339
3.772149931
3.785243147
3.798569974
3.812100473
3.825741399
3.839436877
3.853074015
3.866589265
3.8798279
3.892778599
3.905129254
3.917014958
3.928180461
3.93857331
3.948250795
3.956951725
3.964688681
3.971594614
3.977646963
3.982778632
3.987097926
3.990847171
3.994308287
3.53551363
3.554445473
3.573091382
3.591060818
3.608066104
3.623943422
3.638656618
3.65228393
3.664995478
3.677019534
3.688605247
3.699991358
3.711381699
3.722929699
3.734737923
3.746865502
3.759329429
3.772116872
3.785203722
3.7985303
3.812056331
3.825697876
3.839390604
3.853030017
3.86654173
3.879787163
3.892725152
3.905092574
3.916970862
3.928140684
3.938542945
3.948212816
3.956919216
3.964666462
3.971574797
3.977627238
3.982765761
3.987097149
3.990860552
3.994348878
3.531745358
3.550321703
3.568861331
3.586990116
3.604383292
3.620806663
3.636139698
3.650383186
3.663647194
3.676123803
3.688050088
3.699671196
3.711208942
3.722840058
3.734689236
3.746832143
3.759298483
3.772084123
3.785165739
3.798490842
3.812013072
3.825654347
3.839344901
3.8529857
3.866494981
3.879745155
3.89267369
3.905054461
3.916927453
3.928101219
3.938511702
3.948175491
3.956886984
3.964643917
3.9715549
3.977607833
3.982753196
3.987096653
3.990874659
3.994391104
3.528488786
3.546734942
3.565123439
3.583310034
3.600962148
3.617804479
3.633654479
3.648445593
3.662227561
3.675149227
3.687425466
3.699298533
3.711001472
3.722730304
3.734630417
3.7467948
3.759266812
3.772051596
3.785128899
3.798451783
3.811970575
3.825610953
3.839299674
3.852941218
3.866448797
3.87970224
3.89262378
3.905015252
3.916884591
3.928062019
3.938479726
3.948138728
3.956855015
3.964621087
3.971534933
3.977588733
3.982740939
3.987096458
3.990889515
3.994435024
3.525636432
3.543577834
3.561793275
3.579971638
3.597788123
3.614947063
3.631224079
3.646495928
3.660756446
3.674108362
3.686737352
3.698874797
3.710758294
3.722598656
3.734559902
3.746752366
3.759233718
3.772019084
3.785092956
3.798413219
3.811928766
3.825567791
3.839254868
3.85289668
3.866403029
3.879658689
3.892575087
3.904975208
3.91684217
3.928023041
3.938447136
3.94810245
3.956823292
3.964598005
3.971514905
3.977569925
3.982728991
3.987096585
3.990905147
3.994480697
3.523110008
3.540770568
3.558803906
3.576931083
3.594843058
3.612238125
3.628863951
3.644553591
3.659251151
3.673013373
3.685992384
3.698402322
3.710479146
3.722443764
3.734476289
3.746703752
3.759198498
3.771986301
3.785057685
3.798375187
3.811887586
3.825524926
3.839210413
3.85285216
3.866357574
3.879614702
3.892527357
3.904934532
3.916800106
3.927984249
3.938414034
3.948066593
3.956791801
3.964574702
3.971494825
3.977551397
3.982717356
3.987097055
3.990921582
3.994528183
3.520850894
3.53825245
3.556101987
3.574150184
3.592107316
3.609674446
3.626582675
3.642633241
3.657726384
3.671875587
3.685197479
3.69788412
3.710164404
3.722264718
3.734378345
3.746647921
3.759160443
3.7719529
3.785022864
3.798337676
3.811847
3.825482399
3.839166297
3.852807709
3.866312365
3.879570428
3.892480395
3.904893381
3.916758334
3.927945613
3.938380507
3.948031102
3.956760525
3.964551207
3.971474701
3.977533138
3.982706036
3.987097887
3.990938849
3.994577547
3.518814202
3.53597643
3.553644661
3.571596176
3.589561679
3.607250516
3.624386144
3.640745902
3.656194389
3.67070539
3.684359553
3.697323672
3.709814986
3.722061002
3.734265061
3.746583908
3.759118856
3.771918495
3.784988265
3.798300642
3.811806971
3.825440241
3.839122508
3.852763358
3.866267356
3.879525979
3.892434049
3.904851879
3.916716804
3.927907106
3.938346626
3.947995933
3.95672945
3.964527543
3.971454542
3.977515141
3.982695033
3.987099101
3.990956978
3.994628852
3.516964898
3.533905423
3.551397194
3.569241106
3.587188083
3.604958953
3.622275566
3.638898691
3.654665058
3.669511924
3.68348528
3.696724737
3.709432249
3.721832465
3.734135641
3.74651084
3.759073053
3.771882675
3.784953653
3.798264016
3.811767464
3.825398466
3.83907904
3.852719178
3.866222522
3.879481435
3.892388206
3.904810121
3.916675475
3.927868708
3.938312451
3.947961046
3.956698562
3.964503733
3.971434357
3.977497396
3.982684352
3.987100718
3.990975999
3.994682165
3.515275191
3.532009773
3.549331177
3.567061168
3.584969985
3.602791643
3.62025071
3.637097705
3.65314646
3.668303211
3.682580928
3.696091205
3.709017884
3.721579285
3.733989504
3.746427953
3.759022384
3.771845013
3.784918777
3.798227703
3.811728437
3.825357083
3.839035888
3.852675143
3.866177848
3.87943686
3.892342775
3.904768182
3.916634316
3.9278304
3.938278035
3.947926409
3.956667849
3.964479798
3.971414154
3.977479899
3.982673997
3.987102756
3.990995945
3.994737556
3.513722722
3.530265453
3.547423173
3.565036064
3.582892448
3.600740266
3.618309749
3.635345819
3.651644878
3.667086133
3.681652346
3.695426974
3.708573827
3.72130192
3.733826281
3.746334592
3.758966235
3.77180508
3.78488338
3.798191593
3.811689843
3.825316087
3.838993051
3.852631285
3.866133325
3.879392297
3.89229769
3.904726118
3.916593302
3.92779217
3.93824342
3.947891994
3.956637297
3.964455754
3.971393941
3.977462642
3.982663971
3.987105228
3.991016846
3.994795096
3.512289273
3.528652779
3.545653686
3.563148439
3.580942103
3.598796652
3.616449927
3.633644804
3.650164407
3.66586645
3.680704799
3.694735849
3.708102177
3.721001066
3.733645806
3.746230204
3.758904042
3.771762448
3.784847194
3.798155557
3.811651626
3.825275472
3.838950525
3.852587618
3.86608895
3.879347782
3.892252898
3.904683976
3.916552416
3.927754003
3.938208642
3.947857778
3.956606896
3.964431619
3.971373725
3.977445622
3.982654278
3.987108099
3.991038736
3.994854857
3.510959834
3.527155452
3.544006366
3.561383409
3.579107037
3.596952993
3.614667954
3.631995526
3.648709672
3.664649174
3.679743051
3.694021484
3.707605127
3.720677609
3.733448078
3.746114363
3.758835291
3.771716703
3.784809948
3.798119458
3.811613725
3.825235221
3.838908309
3.852544152
3.866044723
3.879303339
3.892208358
3.90464179
3.916511643
3.92771589
3.938173733
3.947823741
3.956576635
3.964407407
3.971353514
3.977428833
3.982644919
3.98711139
3.99106165
3.994916918
3.509721917
3.525759856
3.542467402
3.559728155
3.577376662
3.595201942
3.612960219
3.630397887
3.647282792
3.663438376
3.678771319
3.693287298
3.7070849
3.720332582
3.733233256
3.745986755
3.758759529
3.771667447
3.784771366
3.798083143
3.811576069
3.825195313
3.838866396
3.852500894
3.866000639
3.879258988
3.892164041
3.90459959
3.916470969
3.927677824
3.938138719
3.947789865
3.956546505
3.96438313
3.971333315
3.977412273
3.982635894
3.987115125
3.991085624
3.994981356
3.508565037
3.524454516
3.541025048
3.558171592
3.575741575
3.593536665
3.611322979
3.6288512
3.64588554
3.66223694
3.67779327
3.692536538
3.706543717
3.719967127
3.733001634
3.745847173
3.758676364
3.771614303
3.784731178
3.798046454
3.811538582
3.825155721
3.838824781
3.85245785
3.86595673
3.879214745
3.892119922
3.904557395
3.916430386
3.927639799
3.93810362
3.947756135
3.956516496
3.964358801
3.971313135
3.977395937
3.982627207
3.987119328
3.991110698
3.995048255
3.507480319
3.52322969
3.539669249
3.556704094
3.574193416
3.591950847
3.609752482
3.627354379
3.644519172
3.661048168
3.676812206
3.691772158
3.705983745
3.719582461
3.732753621
3.745695508
3.758585469
3.771556922
3.784689113
3.798009228
3.811501178
3.825116412
3.838783455
3.852415025
3.865912971
3.879170621
3.892075983
3.904515225
3.916389886
3.927601811
3.938068456
3.947722539
3.956486601
3.964334431
3.971292979
3.977379824
3.982618862
3.98712402
3.991136908
3.995117706
3.506460196
3.522077045
3.538391343
3.555317266
3.572724752
3.590438688
3.608245055
3.625906042
3.643184352
3.659873906
3.67583093
3.690996872
3.705407077
3.719179849
3.732489723
3.745531742
3.758486575
3.771494981
3.78464491
3.797971295
3.811463769
3.825077348
3.838742404
3.85237242
3.865869376
3.879126623
3.89203221
3.90447309
3.916349462
3.927563856
3.938033242
3.947689065
3.956456812
3.964310028
3.971272855
3.977363931
3.982610861
3.987129226
3.991164298
3.995189796
3.505498168
3.520989411
3.53718383
3.554003758
3.571328955
3.588994868
3.606797146
3.624504614
3.64188135
3.658715827
3.674851893
3.690213136
3.704815704
3.718760574
3.732210526
3.745355951
3.758379468
3.771428192
3.784598317
3.797932485
3.811426257
3.825038487
3.838701615
3.852330035
3.865825949
3.879082759
3.891988594
3.904431003
3.91630911
3.927525932
3.937997991
3.947655704
3.956427124
3.964285601
3.971252769
3.977348258
3.98260321
3.987134969
3.991192907
3.995264618
3.504588623
3.519960578
3.536040179
3.552757106
3.570000113
3.587614524
3.605405363
3.623148403
3.64061012
3.657575157
3.673876696
3.689423117
3.70421151
3.71832592
3.731916674
3.745168278
3.75826399
3.771356296
3.784549093
3.797892626
3.811388544
3.824999779
3.83866107
3.852287869
3.865782693
3.879039034
3.891945125
3.904388972
3.916268825
3.927488037
3.937962713
3.947622447
3.956397529
3.964261159
3.971232726
3.977332804
3.982595915
3.987141272
3.991222782
3.995342265
3.503726682
3.518985142
3.534954676
3.551571608
3.568732934
3.586293209
3.60406649
3.621835659
3.639370393
3.656452918
3.672907725
3.688628863
3.703596279
3.717877158
3.731608858
3.744968929
3.758140044
3.771279068
3.784497012
3.797851549
3.811350527
3.824961176
3.838620751
3.852245917
3.865739611
3.878995452
3.891901798
3.904347002
3.916228606
3.92745017
3.93792742
3.947589286
3.956368022
3.964236709
3.971212732
3.977317569
3.98258898
3.987148159
3.991253966
3.995422833
3.502908085
3.51805837
3.533922297
3.550442211
3.567522673
3.585026861
3.602777492
3.620564613
3.638161712
3.655349782
3.671946147
3.687832139
3.70297166
3.717415527
3.7312878
3.744758164
3.758007582
3.771196316
3.784441861
3.797809088
3.8113121
3.824922621
3.838580633
3.852204175
3.865696704
3.878952016
3.891858609
3.9043051
3.916188449
3.927412331
3.937892117
3.947556215
3.956338599
3.964212256
3.971192792
3.977302554
3.982582413
3.987155655
3.991286507
3.995506425
3.50212909
3.517176103
3.532938608
3.549364423
3.566365066
3.583811768
3.601535521
3.619333504
3.636983484
3.654266202
3.670993181
3.68703453
3.702339186
3.716942228
3.730954239
3.74453629
3.757866603
3.771107882
3.784383446
3.79776508
3.811273155
3.824884056
3.838540693
3.852162636
3.865653972
3.878908728
3.891815552
3.904263269
3.916148353
3.927374518
3.937856812
3.947523229
3.956309255
3.964187808
3.971172912
3.977287759
3.982576222
3.987163785
3.991320453
3.995593144
3.501386398
3.516334667
3.531999677
3.548334236
3.565256273
3.582644536
3.600337906
3.618140603
3.635835012
3.653202443
3.670049806
3.686237306
3.701700254
3.716458413
3.730608923
3.744303652
3.757717147
3.771013638
3.784321588
3.797719368
3.811233584
3.82484542
3.8385009
3.852121291
3.865611416
3.878865586
3.891772626
3.904221512
3.916108316
3.927336732
3.937821511
3.947490321
3.956279986
3.96416337
3.971153096
3.977273186
3.982570413
3.987172575
3.991355855
3.995683097
3.500677085
3.515530801
3.531102005
3.547348066
3.564192825
3.581522059
3.59918215
3.616984228
3.634715531
3.652158619
3.669116847
3.685441775
3.701056163
3.715965167
3.730252601
3.744060625
3.757559291
3.770913488
3.784256126
3.797671803
3.811193281
3.824806651
3.838461227
3.85208013
3.865569034
3.87882259
3.891729828
3.904179832
3.916068337
3.927298973
3.937786218
3.947457489
3.956250789
3.964138946
3.97113335
3.977258837
3.982564996
3.987182049
3.991392765
3.995776397
3.499998552
3.514761603
3.530242468
3.546402692
3.563171584
3.58044149
3.598065923
3.615862752
3.633624231
3.651134725
3.668194969
3.684649052
3.700408106
3.715463565
3.72988602
3.743807606
3.757393147
3.770807367
3.784186917
3.797622241
3.811152137
3.824767683
3.83842164
3.852039141
3.865526823
3.87877976
3.891687157
3.904138231
3.916028415
3.927261241
3.937750937
3.947424727
3.95622166
3.964114543
3.971113679
3.977244715
3.982559978
3.987192236
3.991431236
3.995873161
3.499348476
3.514024478
3.529418264
3.545495216
3.562189704
3.57940022
3.596987049
3.614774611
3.63256027
3.650130653
3.667284686
3.683860015
3.699757159
3.714954583
3.729509912
3.743545015
3.757218857
3.770695232
3.784113835
3.797570547
3.811110047
3.824728448
3.838382104
3.851998309
3.865484781
3.878737072
3.891644611
3.904096711
3.91598855
3.927223537
3.937715671
3.947392031
3.956192598
3.964090163
3.971094086
3.977230823
3.982555371
3.987203162
3.991471324
3.995973506
3.498724779
3.5133171
3.528626876
3.544623019
3.561244596
3.578395853
3.595943502
3.613718309
3.631522793
3.649146215
3.666386392
3.683075463
3.699104322
3.714439152
3.729124993
3.743273283
3.757036593
3.770577062
3.784036773
3.797516598
3.811066909
3.824688879
3.838342584
3.85195762
3.865442903
3.878694533
3.89160219
3.904055272
3.915948741
3.927185862
3.937680424
3.9473594
3.956163598
3.964065812
3.971074579
3.977217163
3.982551184
3.987214854
3.991513087
3.996077559
3.49812559
3.512637374
3.527866032
3.543783732
3.560333902
3.577426185
3.594933389
3.612692416
3.63051094
3.648181156
3.665500378
3.682296084
3.69845051
3.713918137
3.728731956
3.742992849
3.756846545
3.770452865
3.78395564
3.797460274
3.811022621
3.824648908
3.838303042
3.851917056
3.865401183
3.878652141
3.891559891
3.904013916
3.915908989
3.927148216
3.937645198
3.947326829
3.95613466
3.964041494
3.97105516
3.977203741
3.982547427
3.987227342
3.991556584
3.996185446
3.497549223
3.51198341
3.527133678
3.542975202
3.55945547
3.576489188
3.593954948
3.611695571
3.629523859
3.64723517
3.664626845
3.681522438
3.697796204
3.713392315
3.728331466
3.742704158
3.756648923
3.770322667
3.783870362
3.797401468
3.810977087
3.824608467
3.838263438
3.851876599
3.865359615
3.878609895
3.891517714
3.903972644
3.915869291
3.927110599
3.937609994
3.947294317
3.956105782
3.964017211
3.971035835
3.97719056
3.982544112
3.987240656
3.991601877
3.996297302
3.496994153
3.511353498
3.52642795
3.542195471
3.558607331
3.575582991
3.593006533
3.610726479
3.628560705
3.646307915
3.663765927
3.680755072
3.697142584
3.712862472
3.727924157
3.74240765
3.756443952
3.770186517
3.78378088
3.797340082
3.810930211
3.824567488
3.838223731
3.85183623
3.865318191
3.878567792
3.891475656
3.903931455
3.91582965
3.927073012
3.937574815
3.94726186
3.956076961
3.963992969
3.971016609
3.977177625
3.982541252
3.987254824
3.99164903
3.996413265
3.496458995
3.510746083
3.525747153
3.541442751
3.557787679
3.574705868
3.592086609
3.609783913
3.627620654
3.645399019
3.662917695
3.679994408
3.696490094
3.71232931
3.727510661
3.742103764
3.75623187
3.770044484
3.783687151
3.797276023
3.810881905
3.824525903
3.83818388
3.851795927
3.865276901
3.878525829
3.891433718
3.903890351
3.915790064
3.927035457
3.937539662
3.947229457
3.956048196
3.963968769
3.970997486
3.977164941
3.982538857
3.987269879
3.991698108
3.996533475
3.495942492
3.510159753
3.525089742
3.540715409
3.556994858
3.573856222
3.591193743
3.608866708
3.626702899
3.644508087
3.662082163
3.679240799
3.695839309
3.711793489
3.727091559
3.741792932
3.756012922
3.769896651
3.783589146
3.797209213
3.810832084
3.824483646
3.838143844
3.851755668
3.865235738
3.878484003
3.891391897
3.90384933
3.915750534
3.926997932
3.937504534
3.947197106
3.956019487
3.963944616
3.970978471
3.977152515
3.982536942
3.987285852
3.991749181
3.996658082
3.495443494
3.509593215
3.524454305
3.540011948
3.55622734
3.573032576
3.590326596
3.607973759
3.625806656
3.643634711
3.6612593
3.67849454
3.695190747
3.711255623
3.726667413
3.741475579
3.75578736
3.769743112
3.783486852
3.797139583
3.810780667
3.824440652
3.838103579
3.851715431
3.86519469
3.878442309
3.891350192
3.903808394
3.915711059
3.926960441
3.937469435
3.947164805
3.955990831
3.963920513
3.97095957
3.977140352
3.98253552
3.987302776
3.991802319
3.996787238
3.494960954
3.509045292
3.523839547
3.539330993
3.555483721
3.572233559
3.589483916
3.607104022
3.624931167
3.642778472
3.660449039
3.677755868
3.694544865
3.710716287
3.726238747
3.74115212
3.755555444
3.769583975
3.783380265
3.797067072
3.810727581
3.824396858
3.838063042
3.85167519
3.865153746
3.878400743
3.891308601
3.903767542
3.915671639
3.926922982
3.937434363
3.947132552
3.955962229
3.963896462
3.970940787
3.977128461
3.982534602
3.987320683
3.991857594
3.996921101
3.494493909
3.5085149
3.523244283
3.538671279
3.5547627
3.5714579
3.588664532
3.606256507
3.624075697
3.641938944
3.659651277
3.677024972
3.693902045
3.710175739
3.725806033
3.740822955
3.755317431
3.769419358
3.783269395
3.79699163
3.810672754
3.824352201
3.838022191
3.851634922
3.865112894
3.8783593
3.891267122
3.903726773
3.915632274
3.926885558
3.93739932
3.947100346
3.955933678
3.963872467
3.970922126
3.977116847
3.982534175
3.987339608
3.991915083
3.997059833
3.494041477
3.508001045
3.522667419
3.53803164
3.554063078
3.570704415
3.587867347
3.605430275
3.62323954
3.641115701
3.65886589
3.676302004
3.693262672
3.709634805
3.725369773
3.740488477
3.755073583
3.769249388
3.783154263
3.796913214
3.810616124
3.824306622
3.837980981
3.851594601
3.865072121
3.878317974
3.891225752
3.903686088
3.915592964
3.926848168
3.937364307
3.947068185
3.95590518
3.963848529
3.970903593
3.977105516
3.982534219
3.987359583
3.991974865
3.997203606
3.493602845
3.507502813
3.522107949
3.537410999
3.553383741
3.569972005
3.587091334
3.60462444
3.622422012
3.640308319
3.658092728
3.675587077
3.692627059
3.709093754
3.724930416
3.740149058
3.754824161
3.769074198
3.7830349
3.796831789
3.810557629
3.824260062
3.83793937
3.851554199
3.865031414
3.878276758
3.891184489
3.903645485
3.915553708
3.926810812
3.937329323
3.947036069
3.955876732
3.963824653
3.97088519
3.977094469
3.982534751
3.987380647
3.99203702
3.997352592
3.493177266
3.50701936
3.521564943
3.536808361
3.552723656
3.569259644
3.586335527
3.603838162
3.62162246
3.639516374
3.657331628
3.674880273
3.691995481
3.708552983
3.724488381
3.739805072
3.754569427
3.768893927
3.782911345
3.796747331
3.810497215
3.824212467
3.837897317
3.851513691
3.864990758
3.878235647
3.891143331
3.903604963
3.915514507
3.926773491
3.937294369
3.947003995
3.955848335
3.963800841
3.970866922
3.977083711
3.982535793
3.987402839
3.992101633
3.997506973
3.492764045
3.506549906
3.521037541
3.5362228
3.552081865
3.568566374
3.585599024
3.603070645
3.620840252
3.638739449
3.656582411
3.674181642
3.691368178
3.708012854
3.724044068
3.739456862
3.754309636
3.768708723
3.782783646
3.796659821
3.810434834
3.824163784
3.837854778
3.85147305
3.864950138
3.878194633
3.891102274
3.903564521
3.91547536
3.926736206
3.937259446
3.946971964
3.955819988
3.963777094
3.970848793
3.977073247
3.982537364
3.987426198
3.992168791
3.997666937
3.492362545
3.506093727
3.520524945
3.535653461
3.551457473
3.567891302
3.584880972
3.602321134
3.620074784
3.637977135
3.655844884
3.673491211
3.690745358
3.707473696
3.72359786
3.739104768
3.754045043
3.768518736
3.782651857
3.796569246
3.810370441
3.824113962
3.837811712
3.851432247
3.864909539
3.878153708
3.891061315
3.903524156
3.91543627
3.926698956
3.937224552
3.946939973
3.955791691
3.963753415
3.970830805
3.977063082
3.982539485
3.987450766
3.992238585
3.997832676
3.49197217
3.505650155
3.520026416
3.535099546
3.550849648
3.567233592
3.584180574
3.601588916
3.619325478
3.637229029
3.65511885
3.672808984
3.6901272
3.706935802
3.723150048
3.738749111
3.753775894
3.768324119
3.782516038
3.796475604
3.810303997
3.824062953
3.83776808
3.851391256
3.864868945
3.878112865
3.89102045
3.903483867
3.915397235
3.926661742
3.937189689
3.946908022
3.955763443
3.963729808
3.970812965
3.977053222
3.982542177
3.987476585
3.992311108
3.99800439
3.49159237
3.505218568
3.519541267
3.534560312
3.550257614
3.56659246
3.583497077
3.600873314
3.618591775
3.636494737
3.654404102
3.672134946
3.689513855
3.706399438
3.722700937
3.738390197
3.753502434
3.768125026
3.782376258
3.796378895
3.810235468
3.824010714
3.837723842
3.851350049
3.86482834
3.878072094
3.890979668
3.903443652
3.915358254
3.926624563
3.937154856
3.946876111
3.955735245
3.963706272
3.970795274
3.977043676
3.982545461
3.987503701
3.992386456
3.998182286
3.491222631
3.504798385
3.519068855
3.534035068
3.549680645
3.565967172
3.582829773
3.600173684
3.617873145
3.635773873
3.65370043
3.671469068
3.688905454
3.705864859
3.722250924
3.73802833
3.753224897
3.767921614
3.782232587
3.796279128
3.810164824
3.823957201
3.837678959
3.851308598
3.864787706
3.878031387
3.890938984
3.903403511
3.915319328
3.92658742
3.937120054
3.946844238
3.955707097
3.963682812
3.970777739
3.97703445
3.98254936
3.987532158
3.992464729
3.998366577
3.490862477
3.504389069
3.518608584
3.533523168
3.549118061
3.565357038
3.582177993
3.599489419
3.617169075
3.635066064
3.65300762
3.670811304
3.688302106
3.705332287
3.721800238
3.737663793
3.752943515
3.767714037
3.782085105
3.796176316
3.810092041
3.823902375
3.837633394
3.851266875
3.864747027
3.877990735
3.890898376
3.90336344
3.915280457
3.926550313
3.937085282
3.946812404
3.955678998
3.96365943
3.970760364
3.977025554
3.982553897
3.987562004
3.992546031
3.998557484
3.490511461
3.503990114
3.518159896
3.533024007
3.548569226
3.564761412
3.581541108
3.59881994
3.616479078
3.634370943
3.652325457
3.670161599
3.6877039
3.704801922
3.721349143
3.737296849
3.752658511
3.767502451
3.781933891
3.796070477
3.810017097
3.823846201
3.837587112
3.851224854
3.864706285
3.877950128
3.890857843
3.903323439
3.915241638
3.926513242
3.93705054
3.946780606
3.955650949
3.963636127
3.970743153
3.977016995
3.982559095
3.987593288
3.992630468
3.998755233
3.490169168
3.503601052
3.517722269
3.532537019
3.548033542
3.564179684
3.580918523
3.598164697
3.615802684
3.633688156
3.651653725
3.669519884
3.687110908
3.704273945
3.720897882
3.736927751
3.752370117
3.76728701
3.78177903
3.795961636
3.809939977
3.823788643
3.837540077
3.851182507
3.864665463
3.877909556
3.890817382
3.903283504
3.915202872
3.926476207
3.937015828
3.946748846
3.95562295
3.963612906
3.970726111
3.977008785
3.982564978
3.987626063
3.992718151
3.99896006
3.489835207
3.503221441
3.517295214
3.532061674
3.547510449
3.563611282
3.580309674
3.597523168
3.615139445
3.633017359
3.650992208
3.668886084
3.686523186
3.703748518
3.720446682
3.736556746
3.752078545
3.767067867
3.781620606
3.795849818
3.809860668
3.823729672
3.837492256
3.851139807
3.864624543
3.877869008
3.890776987
3.903243638
3.915164154
3.926439209
3.936981146
3.946717122
3.955595002
3.96358977
3.970709243
3.977000932
3.982571572
3.987660379
3.992809194
3.999172208
3.489509214
3.502850868
3.516878274
3.531597475
3.546999421
3.563055664
3.579714032
3.596894859
3.61448893
3.632358217
3.650340691
3.668260115
3.685940779
3.703225787
3.719995755
3.736184082
3.751784001
3.766845175
3.781458709
3.795735057
3.809779163
3.823669259
3.837443618
3.851096728
3.864583506
3.877828475
3.890736652
3.903203836
3.915125484
3.926402247
3.936946494
3.946685434
3.955567105
3.963566722
3.970692555
3.976993447
3.982578902
3.987696292
3.992903716
3.999391925
3.489190847
3.502488948
3.516471018
3.531143953
3.54649996
3.56251232
3.579131091
3.596279296
3.613850729
3.631710406
3.649698961
3.667641887
3.685363716
3.702705878
3.719545281
3.735809856
3.751486669
3.766619086
3.781293429
3.795617387
3.809695455
3.823607378
3.837394132
3.851053244
3.864542335
3.877787944
3.890696372
3.903164098
3.915086859
3.92636532
3.936911872
3.946653781
3.95553926
3.963543764
3.970676053
3.976986342
3.982586994
3.987733859
3.993001839
3.99961947
3.488879784
3.502135316
3.516073042
3.530700668
3.546011599
3.56198077
3.578560376
3.595676031
3.613224445
3.631073613
3.649066808
3.667031306
3.684792017
3.70218891
3.719095451
3.735434424
3.751186748
3.766389748
3.781124859
3.795496846
3.809609545
3.823544008
3.837343769
3.851009329
3.864501011
3.877747406
3.890656141
3.903124419
3.91504828
3.926328428
3.93687728
3.946622165
3.955511467
3.963520899
3.970659742
3.976979628
3.982595877
3.987773139
3.993103689
3.999855111
3.488575724
3.50178963
3.515683967
3.530267206
3.545533898
3.56146056
3.578001434
3.595084637
3.612609702
3.630447534
3.648444024
3.666428272
3.684225689
3.701674984
3.718646433
3.735057921
3.750884421
3.766157307
3.780953091
3.795373475
3.809521434
3.823479126
3.837292502
3.85096496
3.864459516
3.877706848
3.890615953
3.903084797
3.915009746
3.926291571
3.936842716
3.946590584
3.955483727
3.963498131
3.970643629
3.976973319
3.982605578
3.98781419
3.993209406
4.000099124
3.488278381
3.501451568
3.515303433
3.529843176
3.545066441
3.560951257
3.577453837
3.594504706
3.612006136
3.629831875
3.647830403
3.665832682
3.683664733
3.70116419
3.718198379
3.734680529
3.750579864
3.765921906
3.78077822
3.79524732
3.809431128
3.823412717
3.837240304
3.850920111
3.864417833
3.87766626
3.890575802
3.903045228
3.914971254
3.926254747
3.936808182
3.946559038
3.955456041
3.963475461
3.97062772
3.976967425
3.982616127
3.987857077
3.993319132
4.000351775
3.487987488
3.501120828
3.514931103
3.52942821
3.544608833
3.560452455
3.576917177
3.593935851
3.6114134
3.629226351
3.647225745
3.66524443
3.683109141
3.700656609
3.717751433
3.734302422
3.750273248
3.765683684
3.780600339
3.795118425
3.809338634
3.823344764
3.837187151
3.850874758
3.864375944
3.877625629
3.890535682
3.903005709
3.914932804
3.926217957
3.936773677
3.946527528
3.955428411
3.963452895
3.970612022
3.976961962
3.982627554
3.987901864
3.993433009
4.000613346
3.487702793
3.500797123
3.514566658
3.529021959
3.544160704
3.559963768
3.576391069
3.5933777
3.61083116
3.628630688
3.64662985
3.664663408
3.682558898
3.700152308
3.717305724
3.733923762
3.749964735
3.765442772
3.78041954
3.79498684
3.809243963
3.823275255
3.837133021
3.850828881
3.864333829
3.877584945
3.890495585
3.902966237
3.914894394
3.926181199
3.9367392
3.946496053
3.955400837
3.963430435
3.970596544
3.976956944
3.982639888
3.98794862
3.99355118
4.000884139
3.487424055
3.500480182
3.514209797
3.528624093
3.543721702
3.559484829
3.575875143
3.592829902
3.610259098
3.628044619
3.646042526
3.664089507
3.682013983
3.699651347
3.716861374
3.733544704
3.749654485
3.765199313
3.78023592
3.794852613
3.809147129
3.823204178
3.837077892
3.850782455
3.864291473
3.877544194
3.890455506
3.902926807
3.914856024
3.926144473
3.936704752
3.946464613
3.95537332
3.963408085
3.970581292
3.976952384
3.982653163
3.987997413
3.993673793
4.001164464
3.48715105
3.50016975
3.513860235
3.528234302
3.543291492
3.559015292
3.57536905
3.592292118
3.609696907
3.627467887
3.645463581
3.663522616
3.681474369
3.699153776
3.716418493
3.733165396
3.749342656
3.764953435
3.780049571
3.794715798
3.809048148
3.823131526
3.837021743
3.850735459
3.864248858
3.877503367
3.890415436
3.902887416
3.91481769
3.926107777
3.936670331
3.946433209
3.955345863
3.963385849
3.970566275
3.976948296
3.982667411
3.988048317
3.993801003
4.001454641
3.486883565
3.499865585
3.513517703
3.527852289
3.542869758
3.558554825
3.574872458
3.591764027
3.609144292
3.626900244