/*--------------------------------*- C++ -*----------------------------------*\
| =========                 |                                                 |
| \\      /  F ield         | OpenFOAM: The Open Source CFD Toolbox           |
|  \\    /   O peration     | Version:  v2006                                 |
|   \\  /    A nd           | Website:  www.openfoam.com                      |
|    \\/     M anipulation  |                                                 |
\*---------------------------------------------------------------------------*/
FoamFile
{
    version     2.0;
    format      ascii;
    class       volScalarField;
    location    "0.1";
    object      p;
}
// * * * * * * * * * * * * * * * * * * * * * * * * * * * * * * * * * * * * * //

dimensions      [1 -1 -2 0 0 0 0];


internalField   nonuniform List<scalar> 
168000
(
101317.8768
101317.8763
101317.8758
101317.8753
101317.8743
101317.8726
101317.871
101317.869
101317.8664
101317.8635
101317.8605
101317.8566
101317.8525
101317.8482
101317.8431
101317.838
101317.8324
101317.8267
101317.8208
101317.815
101317.8091
101317.8037
101317.7986
101317.7946
101317.7911
101317.7896
101317.7891
101317.7914
101317.7955
101317.8024
101317.8128
101317.8258
101317.8416
101317.8609
101317.8818
101317.9038
101317.9253
101317.9455
101317.9632
101317.9778
101317.8713
101317.8718
101317.8713
101317.87
101317.8686
101317.8678
101317.8662
101317.8631
101317.8611
101317.8584
101317.8544
101317.8507
101317.8468
101317.8416
101317.8368
101317.8317
101317.8254
101317.8198
101317.8136
101317.8076
101317.8018
101317.796
101317.7911
101317.7869
101317.7839
101317.7821
101317.7827
101317.7845
101317.7899
101317.7971
101317.808
101317.8225
101317.8391
101317.8588
101317.881
101317.9037
101317.9258
101317.9463
101317.9645
101317.9793
101317.8658
101317.8665
101317.8662
101317.8643
101317.863
101317.8625
101317.8605
101317.8573
101317.8552
101317.8529
101317.8483
101317.8445
101317.8408
101317.835
101317.8302
101317.8248
101317.8185
101317.8129
101317.8064
101317.8003
101317.7944
101317.7886
101317.7838
101317.7795
101317.777
101317.775
101317.7763
101317.7779
101317.7844
101317.7926
101317.8032
101317.8192
101317.837
101317.857
101317.88
101317.9035
101317.9262
101317.9471
101317.9655
101317.9806
101317.8602
101317.8606
101317.86
101317.8587
101317.8573
101317.8565
101317.8545
101317.8514
101317.8493
101317.8462
101317.8421
101317.8383
101317.8339
101317.8285
101317.8236
101317.8178
101317.8115
101317.8057
101317.7991
101317.7931
101317.787
101317.7813
101317.7765
101317.7723
101317.77
101317.7685
101317.77
101317.7728
101317.7789
101317.7882
101317.8
101317.8159
101317.8349
101317.856
101317.879
101317.9033
101317.9266
101317.9478
101317.9662
101317.9811
101317.8545
101317.854
101317.8534
101317.8527
101317.8516
101317.8497
101317.8478
101317.8455
101317.8427
101317.8393
101317.8358
101317.8316
101317.8269
101317.8219
101317.8165
101317.8106
101317.8046
101317.7984
101317.7919
101317.7858
101317.7797
101317.7743
101317.7694
101317.7657
101317.7631
101317.7626
101317.7636
101317.7678
101317.7738
101317.784
101317.7971
101317.8129
101317.8329
101317.855
101317.8786
101317.9032
101317.927
101317.9483
101317.9667
101317.9815
101317.8484
101317.8478
101317.8472
101317.8466
101317.8453
101317.8434
101317.8415
101317.8392
101317.8362
101317.8328
101317.8293
101317.8248
101317.82
101317.815
101317.8093
101317.8035
101317.7973
101317.791
101317.7845
101317.7783
101317.7722
101317.7668
101317.762
101317.7586
101317.756
101317.756
101317.7573
101317.7621
101317.7691
101317.7793
101317.7936
101317.8106
101317.8306
101317.8538
101317.8784
101317.9036
101317.9275
101317.9491
101317.9677
101317.9826
101317.8419
101317.8421
101317.8415
101317.8403
101317.8388
101317.8376
101317.8356
101317.8325
101317.8298
101317.8266
101317.8224
101317.818
101317.8134
101317.8079
101317.8023
101317.7964
101317.7899
101317.7835
101317.7772
101317.7705
101317.7647
101317.759
101317.7545
101317.7508
101317.7492
101317.7488
101317.7517
101317.7557
101317.7642
101317.7748
101317.7895
101317.8082
101317.8289
101317.8525
101317.8783
101317.9041
101317.9284
101317.9504
101317.9692
101317.9842
101317.8354
101317.8358
101317.8355
101317.8337
101317.8322
101317.8312
101317.8291
101317.8258
101317.8231
101317.8202
101317.8155
101317.8111
101317.8066
101317.8008
101317.7951
101317.7891
101317.7826
101317.7761
101317.7698
101317.763
101317.7574
101317.7517
101317.7475
101317.7438
101317.7427
101317.742
101317.746
101317.7496
101317.7595
101317.7712
101317.7855
101317.8058
101317.8276
101317.8515
101317.878
101317.9045
101317.9293
101317.9515
101317.9705
101317.9857
101317.8289
101317.8291
101317.8284
101317.8271
101317.8256
101317.8243
101317.8222
101317.819
101317.8164
101317.8129
101317.8085
101317.8042
101317.7993
101317.7936
101317.788
101317.7818
101317.7753
101317.7688
101317.7624
101317.7558
101317.7501
101317.7444
101317.7405
101317.7369
101317.7362
101317.7362
101317.7403
101317.7455
101317.7549
101317.7677
101317.7832
101317.8034
101317.8264
101317.8513
101317.8778
101317.9049
101317.9301
101317.9526
101317.9715
101317.9863
101317.8223
101317.8216
101317.821
101317.8203
101317.819
101317.8169
101317.8147
101317.8123
101317.8091
101317.8054
101317.8016
101317.7969
101317.7918
101317.7865
101317.7806
101317.7744
101317.768
101317.7616
101317.755
101317.7489
101317.743
101317.7379
101317.7338
101317.7311
101317.73
101317.7313
101317.7346
101317.7416
101317.7507
101317.7645
101317.7815
101317.8013
101317.8253
101317.8511
101317.8781
101317.9054
101317.931
101317.9533
101317.9721
101317.9869
101317.8154
101317.8147
101317.8141
101317.8134
101317.8121
101317.81
101317.8078
101317.8054
101317.802
101317.7983
101317.7945
101317.7897
101317.7846
101317.7793
101317.7733
101317.7671
101317.7607
101317.7542
101317.7477
101317.7416
101317.7357
101317.731
101317.7269
101317.7247
101317.7236
101317.7257
101317.7293
101317.7369
101317.7471
101317.7609
101317.7791
101317.8001
101317.8241
101317.8509
101317.8786
101317.9064
101317.932
101317.9545
101317.9734
101317.988
101317.8085
101317.8084
101317.8077
101317.8066
101317.8051
101317.8035
101317.8013
101317.7984
101317.7952
101317.7916
101317.7874
101317.7827
101317.7775
101317.7721
101317.766
101317.7598
101317.7536
101317.7467
101317.7407
101317.734
101317.7287
101317.7235
101317.72
101317.7175
101317.7176
101317.7192
101317.7248
101317.7313
101317.7434
101317.7575
101317.776
101317.7989
101317.8234
101317.8506
101317.8794
101317.9075
101317.9334
101317.9562
101317.9752
101317.9899
101317.8015
101317.8016
101317.8011
101317.7996
101317.7981
101317.7967
101317.7944
101317.7913
101317.7882
101317.7847
101317.7803
101317.7756
101317.7705
101317.765
101317.7589
101317.7527
101317.7465
101317.7392
101317.7338
101317.7269
101317.7221
101317.7169
101317.7139
101317.7114
101317.7123
101317.7133
101317.7204
101317.7262
101317.74
101317.7552
101317.7732
101317.7977
101317.8233
101317.8506
101317.8801
101317.9086
101317.9347
101317.9576
101317.9767
101317.9916
101317.7946
101317.7945
101317.7938
101317.7926
101317.7912
101317.7895
101317.7872
101317.7843
101317.7812
101317.7774
101317.7732
101317.7685
101317.7633
101317.7579
101317.7517
101317.7456
101317.7394
101317.7327
101317.7269
101317.7203
101317.7155
101317.7103
101317.7079
101317.7054
101317.7069
101317.7088
101317.7159
101317.7237
101317.7366
101317.7529
101317.7724
101317.7966
101317.8231
101317.8513
101317.8808
101317.9098
101317.9361
101317.959
101317.9779
101317.9922
101317.7876
101317.7869
101317.7862
101317.7855
101317.7842
101317.782
101317.7797
101317.7773
101317.7739
101317.7701
101317.7661
101317.7613
101317.7562
101317.7508
101317.7448
101317.7387
101317.7324
101317.7262
101317.72
101317.7144
101317.7092
101317.7051
101317.7023
101317.7011
101317.7019
101317.7055
101317.7114
101317.7214
101317.7338
101317.7512
101317.772
101317.7957
101317.8232
101317.8521
101317.8817
101317.9109
101317.9375
101317.9601
101317.9787
101317.9928
101317.7806
101317.7799
101317.7792
101317.7785
101317.7772
101317.775
101317.7727
101317.7704
101317.7669
101317.7631
101317.7591
101317.7544
101317.7492
101317.7439
101317.7379
101317.7318
101317.7257
101317.7195
101317.7133
101317.708
101317.7029
101317.6993
101317.6964
101317.696
101317.6967
101317.7012
101317.7076
101317.7182
101317.7317
101317.7491
101317.771
101317.7957
101317.8232
101317.853
101317.8831
101317.9125
101317.9391
101317.9617
101317.9802
101317.9941
101317.7739
101317.7735
101317.7728
101317.7719
101317.7705
101317.7684
101317.7662
101317.7637
101317.7602
101317.7564
101317.7525
101317.7477
101317.7424
101317.7375
101317.7311
101317.7249
101317.7195
101317.7126
101317.7076
101317.7012
101317.697
101317.6928
101317.6909
101317.69
101317.6923
101317.6961
101317.7049
101317.7141
101317.7297
101317.7473
101317.7695
101317.796
101317.8239
101317.8539
101317.885
101317.9144
101317.9409
101317.9638
101317.9824
101317.9961
101317.7672
101317.7668
101317.7662
101317.7652
101317.7638
101317.7618
101317.7596
101317.7571
101317.7536
101317.7497
101317.746
101317.7411
101317.7357
101317.7311
101317.7247
101317.7187
101317.7134
101317.7057
101317.7018
101317.6952
101317.6918
101317.6876
101317.6863
101317.6855
101317.6887
101317.6918
101317.7021
101317.7105
101317.728
101317.7467
101317.7682
101317.7964
101317.825
101317.8551
101317.8866
101317.9162
101317.9427
101317.9655
101317.9841
101317.9979
101317.7605
101317.7601
101317.7594
101317.7585
101317.7571
101317.7551
101317.7529
101317.7504
101317.7469
101317.7432
101317.7394
101317.7346
101317.7295
101317.7246
101317.7182
101317.7126
101317.7072
101317.7006
101317.696
101317.6899
101317.6865
101317.6824
101317.6818
101317.681
101317.685
101317.6891
101317.6994
101317.7099
101317.7264
101317.7461
101317.769
101317.7967
101317.8262
101317.8568
101317.8882
101317.9181
101317.9446
101317.9672
101317.9854
101317.9986
101317.7538
101317.7531
101317.7525
101317.7518
101317.7504
101317.7483
101317.7461
101317.7438
101317.7404
101317.7367
101317.7329
101317.7282
101317.7233
101317.7182
101317.7126
101317.7069
101317.7011
101317.6957
101317.6903
101317.6857
101317.6817
101317.679
101317.6779
101317.6787
101317.6817
101317.6879
101317.6967
101317.7097
101317.7254
101317.7461
101317.7703
101317.7973
101317.8275
101317.8587
101317.8899
101317.9199
101317.9464
101317.9686
101317.9864
101317.9992
101317.7474
101317.7468
101317.7461
101317.7454
101317.7441
101317.742
101317.7398
101317.7376
101317.7342
101317.7305
101317.7267
101317.7222
101317.7173
101317.7123
101317.7068
101317.7012
101317.6958
101317.6904
101317.685
101317.6809
101317.677
101317.675
101317.6739
101317.6755
101317.6785
101317.6856
101317.6948
101317.7085
101317.7252
101317.746
101317.771
101317.7988
101317.829
101317.8607
101317.8921
101317.9221
101317.9486
101317.9705
101317.988
101318.0005
101317.7417
101317.7409
101317.7403
101317.7397
101317.7385
101317.7361
101317.7339
101317.7321
101317.7284
101317.7246
101317.7213
101317.7166
101317.7114
101317.7073
101317.7011
101317.6954
101317.6913
101317.6847
101317.6811
101317.6756
101317.673
101317.6702
101317.6702
101317.6714
101317.6762
101317.6825
101317.6943
101317.7063
101317.7253
101317.7461
101317.7712
101317.8007
101317.8311
101317.863
101317.8949
101317.9247
101317.9509
101317.973
101317.9904
101318.0026
101317.736
101317.7352
101317.7345
101317.7341
101317.7329
101317.7304
101317.7284
101317.7266
101317.7229
101317.7189
101317.716
101317.7113
101317.7058
101317.7024
101317.6961
101317.6908
101317.6868
101317.6792
101317.6772
101317.6713
101317.6697
101317.667
101317.6678
101317.669
101317.6748
101317.6803
101317.6938
101317.7048
101317.7257
101317.7474
101317.7718
101317.8027
101317.8336
101317.8653
101317.8976
101317.9273
101317.9532
101317.975
101317.9922
101318.0045
101317.7304
101317.7296
101317.729
101317.7284
101317.7272
101317.7249
101317.7229
101317.7211
101317.7174
101317.7139
101317.7108
101317.706
101317.7013
101317.6974
101317.6912
101317.6864
101317.6823
101317.6763
101317.6733
101317.668
101317.6665
101317.6638
101317.6654
101317.6667
101317.6733
101317.68
101317.6933
101317.7065
101317.7262
101317.7487
101317.7744
101317.8048
101317.8361
101317.8681
101317.9002
101317.9298
101317.9555
101317.9769
101317.9936
101318.0052
101317.7247
101317.7241
101317.7235
101317.7228
101317.7216
101317.7196
101317.7176
101317.7156
101317.7123
101317.709
101317.7055
101317.7013
101317.6969
101317.6925
101317.6875
101317.6827
101317.6778
101317.6735
101317.6694
101317.6662
101317.6638
101317.663
101317.6639
101317.6669
101317.6724
101317.6812
101317.6928
101317.7086
101317.7273
101317.7508
101317.7775
101317.807
101317.8388
101317.8711
101317.9027
101317.9324
101317.9578
101317.9786
101317.9948
101318.0058
101317.7197
101317.7191
101317.7185
101317.7179
101317.7167
101317.7148
101317.7128
101317.7108
101317.7077
101317.7043
101317.7009
101317.697
101317.6926
101317.6883
101317.6837
101317.6789
101317.6746
101317.6703
101317.6663
101317.6637
101317.6614
101317.6613
101317.6623
101317.6662
101317.6717
101317.6814
101317.6934
101317.7098
101317.7293
101317.7528
101317.7802
101317.8101
101317.8419
101317.8743
101317.9058
101317.9351
101317.9605
101317.9809
101317.9966
101318.0071
101317.7157
101317.7147
101317.714
101317.7138
101317.7128
101317.7103
101317.7083
101317.7072
101317.7035
101317.7
101317.6975
101317.6932
101317.6884
101317.6855
101317.6798
101317.675
101317.6724
101317.6668
101317.6648
101317.6606
101317.6598
101317.6589
101317.6611
101317.6646
101317.672
101317.6807
101317.6954
101317.7101
101317.7317
101317.7551
101317.7825
101317.8138
101317.8456
101317.8779
101317.9095
101317.9384
101317.9632
101317.9837
101317.9992
101318.0093
101317.7118
101317.7106
101317.7098
101317.71
101317.709
101317.7063
101317.7045
101317.7035
101317.6998
101317.6959
101317.6942
101317.6899
101317.6847
101317.6827
101317.677
101317.6727
101317.6702
101317.6633
101317.6634
101317.6587
101317.6592
101317.6583
101317.6614
101317.6648
101317.6732
101317.6811
101317.6975
101317.7109
101317.7345
101317.7585
101317.785
101317.8176
101317.8494
101317.8816
101317.9132
101317.9416
101317.9659
101317.9858
101318.0011
101318.0112
101317.7079
101317.7068
101317.7063
101317.7061
101317.7051
101317.7027
101317.701
101317.6999
101317.6962
101317.6931
101317.6909
101317.6866
101317.6825
101317.6799
101317.6742
101317.6706
101317.668
101317.6631
101317.662
101317.658
101317.6586
101317.6577
101317.6617
101317.6652
101317.6744
101317.6834
101317.6996
101317.7152
101317.7374
101317.762
101317.7896
101317.8213
101317.8533
101317.8854
101317.9168
101317.9448
101317.9686
101317.988
101318.0025
101318.0118
101317.704
101317.7035
101317.7029
101317.7024
101317.7013
101317.6996
101317.6979
101317.6962
101317.6933
101317.6905
101317.6876
101317.6841
101317.6806
101317.6771
101317.6731
101317.6695
101317.6659
101317.663
101317.6605
101317.659
101317.6586
101317.6598
101317.6629
101317.6683
101317.6762
101317.6874
101317.7017
101317.7198
101317.7408
101317.7662
101317.7946
101317.8252
101317.8574
101317.8893
101317.9199
101317.948
101317.9713
101317.9899
101318.0037
101318.0123
101317.7011
101317.7006
101317.7
101317.6995
101317.6985
101317.6969
101317.6951
101317.6936
101317.6909
101317.6881
101317.6853
101317.6822
101317.6787
101317.6753
101317.6718
101317.6683
101317.6653
101317.6626
101317.6601
101317.6594
101317.659
101317.6611
101317.6642
101317.6705
101317.6784
101317.6905
101317.7049
101317.7236
101317.7452
101317.7706
101317.7992
101317.8299
101317.8621
101317.8937
101317.9238
101317.9513
101317.9745
101317.9924
101318.0057
101318.0136
101317.6994
101317.6981
101317.6976
101317.6977
101317.697
101317.6945
101317.6927
101317.6924
101317.689
101317.686
101317.6844
101317.6808
101317.6769
101317.6752
101317.6704
101317.6668
101317.6659
101317.6617
101317.6616
101317.6591
101317.6603
101317.6616
101317.666
101317.6717
101317.6816
101317.6926
101317.7098
101317.7266
101317.7501
101317.7752
101317.8036
101317.8353
101317.8671
101317.8986
101317.9284
101317.955
101317.9774
101317.9954
101318.0083
101318.0157
101317.6978
101317.6963
101317.6955
101317.6962
101317.6955
101317.6926
101317.6913
101317.6912
101317.6878
101317.6842
101317.6836
101317.6801
101317.6755
101317.675
101317.6703
101317.6672
101317.6666
101317.6609
101317.6631
101317.6601
101317.6627
101317.664
101317.6693
101317.675
101317.6857
101317.6959
101317.7146
101317.7301
101317.7554
101317.7807
101317.8082
101317.8408
101317.8722
101317.9034
101317.933
101317.9588
101317.9804
101317.9976
101318.0102
101318.0175
101317.6962
101317.6949
101317.6945
101317.6947
101317.694
101317.6916
101317.6903
101317.69
101317.6866
101317.6842
101317.6829
101317.6794
101317.6762
101317.6749
101317.6702
101317.668
101317.6672
101317.6638
101317.6646
101317.6624
101317.6651
101317.6664
101317.6726
101317.6783
101317.6898
101317.7012
101317.7194
101317.7368
101317.7607
101317.7863
101317.8146
101317.8463
101317.8774
101317.9081
101317.9374
101317.9626
101317.9834
101317.9998
101318.0116
101318.018
101317.6947
101317.6943
101317.6939
101317.6934
101317.6925
101317.6913
101317.6899
101317.6888
101317.6864
101317.6844
101317.6823
101317.6796
101317.6772
101317.6748
101317.6721
101317.67
101317.6679
101317.6668
101317.6661
101317.6666
101317.6682
101317.6716
101317.6769
101317.6845
101317.6946
101317.708
101317.7242
101317.744
101317.7666
101317.7927
101317.8213
101317.8519
101317.8827
101317.9128
101317.9411
101317.9663
101317.9864
101318.0019
101318.0128
101318.0184
101317.6944
101317.694
101317.6936
101317.6931
101317.6925
101317.6912
101317.6899
101317.6888
101317.6868
101317.6848
101317.6826
101317.6806
101317.6782
101317.6759
101317.6738
101317.6717
101317.6703
101317.6694
101317.6688
101317.6701
101317.6718
101317.676
101317.6814
101317.6898
101317.6998
101317.7139
101317.7303
101317.7504
101317.7732
101317.7993
101317.8279
101317.858
101317.8888
101317.9182
101317.9456
101317.9699
101317.9898
101318.0045
101318.0146
101318.0195
101317.6954
101317.694
101317.6936
101317.6941
101317.6937
101317.6914
101317.6901
101317.6905
101317.6876
101317.6852
101317.6846
101317.682
101317.6791
101317.6788
101317.6753
101317.6732
101317.6741
101317.6715
101317.6735
101317.673
101317.6763
101317.6797
101317.6863
101317.6942
101317.7061
101317.7191
101317.7378
101317.7562
101317.7805
101317.8062
101317.8343
101317.8649
101317.8951
101317.9241
101317.9508
101317.974
101317.9929
101318.0075
101318.0171
101318.0214
101317.6966
101317.6949
101317.6942
101317.6953
101317.695
101317.6923
101317.6914
101317.6921
101317.6892
101317.6862
101317.6868
101317.6842
101317.6806
101317.6817
101317.6782
101317.6767
101317.6778
101317.6737
101317.6781
101317.6771
101317.6819
101317.6853
101317.6927
101317.7005
101317.7132
101317.7253
101317.7454
101317.7624
101317.7882
101317.8137
101317.841
101317.8719
101317.9013
101317.9298
101317.9561
101317.9781
101317.996
101318.0097
101318.0189
101318.0231
101317.6977
101317.6963
101317.6961
101317.6966
101317.6962
101317.694
101317.6932
101317.6937
101317.6908
101317.6892
101317.689
101317.6864
101317.6844
101317.6846
101317.6811
101317.6806
101317.6816
101317.6799
101317.6828
101317.6826
101317.6875
101317.6908
101317.6991
101317.707
101317.7202
101317.7334
101317.7529
101317.7715
101317.7959
101317.8212
101317.849
101317.8789
101317.9075
101317.9352
101317.9611
101317.9823
101317.9991
101318.0119
101318.0202
101318.0233
101317.6989
101317.6987
101317.6984
101317.6981
101317.6975
101317.6967
101317.6959
101317.6953
101317.6937
101317.6925
101317.6913
101317.6897
101317.6885
101317.6875
101317.6862
101317.6858
101317.6853
101317.6862
101317.6875
101317.69
101317.6937
101317.6992
101317.7065
101317.7161
101317.728
101317.7429
101317.7604
101317.781
101317.804
101317.8296
101317.8572
101317.8859
101317.9139
101317.9407
101317.9652
101317.9864
101318.0023
101318.0139
101318.0212
101318.0235
101317.7015
101317.7013
101317.701
101317.7007
101317.7003
101317.6995
101317.6987
101317.6982
101317.697
101317.6958
101317.6946
101317.6937
101317.6926
101317.6916
101317.6911
101317.6906
101317.691
101317.692
101317.6934
101317.6967
101317.7005
101317.7068
101317.7141
101317.7244
101317.7363
101317.7517
101317.7692
101317.7899
101317.8127
101317.8383
101317.8653
101317.8932
101317.9212
101317.9469
101317.9701
101317.9901
101318.0058
101318.0165
101318.0229
101318.0244
101317.7054
101317.7041
101317.7038
101317.7045
101317.7044
101317.7025
101317.7017
101317.7027
101317.7006
101317.6991
101317.6995
101317.6982
101317.6965
101317.6975
101317.6957
101317.6952
101317.6979
101317.6973
101317.7011
101317.7028
101317.7081
101317.7136
101317.7222
101317.7319
101317.7453
101317.7597
101317.7792
101317.7983
101317.8221
101317.8471
101317.8735
101317.9013
101317.9284
101317.9537
101317.9758
101317.9943
101318.0089
101318.0194
101318.0253
101318.026
101317.7094
101317.7078
101317.7072
101317.7086
101317.7086
101317.7062
101317.7058
101317.7073
101317.7052
101317.703
101317.7047
101317.7033
101317.701
101317.7035
101317.7017
101317.7018
101317.7048
101317.7028
101317.7089
101317.7101
101317.7168
101317.7223
101317.7315
101317.7412
101317.7552
101317.7688
101317.7892
101317.807
101317.8319
101317.8563
101317.882
101317.9096
101317.9354
101317.9601
101317.9814
101317.9986
101318.0119
101318.0214
101318.0268
101318.0274
101317.7134
101317.7121
101317.712
101317.7127
101317.7127
101317.7109
101317.7106
101317.7118
101317.7097
101317.709
101317.7098
101317.7084
101317.7078
101317.7094
101317.7076
101317.7088
101317.7116
101317.7119
101317.7167
101317.7187
101317.7254
101317.7309
101317.7409
101317.7506
101317.765
101317.7795
101317.7991
101317.818
101317.8416
101317.8654
101317.8912
101317.9178
101317.9424
101317.9658
101317.9869
101318.0029
101318.015
101318.0234
101318.0278
101318.0274
101317.7175
101317.7174
101317.7173
101317.7172
101317.7169
101317.7166
101317.7163
101317.7163
101317.7155
101317.7153
101317.7151
101317.7147
101317.715
101317.7154
101317.7158
101317.7171
101317.7185
101317.7212
101317.7245
101317.729
101317.7347
101317.7421
101317.7512
101317.7623
101317.7754
101317.7912
101317.8091
101317.8293
101317.8516
101317.8753
101317.9004
101317.9259
101317.9496
101317.9717
101317.9911
101318.0071
101318.0181
101318.0253
101318.0287
101318.0272
101317.723
101317.7228
101317.7227
101317.7226
101317.7226
101317.7223
101317.722
101317.7221
101317.7217
101317.7215
101317.7213
101317.7217
101317.722
101317.7224
101317.7237
101317.725
101317.7272
101317.7301
101317.7334
101317.7387
101317.7445
101317.7526
101317.7617
101317.7733
101317.7864
101317.8024
101317.8202
101317.8403
101317.862
101317.8857
101317.9098
101317.934
101317.9577
101317.9782
101317.9961
101318.0107
101318.0215
101318.0277
101318.0301
101318.0278
101317.7295
101317.7284
101317.7282
101317.7291
101317.7293
101317.728
101317.7277
101317.7293
101317.7282
101317.7277
101317.729
101317.729
101317.7288
101317.7311
101317.7313
101317.7325
101317.7368
101317.7384
101317.7439
101317.7479
101317.7549
101317.7624
101317.7725
101317.7837
101317.798
101317.8131
101317.8321
101317.851
101317.873
101317.896
101317.9193
101317.9428
101317.9654
101317.9855
101318.0018
101318.0148
101318.0243
101318.0303
101318.032
101318.029
101317.7362
101317.7347
101317.7344
101317.7359
101317.7361
101317.7344
101317.7346
101317.7365
101317.7354
101317.7343
101317.7369
101317.7369
101317.7361
101317.7399
101317.74
101317.7419
101317.7464
101317.7469
101317.7545
101317.758
101317.7663
101317.7737
101317.7843
101317.7955
101317.8101
101317.8245
101317.844
101317.8618
101317.8843
101317.9063
101317.9291
101317.9518
101317.9727
101317.9922
101318.0075
101318.0189
101318.0271
101318.032
101318.0332
101318.03
101317.7428
101317.7417
101317.7418
101317.7427
101317.7429
101317.7418
101317.7421
101317.7438
101317.7427
101317.743
101317.7448
101317.7448
101317.7456
101317.7486
101317.7487
101317.7517
101317.7561
101317.7586
101317.765
101317.7692
101317.7776
101317.785
101317.7962
101317.8074
101317.8222
101317.8372
101317.8559
101317.8741
101317.8957
101317.9166
101317.9389
101317.9607
101317.9801
101317.9979
101318.013
101318.0231
101318.0299
101318.0337
101318.0339
101318.0296
101317.7496
101317.7497
101317.7497
101317.7498
101317.7498
101317.7501
101317.7504
101317.751
101317.7511
101317.752
101317.7528
101317.7538
101317.7554
101317.7573
101317.7594
101317.7625
101317.7657
101317.7703
101317.7755
101317.7819
101317.7894
101317.7983
101317.8088
101317.821
101317.8347
101317.8505
101317.8678
101317.8867
101317.907
101317.9275
101317.9486
101317.9695
101317.9875
101318.0037
101318.0171
101318.0271
101318.0327
101318.0352
101318.0343
101318.029
101317.7575
101317.7576
101317.7576
101317.7577
101317.758
101317.7583
101317.7586
101317.7592
101317.7599
101317.7607
101317.7616
101317.7633
101317.765
101317.7669
101317.7699
101317.7729
101317.7769
101317.7817
101317.7869
101317.794
101317.8016
101317.8111
101317.8216
101317.8341
101317.8478
101317.8635
101317.8806
101317.8991
101317.9184
101317.9389
101317.9586
101317.9778
101317.9958
101318.0102
101318.0219
101318.0304
101318.0358
101318.0372
101318.0353
101318.0291
101317.7662
101317.7654
101317.7655
101317.7664
101317.7669
101317.7664
101317.7667
101317.7686
101317.7687
101317.7693
101317.7715
101317.7729
101317.7743
101317.7778
101317.78
101317.783
101317.7887
101317.7926
101317.7995
101317.8057
101317.8142
101317.8234
101317.8345
101317.8468
101317.8612
101317.8762
101317.8937
101317.9114
101317.9304
101317.9501
101317.969
101317.9868
101318.0036
101318.0173
101318.0272
101318.0341
101318.0381
101318.0393
101318.0367
101318.0299
101317.7751
101317.774
101317.7738
101317.7753
101317.7759
101317.775
101317.7758
101317.778
101317.7781
101317.7784
101317.7816
101317.783
101317.7841
101317.7887
101317.7909
101317.7946
101317.8005
101317.8036
101317.8122
101317.8181
101317.8275
101317.8367
101317.8482
101317.8604
101317.8748
101317.8894
101317.9069
101317.9237
101317.9426
101317.9609
101317.9795
101317.9959
101318.0108
101318.0239
101318.0326
101318.0378
101318.0404
101318.0404
101318.0374
101318.0304
101317.7839
101317.7831
101317.7833
101317.7843
101317.7848
101317.7845
101317.7854
101317.7874
101317.7875
101317.789
101317.7917
101317.7931
101317.7955
101317.7996
101317.8018
101317.8065
101317.8123
101317.817
101317.8248
101317.8312
101317.8408
101317.85
101317.8618
101317.8741
101317.8884
101317.9033
101317.92
101317.9365
101317.9547
101317.9717
101317.9893
101318.005
101318.018
101318.0293
101318.0378
101318.0415
101318.0427
101318.0416
101318.0376
101318.0294
101317.7928
101317.793
101317.7932
101317.7935
101317.7938
101317.7947
101317.7957
101317.7968
101317.798
101317.7999
101317.8018
101317.8041
101317.8072
101317.8105
101317.8143
101317.8191
101317.8241
101317.8305
101317.8374
101317.8454
101317.8544
101317.8646
101317.876
101317.8887
101317.9023
101317.9173
101317.9331
101317.9495
101317.9667
101317.9828
101317.9988
101318.0139
101318.0253
101318.0347
101318.0414
101318.0452
101318.045
101318.0427
101318.0375
101318.0283
101317.8025
101317.8027
101317.803
101317.8032
101317.8039
101317.8048
101317.8057
101317.8069
101317.8086
101317.8105
101317.8124
101317.8154
101317.8186
101317.8219
101317.8266
101317.8314
101317.837
101317.8436
101317.8506
101317.8592
101317.8683
101317.8789
101317.8903
101317.903
101317.9167
101317.9313
101317.9468
101317.9626
101317.9785
101317.9946
101318.0088
101318.0219
101318.0333
101318.0407
101318.0456
101318.0478
101318.0475
101318.0441
101318.0379
101318.0278
101317.8126
101317.8122
101317.8125
101317.8133
101317.8142
101317.8145
101317.8155
101317.8177
101317.8191
101317.8208
101317.8237
101317.8266
101317.8296
101317.8342
101317.8385
101317.8433
101317.8501
101317.8564
101317.8644
101317.8727
101317.8823
101317.8929
101317.9045
101317.9172
101317.9309
101317.9452
101317.9603
101317.9759
101317.9906
101318.0059
101318.0192
101318.0305
101318.0406
101318.0473
101318.0504
101318.0508
101318.0492
101318.0454
101318.0388
101318.0281
101317.8228
101317.8222
101317.8224
101317.8237
101317.8245
101317.8246
101317.826
101317.8284
101317.8298
101317.8314
101317.8352
101317.8381
101317.841
101317.8464
101317.8507
101317.8562
101317.8632
101317.8691
101317.8782
101317.8864
101317.8966
101317.9072
101317.919
101317.9317
101317.9451
101317.9593
101317.9737
101317.9888
101318.0029
101318.0165
101318.0297
101318.0391
101318.0472
101318.0533
101318.0551
101318.0538
101318.0508
101318.046
101318.0388
101318.028
101317.833
101317.8326
101317.8331
101317.834
101317.8348
101317.8354
101317.8369
101317.8392
101317.8406
101317.8432
101317.8466
101317.8495
101317.8535
101317.8586
101317.863
101317.8693
101317.8763
101317.8832
101317.892
101317.9005
101317.911
101317.9216
101317.9336
101317.9462
101317.9594
101317.9734
101317.9872
101318.0013
101318.0151
101318.0271
101318.0389
101318.0478
101318.0538
101318.058
101318.0595
101318.0568
101318.0524
101318.0465
101318.0384
101318.0264
101317.8432
101317.8436
101317.8441
101317.8445
101317.8452
101317.8467
101317.8482
101317.85
101317.8522
101317.8551
101317.8581
101317.8616
101317.8661
101317.8709
101317.8763
101317.8827
101317.8894
101317.8974
101317.9058
101317.9152
101317.9254
101317.9364
101317.9483
101317.9608
101317.9738
101317.9872
101318.0007
101318.0138
101318.0269
101318.0377
101318.0476
101318.0561
101318.0604
101318.0626
101318.0625
101318.0598
101318.0541
101318.047
101318.0377
101318.0246
101317.8538
101317.8543
101317.8547
101317.8552
101317.8562
101317.8577
101317.8592
101317.8609
101317.8637
101317.8666
101317.8696
101317.8739
101317.8784
101317.8832
101317.8894
101317.8958
101317.9031
101317.9112
101317.9197
101317.9297
101317.9399
101317.9512
101317.963
101317.9754
101317.9884
101318.0013
101318.0143
101318.0267
101318.0382
101318.049
101318.0569
101318.0632
101318.0675
101318.0678
101318.0658
101318.0616
101318.0558
101318.0477
101318.0375
101318.0236
101317.8644
101317.8645
101317.865
101317.8658
101317.8669
101317.8682
101317.8698
101317.8721
101317.8748
101317.8777