/*--------------------------------*- C++ -*----------------------------------*\
| =========                 |                                                 |
| \\      /  F ield         | OpenFOAM: The Open Source CFD Toolbox           |
|  \\    /   O peration     | Version:  v2006                                 |
|   \\  /    A nd           | Website:  www.openfoam.com                      |
|    \\/     M anipulation  |                                                 |
\*---------------------------------------------------------------------------*/
FoamFile
{
    version     2.0;
    format      ascii;
    class       volScalarField;
    location    "0.1";
    object      theta1;
}
// * * * * * * * * * * * * * * * * * * * * * * * * * * * * * * * * * * * * * //

dimensions      [0 0 0 0 0 0 0];


internalField   nonuniform List<scalar> 
168000
(
1.000231606
1.000685292
1.001155395
1.001642509
1.002167639
1.002715877
1.003283953
1.0038819
1.004570668
1.005310314
1.006076724
1.007038376
1.008137567
1.009290709
1.010893394
1.012708164
1.01481402
1.017863143
1.021103457
1.026081808
1.031734525
1.040027222
1.05024381
1.065167111
1.083913514
1.112990984
1.14891624
1.207849538
1.2842259
1.400888443
1.58031471
1.822955699
2.200906014
2.783316416
3.603525672
4.743432702
6.374346453
8.632954487
11.58948702
15.359072
1.000232931
1.000702881
1.001172984
1.001675842
1.002207126
1.002754744
1.00332282
1.003962811
1.004626234
1.005356218
1.006197395
1.007117834
1.008178537
1.009485583
1.010924198
1.012730646
1.015106405
1.017845943
1.021551082
1.025986498
1.032127417
1.039786061
1.050643837
1.06464002
1.085022149
1.111945294
1.152060283
1.20588155
1.286986822
1.403141747
1.57443859
1.834636686
2.214816448
2.772095231
3.593388641
4.800226295
6.457403193
8.675984289
11.62281524
15.41878349
1.000232931
1.000707222
1.001200667
1.001715343
1.002246627
1.002794009
1.003394128
1.004043721
1.004707144
1.005425608
1.006326936
1.007247375
1.008265285
1.009680456
1.011119071
1.012990271
1.015398791
1.017846042
1.021998707
1.026266267
1.032831326
1.04048997
1.051779909
1.065729863
1.086896466
1.112562478
1.155204326
1.205601194
1.292314325
1.412185403
1.572386993
1.849847096
2.239804025
2.777410224
3.627255388
4.859189778
6.540459932
8.786648328
11.72881788
15.50083744
1.000232931
1.00071263
1.001230683
1.001754844
1.002286128
1.002849161
1.003475183
1.004124632
1.004788055
1.005580325
1.006456476
1.007376915
1.008522384
1.00987533
1.011313945
1.013303581
1.015691176
1.018577279
1.022446332
1.026960981
1.033535235
1.041193878
1.05291598
1.066932682
1.088770782
1.116240574
1.15834837
1.214858186
1.297641828
1.42122906
1.597111876
1.865057506
2.264791602
2.841235139
3.674454241
4.918153261
6.623516671
8.897312367
11.89461536
15.73796006
1.000234582
1.000734543
1.001252595
1.001789393
1.002326545
1.002930705
1.003556727
1.004205542
1.004929518
1.005744872
1.00658973
1.007593482
1.008805828
1.010070203
1.011765692
1.013768358
1.015983562
1.019334489
1.022893956
1.028207825
1.034450427
1.043273214
1.054557795
1.070470161
1.091175392
1.122304623
1.161492413
1.225297719
1.306613917
1.435054599
1.627242062
1.885230954
2.297656595
2.916879809
3.782990665
4.980135833
6.706573411
9.056618051
12.11272264
15.99118746
1.000255253
1.000755214
1.001273266
1.001810064
1.002388737
1.002992897
1.003618919
1.004277872
1.005037052
1.005852406
1.006697264
1.007757703
1.00897005
1.010241926
1.012010344
1.014013009
1.016337186
1.01970343
1.023280824
1.028778469
1.035021071
1.044180407
1.055464987
1.071948446
1.092653677
1.124762015
1.164425346
1.229440899
1.313649155
1.442089838
1.639160383
1.905129927
2.317555568
2.949094804
3.832665045
5.052255172
6.781347884
9.15517535
12.24061173
16.15035361
1.000256716
1.000774643
1.001292696
1.001846833
1.002432285
1.003035738
1.00366176
1.0043671
1.005098257
1.005902928
1.006830345
1.007845233
1.009015047
1.010456926
1.012044064
1.014037535
1.01665991
1.019684101
1.023775132
1.028672913
1.035455022
1.043914065
1.055907132
1.071367537
1.093879315
1.123612749
1.167898211
1.227287725
1.316713254
1.444597849
1.632866839
1.917994697
2.332820663
2.937880121
3.823477383
5.112936905
6.869054272
9.202154139
12.27828261
16.21545851
1.000256716
1.000779439
1.001323243
1.001890397
1.002475849
1.003079032
1.003740392
1.004456327
1.005187485
1.005979383
1.006973221
1.007988109
1.009110612
1.010671927
1.012259065
1.014324065
1.016982634
1.019683886
1.024269439
1.028981765
1.036232674
1.044691717
1.057162574
1.072571938
1.095950593
1.124297508
1.171371077
1.226992233
1.322590683
1.454549428
1.630737557
1.934661026
2.360016511
2.944207563
3.860191985
5.175849529
6.95676066
9.317991131
12.38944025
16.30296006
1.000256716
1.000785395
1.001356328
1.001933961
1.002519412
1.003139863
1.003829785
1.004545555
1.005276713
1.006150096
1.007116097
1.008130985
1.009394377
1.010886927
1.012474065
1.014669908
1.017305359
1.020491545
1.024763747
1.029749128
1.037010326
1.045469369
1.058418016
1.073901098
1.098021872
1.128358723
1.174843942
1.237194256
1.328468112
1.464501008
1.657763495
1.951327355
2.387212359
3.012603644
3.910815971
5.238762153
7.044467049
9.433828122
12.56105004
16.54586931
1.000258534
1.000809529
1.001380462
1.001972054
1.002563986
1.003229815
1.003919736
1.004634783
1.005432805
1.006331678
1.007263078
1.008369989
1.009707256
1.011101928
1.012972869
1.015183107
1.017628083
1.021327905
1.025258055
1.031126644
1.038021416
1.047766809
1.060232139
1.077808727
1.100678666
1.135052133
1.178316807
1.248697724
1.338340728
1.479694199
1.690674947
1.973339177
2.422893014
3.093538213
4.025440295
5.304779557
7.132173437
9.599170712
12.78553125
16.80491318
1.000281336
1.000832331
1.001403264
1.001994856
1.002632575
1.003298404
1.003988325
1.004714552
1.0055514
1.006450274
1.007381673
1.008551142
1.009888408
1.011291364
1.013242846
1.015453085
1.018018485
1.021735232
1.025685201
1.031756962
1.038651734
1.048769261
1.061234592
1.079442565
1.102312504
1.137767734
1.181557002
1.253273013
1.346096738
1.487450209
1.703771694
1.995090452
2.444644289
3.128456363
4.078728923
5.381347705
7.211450291
9.702751479
12.91885206
16.96979753
1.000282954
1.000853801
1.001424734
1.002035424
1.002680608
1.00334563
1.004035552
1.004812965
1.005618823
1.006505883
1.00752846
1.008647576
1.009937834
1.011528602
1.013279763
1.01547984
1.018374746
1.021713526
1.026231142
1.031640084
1.039131122
1.04847519
1.061723417
1.078802612
1.103667707
1.136505526
1.185393038
1.250920122
1.349498742
1.490243852
1.697053737
2.009247796
2.461377951
3.117358095
4.070681856
5.446077452
7.303939823
9.753868799
12.96101248
17.04052236
1.000282954
1.0008591
1.001458449
1.002083474
1.002728658
1.003393374
1.004122273
1.004911378
1.005717236
1.006590133
1.007686064
1.008805179
1.010043124
1.01176584
1.013517001
1.015796107
1.018731008
1.02171294
1.026777082
1.031981105
1.03999037
1.049334439
1.063110955
1.080133795
1.10595684
1.137265722
1.189229074
1.250611182
1.355981681
1.501189825
1.694863737
2.027490586
2.490931727
3.124826659
4.110414376
5.513094014
7.396429355
9.874991578
13.0774218
17.13366147
1.000282954
1.000865661
1.001494921
1.002131525
1.002776709
1.003460479
1.004220874
1.005009791
1.005815649
1.006778521
1.007843667
1.008962783
1.010356363
1.012003078
1.013754239
1.016177917
1.01908727
1.022605128
1.027323023
1.032828828
1.040849619
1.050193687
1.064498493
1.081602747
1.108245974
1.141749771
1.19306511
1.261851393
1.362464619
1.512135799
1.724372041
2.045733377
2.520485504
3.197988064
4.164626787
5.580110576
7.488918888
9.996114356
13.25490557
17.38227644
1.000284956
1.000892241
1.001521501
1.002173531
1.002825874
1.003559715
1.00432011
1.005108203
1.005987905
1.006978928
1.00800581
1.009226586
1.010701778
1.012240316
1.014305076
1.016744661
1.019443531
1.023529037
1.027868963
1.034350895
1.041966804
1.052732337
1.066503216
1.085919372
1.111181566
1.149137149
1.196901147
1.274523258
1.373323159
1.528821966
1.760278762
2.069720133
2.559157703
3.284419662
4.28546997
5.650311781
7.58140842
10.1675442
13.48579934
17.64702533
1.000310113
1.000917398
1.001546658
1.002198688
1.002901529
1.00363537
1.004395765
1.00519619
1.006118717
1.007109739
1.008136622
1.009426441
1.010901633
1.012449322
1.014603043
1.017042628
1.0198746
1.023978812
1.028340654
1.035047237
1.042663145
1.053840218
1.067611096
1.087725351
1.112987545
1.152138264
1.200480837
1.279575398
1.381871475
1.537370282
1.774661581
2.093460453
2.582898023
3.322225024
4.342576042
5.73141518
7.665281149
10.27625001
13.62468306
17.81766208
1.000311901
1.000941131
1.001570391
1.002243454
1.002954516
1.003687442
1.004447837
1.005304748
1.006193
1.007170956
1.008298547
1.009532697
1.010955928
1.012711134
1.014643463
1.017071818
1.020267943
1.023954453
1.028943715
1.034917852
1.043192828
1.053515629
1.068151677
1.087020685
1.114486256
1.150753117
1.204717949
1.277007811
1.385650305
1.540484554
1.767520499
2.10903022
2.601230047
3.31140415
4.335945004
5.800347768
7.762663672
10.33165964
13.67155673
17.89418671
1.000311901
1.000946989
1.00160761
1.002296462
1.003007524
1.003740102
1.004543493
1.005413306
1.006301558
1.007263807
1.00847242
1.009706571
1.011071948
1.012972946
1.014905276
1.017420962
1.020661287
1.023953435
1.029546776
1.035294468
1.044142381
1.054465181
1.069685413
1.088492204
1.117016364
1.151597615
1.20895506
1.276688038
1.392799826
1.552519067
1.765294873
2.128982405
2.63331343
3.320183419
4.378892678
5.87162205
7.860046195
10.45816159
13.79332984
17.99311172
1.000311901
1.000954214
1.001647818
1.00234947
1.003060532
1.003814137
1.004652265
1.005521865
1.006410116
1.007471728
1.008646294
1.009880444
1.01141777
1.013234759
1.015167088
1.01784254
1.02105463
1.024939138
1.030149837
1.036231097
1.045091933
1.055414734
1.07121915
1.090115852
1.119546473
1.156548239
1.213192172
1.289068159
1.399949348
1.56455358
1.797477588
2.14893459
2.665396813
3.398304691
4.436867184
5.942896333
7.957428718
10.58466354
13.97670412
18.24735654
1.000314106
1.000983489
1.001677093
1.002395796
1.00311477
1.00392363
1.004761759
1.005630423
1.006600238
1.007692943
1.008825188
1.010171659
1.011799161
1.013496571
1.015775473
1.018468505
1.021447973
1.025959902
1.030752898
1.037913095
1.046326517
1.058220171
1.073434728
1.094884362
1.122790288
1.164700606
1.217429283
1.303022378
1.411886632
1.582868143
1.836605368
2.175047979
2.707261436
3.490431354
4.56399491
6.017432528
8.054811241
10.76222494
14.21393883
18.51771048
1.000341866
1.001011249
1.001704853
1.002423556
1.00319823
1.00400709
1.004845219
1.005727488
1.006744544
1.007837249
1.008969494
1.010392178
1.012019681
1.0137272
1.016104381
1.018797413
1.02192402
1.026456626
1.03127386
1.038682499
1.047095921
1.059444755
1.074659312
1.096880864
1.12478679
1.168017443
1.221384078
1.308600733
1.421305909
1.59228742
1.852393008
2.200945939
2.733159397
3.531321245
4.625083207
6.103231889
8.143431776
10.87614646
14.35843558
18.69411898
1.000343843
1.001037494
1.001731098
1.002472965
1.003256693
1.004064517
1.004902645
1.005847255
1.006826396
1.007904647
1.009148145
1.010509274
1.012079328
1.014016175
1.016148643
1.018829262
1.022358373
1.02642931
1.031940127
1.038539309
1.047681294
1.059086605
1.075257301
1.096105356
1.126444488
1.16649875
1.226064106
1.305803222
1.425505335
1.595762206
1.844840507
2.218062348
2.753227626
3.520974364
4.620132074
6.176507775
8.245831148
10.93598895
14.41019437
18.77658203
1.000343843
1.001043972
1.001772196
1.002531451
1.003315179
1.004122608
1.005008173
1.005967022
1.006946163
1.008006992
1.009339995
1.010701123
1.012207189
1.01430515
1.016437618
1.019214761
1.022792726
1.026427793
1.032606394
1.038955321
1.048730808
1.060136119
1.07695287
1.097732241
1.129241165
1.167437558
1.230744135
1.305476419
1.433388489
1.608987579
1.84261419
2.2398681
2.788008408
3.53124645
4.666459663
6.252176552
8.34823052
11.06796946
14.53742412
18.8814061
1.000343843
1.001051929
1.001816528
1.002589937
1.003373665
1.0042043
1.005128182
1.006086789
1.00706593
1.008236505
1.009531844
1.010892973
1.012589043
1.014594125
1.016726593
1.019680323
1.023227079
1.027516971
1.033272661
1.039990329
1.049780323
1.061185634
1.07864844
1.0995271
1.132037843
1.172902933
1.235424163
1.319107368
1.441271643
1.622212952
1.877672146
2.261673852
2.822789191
3.614460404
4.728334204
6.32784533
8.450629892
11.19994997
14.72672052
19.14122427
1.000346272
1.00108417
1.001848768
1.002641034
1.003433509
1.004325127
1.005249009
1.006206556
1.007275801
1.008480724
1.009729248
1.011214497
1.01301022
1.0148831
1.017398641
1.020371802
1.023661432
1.028644907
1.033938928
1.0418493
1.051144838
1.064286169
1.081097304
1.104794855
1.135622416
1.181898332
1.240104192
1.334468062
1.454388231
1.642301604
1.920255772
2.290071464
2.868036249
3.712405543
4.861771589
6.406849154
8.553029264
11.383718
14.97027875
19.41711016
1.00037691
1.001114807
1.001879406
1.002671672
1.003525594
1.004417213
1.005341095
1.006313653
1.007435017
1.008639941
1.009888465
1.011457854
1.013253577
1.015137627
1.017761758
1.020734919
1.024187235
1.029193571
1.034514403
1.042699576
1.051995114
1.065639963
1.082451098
1.107002252
1.137829813
1.185564307
1.244473395
1.340627009
1.464764268
1.652677641
1.937574311
2.318290334
2.896255119
3.756521952
4.926946894
6.497461301
8.646515832
11.50298246
15.12051807
19.59931162
1.000379097
1.001143842
1.001908441
1.002726218
1.00359011
1.004480558
1.00540444
1.006445808
1.007525223
1.008714155
1.010085599
1.011586912
1.013319113
1.015456634
1.017810235
1.020769674
1.024666953
1.029162964
1.035250626
1.042541156
1.052642166
1.065244936
1.083112794
1.106149292
1.139663679
1.183900859
1.249642408
1.337584211
1.469432827
1.656557442
1.929627763
2.337095996
2.918204791
3.74680963
4.923860118
6.575230417
8.754055859
11.5674205
15.17743848
19.68782865
1.000379097
1.001151008
1.001953833
1.002790759
1.003654651
1.004544654
1.005520877
1.006577962
1.007657378
1.008826981
1.010297317
1.01179863
1.013460043
1.01577564
1.018129241
1.021195384
1.025146671
1.029160874
1.03598685
1.043000789
1.053802357
1.066405127
1.08498753
1.107948211
1.142755243
1.184945277
1.254811421
1.337255422
1.478122466
1.671083419
1.927441803
2.36090682
2.955854666
3.75873679
4.973735464
6.655441274
8.861595885
11.70498094
15.31025281
19.79864558
1.000379097
1.001159772
1.002002715
1.0028553
1.003719192
1.00463481
1.005653305
1.006710117
1.007789532
1.009080369
1.010509034
1.012010347
1.01388175
1.016094647
1.018448248
1.021709603
1.025626389
1.030364573
1.036723073
1.044144678
1.054962548
1.067565318
1.086862266
1.109932585
1.145846807
1.190978378
1.259980433
1.352257273
1.486812104
1.685609396
1.965584495
2.384717645
2.993504541
3.847216659
5.039671637
6.73565213
8.969135912
11.84254139
15.50547149
20.0639961
1.000381772
1.001195278
1.002038222
1.002911668
1.003785233
1.004768161
1.005786656
1.006842271
1.008021239
1.009350027
1.010726897
1.012365391
1.014346938
1.016413653
1.019190737
1.022473573
1.026106108
1.031611121
1.037459297
1.046199513
1.05647089
1.070992286
1.089569258
1.115751845
1.149808088
1.200902403
1.265149446
1.369158723
1.501215867
1.707627183
2.011867844
2.415562839
3.042325578
3.951157141
5.179547554
6.819267981
9.076675938
12.03257153
15.75523494
20.34536129
1.000415593
1.0012291
1.002072043
1.002945489
1.003886853
1.004869781
1.005888276
1.006960456
1.008196934
1.009525722
1.010902592
1.012633992
1.014615539
1.0166946
1.019591687
1.022874524
1.026686968
1.032217263
1.038095099
1.047139325
1.057410703
1.072489167
1.091066139
1.118192715
1.152248958
1.204954417
1.269976354
1.375957837
1.512640323
1.719051639
2.030852719
2.446283853
3.073046592
3.998700349
5.249025773
6.914845738
9.175175607
12.15727727
15.9112672
20.53338194
1.000418014
1.001261236
1.00210418
1.003005718
1.003958061
1.004939671
1.005958166
1.007106304
1.008296363
1.009607455
1.011120158
1.012776259
1.014687554
1.017046818
1.019644791
1.022912455
1.027216882
1.032182996
1.03890877
1.046964116
1.058126092
1.07205366
1.091798564
1.117255195
1.154278054
1.20313442
1.275684979
1.372654616
1.517831084
1.723384911
2.022539121
2.466931991
3.097044343
3.989846282
5.248106293
6.99725912
9.287980617
12.22645223
15.97356827
20.62805803
1.000418014
1.001269168
1.002154329
1.003076955
1.004029298
1.005010406
1.006086664
1.007252151
1.008442211
1.009731856
1.011353839
1.01300994
1.014842915
1.017399036
1.019997009
1.023382654
1.027746797
1.032180256
1.039722441
1.047472062
1.05940885
1.073336418
1.093871685
1.119244635
1.15769582
1.204297204
1.281393605
1.372330469
1.527406154
1.739328997
2.020443716
2.492905081
3.13774771
4.003638599
5.301724982
7.082159532
9.400785627
12.36968861
16.11207418
20.74495392
1.000418014
1.001278818
1.002208234
1.003148193
1.004100535
1.005109919
1.00623282
1.007397999
1.008588059
1.010011648
1.01158752
1.013243621
1.015308712
1.017751253
1.020349227
1.023950716
1.028276711
1.033510726
1.040536112
1.048736483
1.060691607
1.074619176
1.095944807
1.121438813
1.161113585
1.21095622
1.28710223
1.388832717
1.536981223
1.755273083
2.06188547
2.51887817
3.178451078
4.097539916
5.371887323
7.167059943
9.513590637
12.51292498
16.31322875
21.01580492
1.000420959
1.001317919
1.002247335
1.003210382
1.004173427
1.005257114
1.006380015
1.007543847
1.008843917
1.010309444
1.011828001
1.013635743
1.015822595
1.018103471
1.021169676
1.024794916
1.028806625
1.034888577
1.041349783
1.051008121
1.062359189
1.078407261
1.098937438
1.12786722
1.165491285
1.221902609
1.292810855
1.407419632
1.552788166
1.77938572
2.112116244
2.552336098
3.231039351
4.207618445
5.518228309
7.255430919
9.626395646
12.70928735
16.56912783
21.30260727
1.000458303
1.001355263
1.002284679
1.003247726
1.00428559
1.005369277
1.006492178
1.007674291
1.009037829
1.010503356
1.012021913
1.013932258
1.01611911
1.018413632
1.02161248
1.02523772
1.029448425
1.035558339
1.042052367
1.05204709
1.063398158
1.080062629
1.100592807
1.130566586
1.168190651
1.22638142
1.298143127
1.414924193
1.565360313
1.791957867
2.132911109
2.585727702
3.264430956
4.258776087
5.59213362
7.35607128
9.730010789
12.83958354
16.73103916
21.49649809
1.000460984
1.001390849
1.002320266
1.003314248
1.0043642
1.005446408
1.006569309
1.00783528
1.009147443
1.010593385
1.01226207
1.014089111
1.016198256
1.018802588
1.021670666
1.025279128
1.030033896
1.035520011
1.042951801
1.051853389
1.064189283
1.079582736
1.101403795
1.129536912
1.170436135
1.224392656
1.304446952
1.411346398
1.571131944
1.796796544
2.124270065
2.608367622
3.290630273
4.251012844
5.593603254
7.443273947
9.848204191
12.9136937
16.79896273
21.59747739
1.000460984
1.001399633
1.002375688
1.003392892
1.004442844
1.005524488
1.006711144
1.007996269
1.009308432
1.010730572
1.012520038
1.014347079
1.016369555
1.019191544
1.022059622
1.025798562
1.030619368
1.035516541
1.043851236
1.052414867
1.065607806
1.08100126
1.103696612
1.13173738
1.174214716
1.225688258
1.310750777
1.411035903
1.581678416
1.814281347
2.122326098
2.636656386
3.334554271
4.266879998
5.651134409
7.533007996
9.966397594
13.06271236
16.94329113
21.72057152
1.000460984
1.001410259
1.002435138
1.003471535
1.004521487
1.005634348
1.006872479
1.008157259
1.009469421
1.011039574
1.012778006
1.014605047
1.016884142
1.019580499
1.022448577
1.026426217
1.031204839
1.036987372
1.044750671
1.053812742
1.06702633
1.082419783
1.10598943
1.134163845
1.177993297
1.233036995
1.317054602
1.429178126
1.592224888
1.831766151
2.167274155
2.66494515
3.378478269
4.366321144
5.725676636
7.622742045
10.084591
13.21173102
17.15041557
21.99688884
1.000464227
1.001453316
1.002478195
1.00354016
1.004601957
1.00579685
1.00703498
1.008318248
1.009751998
1.011368502
1.0130435
1.015038198
1.017451919
1.019969455
1.023355332
1.027359237
1.03179031
1.038510606
1.045650105
1.0563244
1.068870248
1.086607365
1.109298163
1.141264917
1.182831244
1.245108166
1.323358427
1.449606218
1.609558917
1.858147122
2.221688766
2.701175336
3.435010078
4.482634742
5.878567408
7.716010564
10.2027844
13.41445177
17.41239257
22.28908101
1.00050547
1.001494559
1.002519438
1.003581402
1.004725781
1.005920674
1.007158804
1.008462251
1.009966056
1.01158256
1.013257557
1.015365585
1.017779307
1.02031193
1.023844448
1.027848353
1.032499579
1.039250808
1.046426633
1.057473207
1.070019054
1.088438315
1.111129113
1.144250502
1.185816829
1.250058727
1.329248505
1.457887585
1.623386731
1.871974936
2.244433156
2.737399533
3.471234275
4.537557291
5.957087333
7.821881163
10.31167373
13.55041824
17.58029324
22.48890588
1.00050844
1.001533987
1.002558866
1.003654894
1.004812583
1.00600582
1.007243951
1.008639988
1.010086922
1.011681746
1.013522701
1.015538551
1.017866304
1.020741536
1.023908218
1.027893567
1.033146557
1.039207978
1.047421065
1.05725916
1.070894145
1.087909817
1.112027409
1.143120598
1.188302184
1.247888678
1.336208651
1.454022227
1.629805686
1.877378737
2.235507322
2.762191587
3.499801992
4.531088791
5.961236412
7.914017506
10.4353783
13.62960907
17.65411756
22.59636346
1.00050844
1.001543719
1.002620136
1.003741732
1.004899421
1.006092029
1.007400539
1.008817725
1.010264659
1.011833063
1.013807533
1.015823383
1.01805521
1.021171142
1.024337825
1.028467504
1.033793535
1.039203695
1.048415498
1.057879976
1.072463087
1.089478759
1.114563548
1.145554839
1.192479836
1.249333495
1.343168796
1.453737127
1.64141749
1.896535141
2.233780066
2.792961785
3.547131917
4.549223123
6.022862173
8.008726145
10.55908287
13.78450167
17.80440304
22.7258018
1.00050844
1.00155542
1.00268571
1.003828571
1.00498626
1.006213334
1.007578663
1.008995463
1.010442397
1.012174388
1.014092365
1.016108215
1.018623805
1.021600749
1.024767431
1.029161139
1.034440513
1.040829974
1.04940993
1.059425643
1.074032029
1.091047701
1.117099687
1.148238503
1.196657488
1.257441912
1.350128942
1.473670223
1.653029295
1.915691544
2.282456854
2.823731983
3.594461843
4.654360003
6.101935955
8.103434784
10.68278744
13.93939426
18.01750283
23.00752654
1.000512012
1.00160283
1.002733119
1.003904309
1.005075115
1.006392764
1.007758092
1.0091732
1.010754541
1.012537771
1.014385528
1.016586776
1.019251246
1.022030355
1.025769751
1.03019251
1.035087491
1.042514214
1.050404363
1.062203064
1.076071251
1.09567724
1.120758247
1.156082197
1.202004046
1.270749758
1.357089088
1.496107532
1.672022536
1.944522922
2.341309289
2.86290846
3.655134552
4.777058496
6.261395582
8.20173772
10.80649201
14.14853263
18.28543705
23.30502793
1.000557572
1.001648391
1.00277868
1.00394987
1.005211842
1.00652949
1.007894818
1.009332205
1.010990881
1.012774112
1.014621868
1.016948319
1.019612789
1.022408582
1.02631013
1.030732888
1.035871479
1.04333243
1.051262789
1.06347357
1.077341758
1.097702745
1.122783752
1.159384714
1.205306562
1.276221705
1.363594768
1.505244241
1.687223864
1.95972425
2.366161373
2.902168581
3.694394672
4.835971332
6.344640543
8.312936792
10.9207578
14.29031477
18.45935815
23.51084511
1.000560865
1.001692102
1.002822392
1.004031085
1.005307711
1.006623514
1.007988842
1.009528473
1.011124184
1.01288341
1.014914655
1.017139091
1.019708434
1.022883182
1.026380043
1.030782274
1.036586572
1.04328462
1.052362477
1.063237162
1.078309969
1.097121098
1.123779127
1.158146052
1.208057894
1.273857751
1.371278601
1.501080351
1.694366187
1.965765674
2.357013107
2.929297618
3.725522342
4.831098509
6.351670836
8.410140172
11.05008747
14.37477556
18.53926612
23.62497808
1.000560865
1.001702891
1.00289015
1.004126995
1.00540362
1.006718722
1.008161757
1.009724741
1.011320452
1.013050346
1.015229211
1.017453647
1.019916799
1.023357782
1.026854643
1.031416565
1.037301665
1.043279442
1.053462165
1.063923779
1.080045601
1.098856729
1.126584789
1.160839301
1.212676935
1.275470448
1.378962433
1.500836041
1.707146317
1.986739574
2.355586331
2.962734161
3.776453185
4.851756315
6.417559613
8.509955383
11.17941715
14.53560574
18.69558795
23.76093353
1.000560865
1.001715774
1.002962486
1.004222904
1.00549953
1.006852693
1.008358455
1.009921009
1.01151672
1.013427449
1.015543766
1.017768203
1.020545195
1.023832381
1.027329243
1.032183269
1.038016758
1.04507791
1.054561853
1.065633148
1.081781233
1.100592361
1.12939045
1.163807779
1.217295977
1.284415299
1.386646266
1.522723216
1.719926447
2.007713474
2.408228886
2.996170704
3.827384029
4.962681755
6.501321294
8.609770594
11.30874683
14.69643592
18.9146542
24.0480068
1.000564797
1.001767972
1.003014684
1.004306508
1.005597668
1.007050847
1.008556609
1.010117277
1.011861594
1.013828975
1.015867546
1.01829704
1.021238705
1.024306981
1.028437412
1.033323576
1.038731851
1.0469405
1.05566154
1.068704876
1.084036807
1.105710833
1.133436178
1.172471145
1.223204538
1.299082127
1.394330098
1.547351069
1.740721286
2.039191362
2.471787595
3.038479924
3.892392768
5.091823386
6.667444176
8.713237912
11.43807651
14.91196456
19.18845609
24.35072525
1.000615142
1.001818316
1.003065028
1.004356853
1.005748675
1.007201854
1.008707617
1.010292885
1.012122591
1.014089972
1.016128543
1.018696382
1.021638047
1.024724777
1.029034548
1.033920712
1.039598612
1.047845142
1.056610703
1.070110263
1.085442194
1.107951961
1.135677306
1.176124643
1.226858036
1.305130332
1.401515133
1.557429538
1.7574253
2.055895376
2.498925767
3.080975718
3.934888562
5.15487801
6.755583616
8.829915284
11.55786096
15.05962469
19.36841346
24.56254831
1.000618795
1.001866807
1.003113519
1.00444663
1.005854585
1.007305716
1.008811479
1.010509664
1.012269642
1.014210441
1.016451924
1.018906837
1.021743221
1.025249193
1.029111224
1.033974677
1.040389161
1.047791835
1.057827045
1.069849311
1.08651372
1.107312294
1.136780697
1.174768274
1.229904408
1.302559915
1.409996809
1.552958623
1.765375972
2.06265619
2.489643403
3.110622875
3.968754107
5.151845628
6.765739614
8.932335636
11.69292536
15.14950909
19.45452631
24.68347598
1.000618795
1.001878775
1.003188482
1.004552586
1.00596054
1.007410892
1.009002466
1.010726443
1.012486421
1.014394648
1.016799378
1.019254292
1.021973097
1.025773609
1.02963564
1.034675821
1.041179709
1.047785682
1.059043387
1.070608928
1.088434122
1.109232696
1.139884965
1.177748557
1.235011695
1.304361769
1.418478485
1.552774418
1.779436144
2.085602526
2.488622517
3.146902958
4.023451066
5.175244396
6.836061971
9.037404613
11.82798976
15.31634322
19.61693955
24.82605354
1.000618795
1.001892958
1.003268286
1.004658541
1.006066496
1.007558881
1.009219724
1.010943222
1.0127032
1.014811368
1.017146832
1.019601746
1.022667728
1.026298025
1.030160056
1.035523472
1.041970258
1.049774932
1.06025973
1.072499664
1.090354523
1.111153097
1.142989232
1.181032484
1.240118983
1.314227244
1.426960162
1.576790919
1.793496317
2.108548861
2.54545186
3.183183041
4.078148025
5.292066013
6.924661832
9.14247359
11.96305416
15.48317735
19.8419779
25.1184458
1.000623123
1.001950423
1.003325751
1.004750845
1.006174911
1.007777754
1.009438597
1.011160001
1.013084316
1.015255133
1.017504501
1.020186262
1.023434424
1.026822441
1.031385496
1.036784471
1.042760807
1.05183513
1.061476072
1.075897361
1.092849815
1.116812487
1.147463491
1.190600408
1.246648531
1.330386626
1.435441838
1.603803683
1.816243746
2.142878014
2.613960643
3.228796498
4.147649193
5.427732427
7.097511884
9.25124842
12.09811856
15.70510505
20.12161598
25.42633275
1.000678771
1.00200607
1.003381398
1.004806493
1.006341733
1.007944576
1.009605419
1.011353992
1.013372606
1.015543422
1.01779279
1.02062745
1.023875612
1.027284044
1.032045494
1.037444469
1.043719293
1.052835549
1.062525793
1.077452282
1.094404736
1.119292655
1.149943659
1.194642685
1.250690807
1.337071797
1.443376041
1.614918543
1.834587092
2.16122136
2.643560452
3.274683055
4.19353575
5.495083289
7.190715247
9.373504152
12.22352461
15.85876942
20.30767064
25.64416487
1.000682826
1.0020599
1.003435228
1.00490577
1.006458767
1.008059347
1.00972019
1.011593483
1.013534864
1.015676238
1.018150043
1.020859674
1.023991291
1.027863634
1.032129623
1.037503466
1.044593456
1.052776188
1.063871462
1.07716443
1.095590929
1.118589779
1.151167295
1.193159313
1.254064366
1.334282757
1.452735416
1.610135501
1.843438336
2.168791767
2.634251288
3.307035263
4.230319258
5.494118598
7.204271922
9.481273124
12.36444297
15.95429054
20.40014187
25.77194218
1.000682826
1.002073186
1.003518198
1.005022854
1.006575852
1.008175571
1.009931193
1.011832974
1.013774355
1.015879553
1.018533922
1.021243553
1.024244959
1.028443224
1.032709213
1.038278687
1.04546762
1.052768993
1.065217132
1.078005074
1.097716185
1.120715035
1.154602389
1.196457698
1.259711446
1.336297887
1.462094791
1.610035052
1.858897758
2.193876033
2.633758507
3.346348404
4.288966416
5.520463318
7.279199936
9.591726178
12.50536133
16.12721666
20.56871601
25.92117835
1.000682826
1.002088798
1.003606252
1.005139939
1.006692937
1.008339083
1.010171213
1.012072465
1.014013846
1.016340153
1.018917801
1.021627432
1.025012974
1.029022814
1.033288803
1.039216039
1.046341784
1.054969674
1.066562801
1.080096788
1.09984144
1.12284029
1.158037484
1.200090986
1.265358526
1.347175148
1.471454167
1.636365393
1.87435718
2.218960299
2.695001277
3.385661545
4.347613574
5.643311089
7.372780779
9.702179232
12.64627969
16.30014279
20.79973459
26.21883109
1.000687591
1.002152053
1.003669506
1.005241869
1.006812738
1.008580887
1.010413018
1.012311956
1.014435107
1.016830708
1.019312994
1.022273632
1.025860764
1.029602404
1.034644207
1.040610796
1.047215947
1.057248867
1.067908471
1.083855565
1.102602382
1.129098044
1.16298602
1.210656532
1.272573844
1.364970644
1.480813542
1.665967232
1.899216818
2.256356484
2.768707847
3.434770546
4.421797028
5.78561817
7.552372391
9.816390159
12.78719805
16.528454
21.08517272
26.53182291
1.00074912
1.002213581
1.003731035
1.005303398
1.006997079
1.008765228
1.010597358
1.01252631
1.014753618
1.017149219
1.019631506
1.02276116
1.026348293
1.030112524
1.035373853
1.041340442
1.048276111
1.058355459
1.069069672
1.08557631
1.104323126
1.131843231
1.165731207
1.215129279
1.277046591
1.37235877
1.489572814
1.678216576
1.919346955
2.276486622
2.800971617
3.484272973
4.471299456
5.857466956
7.65075031
9.944365361
12.91836286
16.68823214
21.27738006
26.75566172
1.000753625
1.002273384
1.003790838
1.00541322
1.007126444
1.008892105
1.010724235
1.012790959
1.014932705
1.017295687