/*--------------------------------*- C++ -*----------------------------------*\
| =========                 |                                                 |
| \\      /  F ield         | OpenFOAM: The Open Source CFD Toolbox           |
|  \\    /   O peration     | Version:  v2006                                 |
|   \\  /    A nd           | Website:  www.openfoam.com                      |
|    \\/     M anipulation  |                                                 |
\*---------------------------------------------------------------------------*/
FoamFile
{
    version     2.0;
    format      ascii;
    class       volScalarField;
    location    "0.1";
    object      theta2;
}
// * * * * * * * * * * * * * * * * * * * * * * * * * * * * * * * * * * * * * //

dimensions      [0 0 0 0 0 0 0];


internalField   nonuniform List<scalar> 
168000
(
96.98972771
96.99032236
96.99093854
96.99157701
96.99224665
96.99285608
96.99348756
96.99413581
96.99473225
96.99529366
96.99587537
96.99639124
96.99685366
96.99732944
96.99771848
96.99807767
96.99842452
96.99868579
96.99894999
96.99914766
96.99933082
96.99947519
96.9995972
96.99969328
96.99977236
96.99983025
96.99987915
96.99991159
96.99993895
96.99995723
96.99997033
96.9999803
96.99998661
96.99999082
96.9999938
96.99999577
96.99999699
96.99999776
96.99999828
96.99999862
96.98952009
96.99016109
96.99077726
96.99141691
96.99208861
96.99276972
96.9934012
96.99402203
96.9946721
96.99525394
96.99580203
96.99634972
96.99683966
96.99727895
96.99771446
96.998076
96.99839264
96.9986889
96.99893043
96.99915183
96.99932529
96.99947881
96.99959596
96.99969604
96.99977053
96.99983213
96.99987687
96.99991278
96.99993823
96.99995728
96.99997074
96.99997996
96.9999865
96.99999091
96.99999383
96.99999566
96.99999691
96.99999773
96.99999825
96.99999859
96.9893087
96.98996207
96.99061674
96.99125727
96.99192897
96.99263736
96.99329368
96.99390824
96.99455831
96.99520367
96.9957247
96.99627239
96.9968148
96.99722845
96.99766396
96.99804779
96.99836076
96.99869007
96.99891087
96.99913961
96.99931358
96.9994671
96.99958908
96.99968943
96.99976655
96.99983068
96.9998746
96.9999134
96.99993694
96.99995654
96.99997085
96.99997952
96.99998624
96.99999092
96.99999368
96.99999555
96.99999683
96.99999767
96.99999821
96.99999856
96.98909731
96.98975108
96.99043007
96.99109763
96.99176933
96.99246751
96.99316315
96.99379445
96.99444452
96.99507306
96.99564737
96.99619506
96.99671981
96.99717795
96.99761346
96.99800998
96.99832888
96.99863678
96.99889131
96.99911514
96.99930186
96.99945538
96.9995822
96.99968237
96.99976258
96.99982491
96.99987232
96.99990944
96.99993564
96.99995579
96.99996948
96.99997909
96.99998598
96.99999051
96.9999935
96.99999544
96.99999674
96.9999976
96.99999815
96.9999985
96.98888604
96.98954132
96.99022032
96.99092388
96.99160909
96.99228044
96.99297608
96.99368066
96.9943035
96.99492166
96.99556218
96.99609709
96.99660598
96.99712745
96.99753421
96.99792927
96.998297
96.99858222
96.99887175
96.99907969
96.99928091
96.99943315
96.99956712
96.99966875
96.99975553
96.99981678
96.99987005
96.99990467
96.99993392
96.99995396
96.9999679
96.99997859
96.9999855
96.99998998
96.99999318
96.99999532
96.99999666
96.9999975
96.99999806
96.99999843
96.98869242
96.98934771
96.9900267
96.99073027
96.99146812
96.99213947
96.99283512
96.99354922
96.99420605
96.9948242
96.99546473
96.99603256
96.99654145
96.99706505
96.997493
96.99788806
96.9982695
96.99855669
96.99884711
96.99906428
96.9992655
96.99942405
96.99955802
96.99966346
96.99975024
96.99981374
96.99986738
96.99990294
96.99993293
96.99995297
96.99996732
96.99997824
96.99998516
96.99998977
96.99999304
96.99999522
96.99999656
96.99999742
96.99999799
96.99999838
96.98846379
96.98917022
96.98984922
96.99055405
96.99129416
96.99204461
96.99274025
96.99342404
96.99414001
96.99478071
96.99538412
96.995987
96.99652621
96.99700957
96.99748869
96.99788634
96.9982345
96.9985602
96.99882564
96.99906891
96.99925946
96.99942805
96.99955666
96.99966651
96.99974824
96.99981581
96.99986488
96.99990425
96.99993214
96.99995302
96.99996776
96.99997786
96.99998503
96.99998987
96.99999307
96.99999509
96.99999646
96.99999738
96.99999796
96.99999834
96.988231
96.98895108
96.98967255
96.99037833
96.99111844
96.99189898
96.992622
96.99329886
96.99401483
96.99472555
96.9952991
96.99590198
96.99649901
96.99695409
96.99743321
96.99785538
96.99819949
96.99856155
96.99880418
96.99905552
96.99924661
96.9994152
96.99954912
96.99965926
96.99974388
96.99981421
96.99986238
96.99990492
96.99993072
96.9999522
96.99996788
96.99997738
96.99998474
96.99998987
96.99999291
96.99999496
96.99999637
96.9999973
96.99999791
96.9999983
96.9879982
96.98871872
96.98946699
96.9902026
96.99094272
96.99171198
96.99247835
96.99317368
96.99388965
96.99458179
96.99521408
96.99581696
96.9963945
96.99689861
96.99737773
96.99781385
96.99816449
96.99850298
96.99878272
96.99902865
96.99923376
96.99940235
96.99954158
96.99965151
96.99973952
96.99980789
96.99985988
96.99990057
96.99992929
96.99995138
96.99996637
96.9999769
96.99998444
96.99998941
96.9999927
96.99999483
96.99999627
96.99999723
96.99999783
96.99999822
96.98776554
96.98848768
96.98923596
96.99001131
96.99076633
96.99150594
96.99227232
96.99304851
96.99373441
96.99441509
96.9951204
96.99570919
96.99626924
96.99684313
96.99729056
96.99772508
96.99812949
96.99844301
96.99876126
96.99898971
96.99921076
96.99937794
96.99952502
96.99963656
96.99973178
96.99979896
96.99985738
96.99989533
96.9999274
96.99994936
96.99996463
96.99997634
96.99998391
96.99998883
96.99999235
96.99999469
96.99999618
96.9999971
96.99999773
96.99999814
96.98755236
96.9882745
96.98902278
96.98979813
96.99061121
96.99135082
96.99211719
96.99290388
96.99362724
96.99430792
96.99501323
96.99563827
96.99619832
96.99677455
96.9972453
96.99767982
96.9980993
96.99841499
96.99873421
96.99897281
96.99919386
96.99936796
96.99951504
96.99963077
96.99972598
96.99979563
96.99985445
96.99989343
96.99992631
96.99994827
96.99996399
96.99997595
96.99998353
96.99998859
96.99999218
96.99999458
96.99999606
96.99999701
96.99999766
96.99999808
96.98730057
96.98807918
96.98882745
96.98960416
96.99041972
96.99124661
96.99201298
96.99276616
96.99355474
96.99426028
96.99492463
96.99558829
96.99618175
96.9967136
96.9972407
96.99767807
96.99806087
96.99841893
96.99871066
96.99897795
96.99918725
96.99937238
96.99951357
96.99963412
96.99972379
96.9997979
96.99985171
96.99989487
96.99992544
96.99994831
96.99996446
96.99997553
96.99998338
96.99998869
96.9999922
96.99999443
96.99999595
96.99999696
96.99999761
96.99999804
96.98704417
96.98783786
96.988633
96.98941072
96.99022627
96.99108639
96.99188292
96.99262844
96.99341703
96.99419978
96.99483116
96.99549482
96.99615198
96.99665264
96.99717974
96.99764409
96.99802244
96.99842051
96.99868711
96.99896327
96.99917316
96.99935829
96.9995053
96.99962617
96.99971901
96.99979616
96.99984896
96.99989561
96.99992387
96.9999474
96.99996458
96.99997499
96.99998305
96.99998868
96.99999202
96.99999428
96.99999584
96.99999688
96.99999755
96.99999799
96.98678778
96.98758193
96.98840662
96.98921728
96.99003283
96.99088047
96.99172483
96.99249073
96.99327931
96.99404152
96.99473769
96.99540135
96.996037
96.99659169
96.99711879
96.99759847
96.99798401
96.99835612
96.99866356
96.99893377
96.99915907
96.99934419
96.99949703
96.99961767
96.99971422
96.99978921
96.99984622
96.99989083
96.9999223
96.99994649
96.99996292
96.99997445
96.99998272
96.99998818
96.99999178
96.99999413
96.99999573
96.99999679
96.99999746
96.9999979
96.98653153
96.98732742
96.98815211
96.98900665
96.98983866
96.99065353
96.99149788
96.99235301
96.99310842
96.99385798
96.99463466
96.99528278
96.99589915
96.99653073
96.99702292
96.99750084
96.99794558
96.9982902
96.99864001
96.99889099
96.99913381
96.99931738
96.99947885
96.99960126
96.99970573
96.99977941
96.99984348
96.99988508
96.99992021
96.99994428
96.999961
96.99997383
96.99998213
96.99998753
96.99999139
96.99999398
96.99999562
96.99999664
96.99999734
96.99999781
96.98629679
96.98709268
96.98791737
96.9887719
96.98966795
96.99048281
96.99132717
96.99219386
96.99299056
96.99374012
96.99451681
96.99520485
96.99582121
96.99645537
96.99697322
96.99745113
96.99791244
96.99825945
96.99861032
96.99887245
96.99911527
96.99930643
96.9994679
96.9995949
96.99969937
96.99977576
96.99984026
96.99988298
96.99991901
96.99994307
96.99996029
96.9999734
96.99998171
96.99998725
96.9999912
96.99999384
96.99999548
96.99999654
96.99999726
96.99999773
96.98601945
96.98687769
96.98770238
96.98855837
96.98945713
96.99036833
96.99121268
96.99204234
96.99291097
96.99368795
96.99441941
96.99515
96.99580319
96.9963884
96.9969683
96.99744936
96.99787024
96.99826388
96.99858448
96.99887815
96.99910804
96.99931132
96.99946631
96.99959859
96.99969697
96.99977825
96.99983724
96.99988455
96.99991805
96.99994311
96.9999608
96.99997293
96.99998154
96.99998735
96.99999122
96.99999367
96.99999535
96.99999647
96.99999721
96.99999768
96.98573704
96.98661192
96.98748833
96.9883454
96.98924417
96.99019203
96.99106962
96.99189083
96.99275945
96.99362157
96.99431664
96.99504723
96.99577061
96.99632143
96.99690133
96.99741207
96.99782805
96.9982657
96.99855864
96.99886206
96.99909258
96.99929586
96.99945724
96.99958988
96.99969172
96.99977633
96.99983423
96.99988535
96.99991632
96.9999421
96.99996092
96.99997233
96.99998116
96.99998734
96.999991
96.9999935
96.99999522
96.99999637
96.99999713
96.99999762
96.98545463
96.98633001
96.987239
96.98813244
96.9890312
96.98996528
96.99089561
96.99173931
96.99260793
96.99344735
96.99421387
96.99494447
96.9956441
96.99625446
96.99683436
96.99736196
96.99778585
96.99819492
96.99853279
96.99882967
96.99907712
96.9992804
96.99944817
96.99958055
96.99968647
96.99976871
96.99983121
96.9998801
96.99991459
96.9999411
96.99995909
96.99997173
96.99998079
96.99998678
96.99999074
96.99999333
96.99999509
96.99999626
96.99999702
96.99999752
96.98517237
96.98604962
96.98695861
96.98790049
96.98881743
96.98971528
96.99064561
96.99158779
96.99241978
96.99324524
96.99410057
96.99481402
96.99549239
96.99618749
96.99672892
96.99725457
96.99774365
96.99812245
96.99850695
96.99878267
96.99904939
96.99925096
96.99942821
96.99956254
96.99967716
96.99975796
96.9998282
96.99987379
96.9999123
96.99993866
96.99995698
96.99997103
96.99998014
96.99998605
96.9999903
96.99999315
96.99999496
96.9999961
96.99999688
96.9999974
96.98491386
96.9857911
96.98670009
96.98764198
96.98862955
96.98952739
96.99045773
96.99141265
96.99229016
96.99311562
96.99397095
96.99472837
96.99540674
96.99610468
96.99667433
96.99719998
96.99770728
96.9980887
96.99847437
96.99876233
96.99902905
96.99923895
96.9994162
96.99955557
96.99967018
96.99975395
96.99982466
96.99987149
96.99991097
96.99993733
96.9999562
96.99997055
96.99997966
96.99998574
96.99999008
96.99999299
96.9999948
96.99999598
96.99999678
96.99999731
96.98460836
96.98555447
96.98646346
96.98740689
96.98839744
96.98940163
96.99033196
96.99124593
96.99220278
96.99305849
96.99386388
96.9946682
96.99538715
96.9960311
96.99666908
96.9971982
96.99766095
96.99809368
96.99844601
96.99876866
96.99902116
96.99924435
96.99941448
96.99955963
96.99966755
96.99975668
96.99982135
96.9998732
96.99990991
96.99993736
96.99995674
96.99997002
96.99997946
96.99998585
96.99999009
96.99999279
96.99999465
96.9999959
96.99999671
96.99999725
96.98429725
96.98526174
96.98622782
96.98717241
96.98816296
96.98920762
96.9901746
96.99107922
96.99203607
96.99298567
96.99375089
96.99455521
96.99535151
96.99595752
96.9965955
96.99715727
96.99761462
96.99809578
96.99841765
96.99875102
96.9990042
96.99922739
96.99940453
96.99955007
96.99966179
96.99975458
96.99981804
96.99987407
96.999908
96.99993625
96.99995686
96.99996935
96.99997904
96.99998582
96.99998984
96.99999259
96.9999945
96.99999577
96.99999662
96.99999717
96.98398614
96.98495117
96.98595317
96.98693793
96.98792848
96.9889579
96.98998305
96.9909125
96.99186935
96.99279387
96.99363789
96.99444221
96.99521231
96.99588394
96.99652192
96.99710223
96.99756829
96.99801798
96.99838929
96.99871547
96.99898725
96.99921043
96.99939458
96.99953985
96.99965603
96.99974622
96.99981473
96.99986831
96.99990609
96.99993513
96.99995484
96.99996868
96.99997861
96.99998519
96.99998953
96.99999239
96.99999434
96.99999565
96.99999649
96.99999705
96.9836752
96.98464221
96.98564422
96.98668249
96.98769311
96.98868246
96.98970762
96.99074578
96.99166219
96.99257128
96.99351328
96.99429869
96.99504532
96.99581036
96.99640595
96.9969841
96.99752196
96.99793832
96.99836093
96.99866382
96.99895679
96.99917811
96.99937267
96.99952007
96.9996458
96.99973441
96.99981142
96.99986138
96.99990357
96.99993244
96.99995251
96.99996791
96.99997789
96.99998438
96.99998904
96.99999219
96.99999419
96.99999546
96.99999633
96.99999691
96.98339047
96.98435749
96.9853595
96.98639776
96.98748631
96.98847567
96.98950082
96.99055304
96.99151962
96.99242872
96.99337071
96.99420456
96.99495119
96.99571934
96.996346
96.99692415
96.99748204
96.99790129
96.99832518
96.99864151
96.99893448
96.99916494
96.9993595
96.99951242
96.99963815
96.99973
96.99980753
96.99985884
96.9999021
96.99993097
96.99995164
96.99996737
96.99997735
96.99998403
96.9999888
96.999992
96.99999401
96.99999531
96.99999621
96.99999681
96.98305391
96.98409699
96.985099
96.98613892
96.98723073
96.9883375
96.98936266
96.99036958
96.9914237
96.99236617
96.99325301
96.99413854
96.99492991
96.9956385
96.99634041
96.99692239
96.99743117
96.99790688
96.99829406
96.99864853
96.99892585
96.99917089
96.99935763
96.99951689
96.99963526
96.999733
96.99980389
96.99986071
96.99990092
96.99993099
96.99995222
96.99996677
96.99997712
96.99998413
96.9999888
96.99999178
96.99999383
96.99999522
96.99999613
96.99999672
96.98271115
96.98377454
96.98483956
96.98588072
96.98697253
96.98812399
96.98918955
96.99018613
96.99124025
96.99228629
96.99312877
96.99401429
96.99489092
96.99555766
96.99625957
96.99687748
96.99738031
96.99790931
96.99826294
96.9986292
96.99890725
96.99915229
96.99934671
96.9995064
96.99962894
96.99973069
96.99980024
96.99986166
96.99989882
96.99992976
96.99995234
96.99996602
96.99997664
96.99998409
96.99998851
96.99999154
96.99999365
96.99999507
96.99999602
96.99999663
96.98236838
96.98343234
96.984537
96.98562252
96.98671433
96.98784893
96.98897868
96.99000268
96.99105679
96.9920751
96.99300453
96.99389005
96.99473773
96.99547681
96.99617872
96.99681701
96.99732944
96.99782379
96.99823182
96.99859016
96.99888865
96.99913369
96.9993358
96.99949518
96.99962261
96.9997215
96.9997966
96.99985532
96.99989671
96.99992852
96.99995011
96.99996527
96.99997616
96.99998338
96.99998816
96.99999131
96.99999347
96.99999493
96.99999587
96.99999649
96.9820258
96.98309188
96.98419654
96.98534117
96.98645515
96.98754544
96.98867519
96.98981922
96.99082867
96.99182995
96.99286746
96.99373212
96.99455392
96.99539597
96.99605115
96.99668707
96.99727857
96.99773621
96.99820071
96.99853343
96.99885521
96.99909819
96.99931174
96.99947347
96.99961139
96.99970854
96.99979296
96.99984771
96.99989393
96.99992556
96.99994755
96.99996441
96.99997535
96.99998248
96.99998761
96.99999107
96.99999329
96.99999471
96.99999568
96.99999633
96.98171217
96.98277825
96.98388291
96.98502754
96.98622751
96.98731781
96.98844755
96.98960708
96.99067186
96.99167314
96.99271065
96.99362866
96.99445046
96.99529594
96.99598531
96.99662123
96.99723475
96.99769556
96.99816146
96.99850895
96.99883073
96.99908375
96.9992973
96.99946508
96.99960299
96.9997037
96.99978869
96.99984492
96.99989231
96.99992393
96.99994657
96.9999638
96.99997474
96.99998208
96.99998732
96.99999086
96.99999308
96.99999454
96.99999553
96.9999962
96.98134132
96.98249146
96.98359612
96.9847425
96.98594605
96.98716602
96.98829576
96.98940519
96.99056656
96.99160466
96.99258125
96.99355623
96.99442735
96.99520711
96.99597937
96.9966195
96.99717889
96.99770184
96.99812732
96.99851673
96.9988213
96.99909032
96.99929527
96.99946999
96.99959982
96.99970698
96.99978468
96.99984695
96.999891
96.99992394
96.99994719
96.99996313
96.99997447
96.99998217
96.9999873
96.99999059
96.99999287
96.99999442
96.99999544
96.9999961
96.98096363
96.9821362
96.98331045
96.98445816
96.98566171
96.98693102
96.98810532
96.9892033
96.99036467
96.99151704
96.99244463
96.99341961
96.99438469
96.99511827
96.99589054
96.99657021
96.99712304
96.99770464
96.99809317
96.99849555
96.99880089
96.99906991
96.99928329
96.99945848
96.99959288
96.99970444
96.99978068
96.99984797
96.99988868
96.99992257
96.9999473
96.99996229
96.99997393
96.9999821
96.99998697
96.99999032
96.99999266
96.99999425
96.9999953
96.999996
96.98058594
96.98175912
96.98297708
96.98417381
96.98537736
96.98662802
96.98787315
96.98900141
96.99016278
96.99128447
96.99230801
96.99328298
96.99421611
96.99502944
96.99580171
96.99650379
96.99706719
96.99761062
96.99805902
96.99845269
96.99878049
96.99904951
96.99927132
96.99944618
96.99958594
96.99969436
96.99977667
96.99984101
96.99988635
96.9999212
96.99994484
96.99996145
96.9999734
96.99998131
96.99998657
96.99999005
96.99999245
96.99999407
96.99999513
96.99999582
96.98020844
96.98138387
96.98260184
96.98386388
96.98509192
96.98629357
96.9875387
96.98879952
96.98991156
96.99101444
96.99215724
96.9931092
96.99401377
96.99494061
96.99566137
96.99636084
96.99701133
96.99751434
96.99802487
96.99839035
96.99874377
96.99901052
96.99924491
96.99942235
96.99957361
96.99968013
96.99977266
96.99983265
96.99988329
96.99991793
96.99994201
96.99996049
96.99997249
96.99998032
96.99998595
96.99998978
96.99999224
96.99999382
96.9999949
96.99999563
96.97986292
96.98103836
96.98225632
96.98351836
96.98484132
96.98604297
96.9872881
96.988566
96.98973906
96.99084194
96.99198474
96.99299548
96.99390005
96.99483067
96.99558906
96.99628853
96.99696323
96.99746973
96.9979818
96.9983635
96.99871692
96.99899468
96.99922906
96.99941313
96.9995644
96.99967481
96.99976797
96.99982957
96.99988149
96.99991613
96.99994093
96.99995981
96.9999718
96.99997986
96.99998562
96.99998953
96.999992
96.99999362
96.99999473
96.99999548
96.97945425
96.98072257
96.98194054
96.98320444
96.98453132
96.9858762
96.98712133
96.9883438
96.98962345
96.99076698
96.99184248
96.99291601
96.99387497
96.99473306
96.99558276
96.99628686
96.9969019
96.99747677
96.99794433
96.99837213
96.9987066
96.99900193
96.99922686
96.99941854
96.99956093
96.9996784
96.99976356
96.99983179
96.99988003
96.99991611
96.99994158
96.99995905
96.99997148
96.99997993
96.99998558
96.99998922
96.99999175
96.99999348
96.99999461
96.99999535
96.97903801
96.98033113
96.98162595
96.98289126
96.98421814
96.98561752
96.9869118
96.9881216
96.98940125
96.99067087
96.99169223
96.99276576
96.99382831
96.99463545
96.99548515
96.99623277
96.99684057
96.99748
96.99790685
96.99834891
96.99868422
96.99897955
96.99921372
96.99940591
96.9995533
96.99967561
96.99975915
96.9998329
96.99987747
96.99991459
96.99994168
96.99995811
96.99997087
96.99997984
96.9999852
96.99998891
96.9999915
96.99999327
96.99999445
96.99999522
96.97862177
96.97991552
96.98125859
96.98257808
96.98390495
96.9852837
96.98665615
96.98789941
96.98917906
96.99041474
96.99154199
96.99261552
96.99364277
96.99453784
96.99538754
96.9961598
96.99677924
96.99737664
96.99786938
96.99830185
96.99866183
96.99895716
96.99920058
96.99939241
96.99954568
96.99966454
96.99975474
96.99982524
96.9998749
96.99991306
96.99993897
96.99995716
96.99997026
96.99997896
96.99998475
96.99998859
96.99999125
96.99999306
96.99999424
96.99999501
96.97820572
96.97950188
96.98084495
96.98223661
96.98359056
96.98491508
96.98628753
96.98767721
96.98890235
96.99011726
96.99137613
96.99242427
96.99342
96.99444023
96.99523315
96.99600252
96.99671791
96.99727079
96.9978319
96.99823336
96.99862151
96.99891435
96.99917158
96.99936625
96.99953214
96.99964891
96.99975033
96.99981605
96.99987152
96.99990947
96.99993584
96.99995609
96.99996924
96.99997784
96.99998405
96.99998827
96.99999101
96.99999276
96.99999397
96.99999479
96.97782503
96.97912119
96.98046425
96.98185592
96.98331464
96.98463916
96.98601161
96.98742013
96.98871258
96.98992749
96.99118636
96.99229927
96.993295
96.99431939
96.99515373
96.9959231
96.99666511
96.99722182
96.99778463
96.9982039
96.99859205
96.99889697
96.9991542
96.99935613
96.99952202
96.99964306
96.99974516
96.99981266
96.99986953
96.99990747
96.99993463
96.99995531
96.99996847
96.99997731
96.99998367
96.99998798
96.99999072
96.99999252
96.99999376
96.9999946
96.97737459
96.97877344
96.98011651
96.98151015
96.98297317
96.98445593
96.98582838
96.98717555
96.98858567
96.98984543
96.99102994
96.99221207
96.99326778
96.99421213
96.99514706
96.99592154
96.99659777
96.99722973
96.99774351
96.99821347
96.99858077
96.99890497
96.9991518
96.99936206
96.99951821
96.99964699
96.99974031
96.99981506
96.99986791
96.99990742
96.99993532
96.99995445
96.99996809
96.99997737
96.99998361
96.99998762
96.99999043
96.99999235
96.99999361
96.99999445
96.97691578
96.97834205
96.97977003
96.98116515
96.98262817
96.98417115
96.98559782
96.98693097
96.98834109
96.98974001
96.9908647
96.99204683
96.99321675
96.99410486
96.9950398
96.99586218
96.99653042
96.99723343
96.99770238
96.99818802
96.99855621
96.99888041
96.99913738
96.99934821
96.99950983
96.99964391
96.99973545
96.99981625
96.99986507
96.99990573
96.9999354
96.99995339
96.99996739
96.99997725
96.99998317
96.99998725
96.99999013
96.99999211
96.99999342
96.99999429
96.97645698
96.97788392
96.97936514
96.98082016
96.98228318
96.98380332
96.98531629
96.98668639
96.98809651
96.98945789
96.99069946
96.99188159
96.99301252
96.9939976
96.99493253
96.995782
96.99646308
96.99711979
96.99766125
96.99813634
96.99853165
96.99885586
96.99912296
96.99933339
96.99950146
96.99963175
96.9997306
96.99980784
96.99986223
96.99990403
96.9999324
96.99995233
96.9999667
96.99997625
96.99998264
96.99998689
96.99998984
96.99999186
96.99999317
96.99999404
96.97599838
96.97742787
96.97890908
96.9804439
96.98193684
96.98339697
96.98490994
96.98644181
96.98779171
96.98913013
96.99051698
96.99167109
96.99276724
96.99389034
96.99476267
96.99560897
96.99639574
96.99700341
96.99762013
96.99806108
96.99848737
96.99880883
96.99909112
96.99930467
96.99948659
96.9996146
96.99972574
96.99979774
96.99985851
96.99990006
96.99992895
96.99995113
96.99996556
96.99997501
96.99998185
96.99998652
96.99998955
96.99999151
96.99999286
96.99999377
96.97557886
96.97700834
96.97848956
96.98002437
96.98163301
96.98309314
96.9846061
96.98615877
96.98758292
96.98892134
96.99030819
96.99153369
96.99262984
96.99375751
96.99467544
96.99552173
96.99633777
96.99694966
96.99756824
96.99802876
96.99845504
96.99878976
96.99907205
96.99929356
96.99947548
96.99960816
96.99972006
96.999794
96.99985629
96.99989784
96.99992759
96.99995025
96.99996468
96.99997441
96.9999814
96.99998617
96.99998921
96.99999122
96.99999261
96.99999354
96.9750823
96.97662535
96.97810656
96.97964346
96.98125681
96.98289181
96.98440478
96.98588952
96.98744357
96.98883152
96.9901362
96.99143801
96.99260031
96.99363963
96.99466839
96.99552031
96.99626382
96.99695854
96.99752311
96.99803937
96.99844271
96.99879858
96.99906944
96.99930007
96.99947129
96.99961245
96.99971471
96.99979661
96.99985448
96.99989776
96.99992831
96.99994928
96.99996424
96.99997444
96.99998131
96.99998575
96.99998887
96.99999101
96.99999243
96.99999336
96.97457649
96.97614985
96.9777249
96.97926336
96.98087671
96.98257826
96.98415104
96.98562027
96.98717432
96.98871588
96.98995445
96.99125627
96.9925445
96.99352175
96.99455051
96.99545516
96.99618986
96.99696278
96.99747797
96.99801147
96.99841577
96.99877164
96.99905361
96.99928486
96.99946208
96.99960906
96.99970936
96.99979789
96.99985134
96.99989587
96.99992837
96.99994809
96.99996345
96.99997428
96.9999808
96.99998533
96.99998852
96.99999072
96.99999219
96.99999316
96.97407068
96.97564475
96.97727857
96.97888326
96.98049661
96.98217288
96.98384096
96.98535102
96.98690508
96.98840509
96.9897727
96.99107452
96.99231968
96.99340387
96.99443263
96.99536707
96.99611591
96.99683784
96.99743283
96.99795472
96.99838882
96.99874469
96.99903779
96.9992686
96.99945288
96.9995957
96.99970401
96.99978863
96.9998482
96.99989397
96.99992505
96.99994689
96.99996265
96.99997316
96.9999802
96.9999849
96.99998818
96.99999043
96.99999189
96.99999286
96.97356509
96.97514185
96.97677566
96.97846859
96.98011504
96.98172486
96.98339294
96.98508177
96.98656927
96.98804392
96.98957192
96.99084281
96.99204958
96.993286
96.99424573
96.99517667
96.99604196
96.99670987
96.9973877
96.99787203
96.99834018
96.99869305
96.99900282
96.99923706
96.99943655
96.99957686
96.99969866
96.99977753
96.99984408
96.99988959
96.99992123
96.99994554
96.99996137
96.99997176
96.9999793
96.99998446
96.99998783
96.99999002
96.99999152
96.99999254
96.97310269
96.97467945
96.97631326
96.97800619
96.97978041
96.98139024
96.98305832
96.98477009
96.98633953
96.98781418
96.98934218
96.99069176
96.99189853
96.99313998
96.99414991
96.99508084
96.99597832
96.99665087
96.99733074
96.99783656
96.99830471
96.99867212
96.99898189
96.99922486
96.99942435
96.99956978
96.9996924
96.99977339
96.99984161
96.99988712
96.99991971
96.99994454
96.99996037
96.99997107
96.99997878
96.99998406
96.99998743
96.99998968
96.99999122
96.99999227
96.97255518
96.97425755
96.97589137
96.97758649
96.97936588
96.98116901
96.98283709
96.98447365
96.98618654
96.98771587
96.98915303
96.99058678
96.99186651
96.99301042
96.99414248
96.9950796
96.9958971
96.99666083
96.9972812
96.99784833
96.99829123
96.99868185
96.99897905
96.99923201
96.99941974
96.99957446
96.9996865
96.99977622
96.99983959
96.99988699
96.99992046
96.99994344
96.99995985
96.99997107
96.99997865
96.99998356
96.99998702
96.99998942
96.999991
96.99999204
96.97199743
96.97373334
96.97547088
96.97716765
96.97894703
96.98082373
96.98255783
96.9841772
96.98589009
96.98758902
96.9889531
96.99038685
96.99180548
96.99288087
96.99401292
96.9950081
96.99581589
96.99666569
96.99723166
96.99781774
96.99826166
96.99865228
96.99896168
96.99921532
96.99940962
96.99957071
96.9996806
96.99977758
96.99983611
96.99988487
96.99992048
96.99994209
96.99995894
96.99997086
96.99997805
96.99998306
96.99998662
96.99998907
96.99999071
96.9999918
96.97143969
96.97317635
96.97497877
96.97674881
96.97852819
96.98037689
96.98221624
96.98388076
96.98559365
96.9872466
96.98875318
96.99018692
96.99155796
96.99275131
96.99388337
96.99491131
96.99573468
96.9965283
96.99718212
96.99775542
96.99823209
96.99862271
96.9989443
96.99919746
96.9993995
96.99955604
96.9996747
96.9997674
96.99983263
96.99988275
96.9999168
96.99994074
96.99995803
96.99996959
96.99997736
96.99998256
96.99998621
96.99998872
96.99999036
96.99999144
96.97088217
96.97262165
96.97442408
96.97629172
96.97810771
96.97988283
96.98172219
96.98358431
96.98522363
96.98684854
96.98853224
96.98993184
96.9912605
96.99262176
96.9936777
96.99470178
96.99565346
96.99638759
96.99713258
96.99766454
96.99817866
96.99856599
96.9989059
96.99916282
96.99938156
96.99953534
96.99966881
96.99975519
96.99982808
96.99987791
96.99991258
96.99993922
96.9999566
96.99996802
96.99997634
96.99998205
96.9999858
96.99998824
96.99998992
96.99999106
96.97037242
96.9721119
96.97391432
96.97578197
96.97773913
96.97951424
96.9813536
96.98324105
96.98497081
96.98659571
96.98827941
96.98976576
96.99109442
96.99246122
96.99357244
96.99459652
96.99558359
96.99632282
96.99707006
96.99762562
96.99813974
96.99854302
96.99888293
96.99914942
96.99936816
96.99952754
96.9996619
96.99975061
96.99982533
96.99987517
96.99991086
96.99993808
96.99995546
96.99996722
96.99997573
96.99998157
96.99998533
96.99998783
96.99998956
96.99999072
96.9697686
96.97164708
96.97344951
96.97531945
96.97728226
96.97927113
96.98111048
96.98291461
96.98480281
96.98648812
96.98807138
96.98965057
96.99105972
96.99231882
96.99356462
96.99459553
96.99549439
96.99633398
96.99701568
96.99763866
96.99812499
96.99855373
96.99887982
96.99915726
96.99936308
96.99953265
96.99965539
96.99975367
96.99982307
96.99987498
96.99991164
96.99993682
96.99995484
96.99996719
96.99997555
96.999981
96.99998484
96.99998752
96.99998929
96.99999044
96.96915345
96.97106904
96.97298617
96.97485783
96.97682064
96.97889084
96.98080307
96.98258817
96.98447637
96.98634898
96.98785143
96.98943062
96.99099299
96.99217642
96.99342222
96.99451704
96.9954052
96.99633954
96.9969613
96.99760512
96.99809253
96.99852128
96.99886074
96.99913892
96.99935195
96.99952851
96.99964888
96.99975513
96.99981921
96.99987261
96.99991161
96.9999353
96.9999538
96.99996692
96.99997486
96.99998041
96.99998436
96.9999871
96.99998895
96.99999015
96.96853831
96.97045469
96.97244347
96.9743962
96.97635902
96.97839821
96.98042673
96.98226173
96.98414994
96.98597164
96.98763149
96.98921067
96.99072044
96.99203402
96.99327982
96.99441068
96.995316
96.99618846
96.99690692
96.99753668
96.99806008
96.99848882
96.99884167
96.99911932
96.99934082
96.99951238
96.99964238
96.99974391
96.99981534
96.99987024
96.99990753
96.99993378
96.99995276
96.99996548
96.99997406
96.99997982
96.99998388
96.99998668
96.99998852
96.99998971
96.9679234
96.96984273
96.97183151
96.97389226
96.97589558
96.97785326
96.97988178
96.9819353
96.98374215
96.98553284
96.98738833
96.98892982
96.99039279
96.99189162
96.99305347
96.99418007
96.99522681
96.99603372
96.99685254
96.99743681
96.99800139
96.99842652
96.99879948
96.99908127
96.99932111
96.99948964
96.99963587
96.99973048
96.99981031
96.99986488
96.99990286
96.99993206
96.99995114
96.99996372
96.99997289
96.99997923
96.9999834
96.99998612
96.99998799
96.99998925
96.96736133
96.96928066
96.97126944
96.97333018
96.97548951
96.97744719
96.97947571
96.98155718
96.98346389
96.98525457
96.98711006
96.9887472
96.99021017
96.99171511
96.99293783
96.99406443
96.99515009
96.99596261
96.9967839
96.99739409
96.99795867
96.9984013
96.99877427
96.99906654
96.99930638
96.99948104
96.99962825
96.99972541
96.99980724
96.99986182
96.99990093
96.99993077
96.99994984
96.9999628
96.99997219
96.99997866
96.99998284
96.99998563
96.99998756
96.99998885
96.96669525
96.96876846
96.97075724
96.97282037
96.9749859
96.97718
96.97920852
96.98119765
96.98327941
96.98513683
96.98688123
96.98862079