/*--------------------------------*- C++ -*----------------------------------*\
| =========                 |                                                 |
| \\      /  F ield         | OpenFOAM: The Open Source CFD Toolbox           |
|  \\    /   O peration     | Version:  v2006                                 |
|   \\  /    A nd           | Website:  www.openfoam.com                      |
|    \\/     M anipulation  |                                                 |
\*---------------------------------------------------------------------------*/
FoamFile
{
    version     2.0;
    format      ascii;
    class       volScalarField;
    location    "0.09";
    object      C2H6;
}
// * * * * * * * * * * * * * * * * * * * * * * * * * * * * * * * * * * * * * //

dimensions      [0 0 0 0 0 0 0];


internalField   nonuniform List<scalar> 
72000
(
0.001563661579
0.001563862821
0.001564242983
0.001564784652
0.001565470345
0.001566283483
0.001567208636
0.001568231624
0.001569339882
0.001570522024
0.001571767427
0.001573065984
0.001574410108
0.001575793916
0.001577211649
0.001578657967
0.001580127979
0.001581617309
0.001583122139
0.001584639197
0.001586165643
0.001587699031
0.001589237218
0.001590778227
0.001592320199
0.001593861285
0.001595399544
0.001596932879
0.001598459046
0.001599975769
0.00160148095
0.001602972975
0.001604450956
0.001605914685
0.001607364323
0.001608800081
0.001610222039
0.001611630117
0.001613024199
0.001614404311
0.001615770757
0.001617124084
0.001618464947
0.00161979392
0.001621111327
0.001622417161
0.001623711059
0.001624992338
0.001626260062
0.001627513135
0.001628750569
0.001629971853
0.001631176947
0.001632365988
0.001633538974
0.00163469505
0.001635806325
0.001636904627
0.001637991297
0.001639067047
0.001640132211
0.001641186884
0.001642231025
0.001643264518
0.001644287191
0.001645298794
0.001646299164
0.001647288082
0.001648265332
0.001649230802
0.001650184575
0.001651126966
0.001652058504
0.001652979871
0.001653891828
0.001654795153
0.001655690583
0.001656578732
0.001657460026
0.001658334677
0.001659202697
0.001660063939
0.001660918153
0.001661765047
0.001662604363
0.001663435929
0.001664259702
0.001665075796
0.00166588447
0.001666686107
0.001667481153
0.001668270101
0.001669053412
0.001669831486
0.001670604645
0.001671373129
0.001672137115
0.001672896743
0.001673652101
0.001674403307
0.001675150461
0.001675893683
0.001676633127
0.001677369001
0.001678101594
0.00167883128
0.001679558526
0.001680283873
0.001681007914
0.001681731267
0.001682454552
0.001683178359
0.001683903231
0.001684629639
0.001685357971
0.001686088533
0.001686821549
0.001687557178
0.001688295521
0.001689036631
0.001689780507
0.001690527068
0.001691276081
0.001692027102
0.001692780098
0.001693534989
0.001694291715
0.001695052071
0.001695817219
0.001696588017
0.001697365174
0.001698149316
0.001698941015
0.001699740802
0.001700549171
0.001701366591
0.001702193507
0.001703030345
0.001703877526
0.001704735461
0.001705604656
0.001706485589
0.001707378677
0.001708284197
0.001709192566
0.001710102789
0.001711026738
0.001711965252
0.001712919012
0.001713888604
0.001714874557
0.001715877359
0.001716897469
0.001717935325
0.00171899135
0.001720065956
0.001721159557
0.001722272575
0.001723405449
0.001724558639
0.001725732628
0.00172692792
0.001728145035
0.001729384507
0.001730646879
0.001731932708
0.001733242559
0.001734577013
0.001735936661
0.001737322106
0.001738733959
0.001740172838
0.001741639358
0.001743134129
0.001744657747
0.001746210775
0.001747793714
0.00174940694
0.001751050601
0.001752723537
0.001754421655
0.001756132944
0.001757798777
0.001759422919
0.001761059437
0.001762720453
0.001764409863
0.00176612916
0.00176787909
0.001769660185
0.001771472941
0.001773317886
0.001775195591
0.001777106621
0.001779051452
0.001781030483
0.001783044083
0.001785092634
0.001787176427
0.001789295443
0.001791449438
0.001793638072
0.001795860697
0.001798077913
0.001800324709
0.001802606014
0.001804922169
0.00180727304
0.001809657863
0.001812075492
0.00181452813
0.001817017595
0.001819545576
0.001822113419
0.001824722238
0.001827373615
0.001830071261
0.001832825773
0.001835630919
0.001838482745
0.001841380232
0.001844323027
0.001847311027
0.001850344327
0.001853423166
0.001856547889
0.001859718805
0.001862935945
0.001866198626
0.001869506129
0.001872860931
0.001876264218
0.001879716021
0.001883215423
0.001886760625
0.00189034755
0.00189396688
0.001897593093
0.001900888355
0.001904087011
0.001907308238
0.001910570471
0.001913882938
0.001917250512
0.00192067444
0.001924151838
0.001927690147
0.001931293189
0.001934961986
0.001938700793
0.001942517491
0.001946417327
0.001950402759
0.001954475441
0.001958637363
0.001962891737
0.001967245847
0.001971718673
0.001976243025
0.001980817778
0.001985528216
0.001990383858
0.001995402179
0.002000603241
0.002006014884
0.002011644531
0.002017503756
0.002023610721
0.002029947305
0.002036552329
0.002043225188
0.002050231296
0.002057611812
0.002065406727
0.002073663511
0.002082399166
0.00209166513
0.002101419677
0.002111616236
0.002122601931
0.002134465006
0.002147346076
0.002161268208
0.002176326732
0.002193033743
0.002211636123
0.002232430993
0.002255435452
0.002280982609
0.002310138907
0.002343381664
0.002380430917
0.002423420634
0.002473182479
0.002531090606
0.002599119917
0.002679658887
0.002775382108
0.002889621342
0.003025020221
0.003185483707
0.003367369559
0.003563062884
0.003756758991
0.003968522767
0.00446593669
0.002749775813
0.001136878624
0.000495003306
0.0002543913287
0.0001412626411
8.117453431e-05
4.684552485e-05
2.690694455e-05
1.731318664e-05
1.100484365e-05
7.302862993e-06
4.949341842e-06
3.603607284e-06
2.763481865e-06
2.16523082e-06
1.716747056e-06
1.369865726e-06
1.096765776e-06
8.795437608e-07
7.05743014e-07
5.662809176e-07
4.542270192e-07
3.641388039e-07
2.917184364e-07
2.335175518e-07
1.867699088e-07
1.492483827e-07
1.191539241e-07
9.503789432e-08
7.572954412e-08
6.028455951e-08
4.794190383e-08
3.80878265e-08
3.022832653e-08
2.396594715e-08
1.898110501e-08
1.501718417e-08
1.186828667e-08
9.369385572e-09
7.388365695e-09
5.819562562e-09
4.578527793e-09
3.597850227e-09
2.823767472e-09
2.213442108e-09
1.732783182e-09
1.354684885e-09
1.057621259e-09
8.245128812e-10
6.418237812e-10
4.988368541e-10
3.870760433e-10
2.998451161e-10
2.318597561e-10
1.789548216e-10
1.378510706e-10
1.059696922e-10
8.128525302e-11
6.220888038e-11
4.749578918e-11
3.617200579e-11
2.747650354e-11
2.081556443e-11
1.572659475e-11
1.184975031e-11
8.905587528e-12
6.677408999e-12
4.997559079e-12
3.736489212e-12
2.79436263e-12
2.094362481e-12
1.577595413e-12
1.198915824e-12
9.239056202e-13
7.264030009e-13
5.864617898e-13
4.891054769e-13
4.230924043e-13
3.800774313e-13
3.540777242e-13
3.417861169e-13
3.417861169e-13
3.417861169e-13
3.417861169e-13
3.417861169e-13
3.417861169e-13
3.417861169e-13
3.417861169e-13
3.417861169e-13
3.417861169e-13
3.417861169e-13
3.417861169e-13
3.417861169e-13
3.417861169e-13
3.427666431e-13
3.445082792e-13
3.463303255e-13
3.481260991e-13
3.499000585e-13
3.516722664e-13
3.537585556e-13
3.55781265e-13
3.572028576e-13
3.581795143e-13
3.588972964e-13
3.594310984e-13
3.597429247e-13
3.599398608e-13
3.599975174e-13
3.600778185e-13
3.600550721e-13
3.600707845e-13
3.599867645e-13
3.599156483e-13
3.598194397e-13
3.597350932e-13
3.596752601e-13
3.596462009e-13
3.596314645e-13
3.595329546e-13
3.594385335e-13
3.593821309e-13
3.59366432e-13
3.59365642e-13
3.592632667e-13
3.590910927e-13
3.589960556e-13
3.589483738e-13
3.589100071e-13
3.588821711e-13
3.588693887e-13
3.587730935e-13
3.587302323e-13
3.587059428e-13
3.58708063e-13
3.587206554e-13
3.586248235e-13
3.585702809e-13
3.585557757e-13
3.584574391e-13
3.583896948e-13
3.582732209e-13
3.582385885e-13
3.582354177e-13
3.582490523e-13
3.581538356e-13
3.581064507e-13
3.580512133e-13
3.580228266e-13
3.579124976e-13
3.578460492e-13
3.578123074e-13
3.57824039e-13
3.578716612e-13
3.578396059e-13
3.577232848e-13
3.57701767e-13
3.577361803e-13
3.57687095e-13
3.575688844e-13
3.57513987e-13
3.574917526e-13
3.57501182e-13
3.573992341e-13
3.573165446e-13
3.572489815e-13
3.572313856e-13
3.571425369e-13
3.570326555e-13
3.568683484e-13
3.567298865e-13
3.566991545e-13
3.566775712e-13
3.566533462e-13
3.565488941e-13
3.564911235e-13
3.564541028e-13
3.564554406e-13
3.563651379e-13
3.563047835e-13
3.562559729e-13
3.562053605e-13
3.561928818e-13
3.560856e-13
3.560257014e-13
3.560136642e-13
3.559315614e-13
3.559070321e-13
3.557870771e-13
3.557184861e-13
3.556603248e-13
3.556322643e-13
3.55616298e-13
3.55619938e-13
3.556260746e-13
3.555402807e-13
3.554502306e-13
3.553551143e-13
3.552790253e-13
3.552200023e-13
3.55150333e-13
3.551056256e-13
3.549902447e-13
3.549491779e-13
3.549329934e-13
3.548252481e-13
3.54789124e-13
3.546908879e-13
3.545255386e-13
3.544125161e-13
3.543287985e-13
3.542751384e-13
3.542296346e-13
3.540864251e-13
3.540023378e-13
3.538542934e-13
3.537529884e-13
3.536580673e-13
3.535969093e-13
3.535635868e-13
3.535505219e-13
3.5345757e-13
3.534063488e-13
3.532831731e-13
3.532262562e-13
3.532395644e-13
3.531748092e-13
3.53043693e-13
3.528495381e-13
3.527601523e-13
3.526247292e-13
3.524317613e-13
3.523202944e-13
3.522683559e-13
3.521306614e-13
3.520585743e-13
3.520422879e-13
3.519328552e-13
3.517366451e-13
3.516341955e-13
3.514815396e-13
3.512777294e-13
3.511133777e-13
3.509767021e-13
3.508359812e-13
3.507086498e-13
3.506045652e-13
3.50498201e-13
3.503984663e-13
3.502901406e-13
3.501895656e-13
3.499570226e-13
3.497582276e-13
3.496175353e-13
3.495260072e-13
3.493725994e-13
3.492907917e-13
3.492197677e-13
3.490365846e-13
3.488826183e-13
3.48655836e-13
3.484835444e-13
3.483755214e-13
3.482042648e-13
3.479973993e-13
3.477406387e-13
3.475322242e-13
3.473452474e-13
3.471755106e-13
3.470206976e-13
3.468938138e-13
3.46678264e-13
3.464959193e-13
3.463184819e-13
3.461687274e-13
3.459321598e-13
3.457397984e-13
3.455972596e-13
3.453809932e-13
3.452060741e-13
3.450231722e-13
3.448385912e-13
3.446833867e-13
3.444290797e-13
3.442308697e-13
3.440028847e-13
3.437188819e-13
3.435160973e-13
3.432389918e-13
3.430222321e-13
3.428191076e-13
3.425164972e-13
3.422125837e-13
3.41928342e-13
0.001337059555
0.001337409171
0.001338036885
0.001338894482
0.001339940918
0.001341143989
0.001342477891
0.00134392178
0.001345459256
0.00134707634
0.001348761121
0.001350503367
0.001352294438
0.001354126792
0.001355993646
0.001357889776
0.001359810466
0.001361751409
0.00136370875
0.001365679066
0.001367659329
0.001369647347
0.001371641604
0.00137364059
0.0013756427
0.001377646118
0.001379648687
0.001381647796
0.001383640364
0.001385622996
0.00138759238
0.001389545986
0.001391482839
0.001393403427
0.001395308868
0.001397200229
0.001399078181
0.00140094297
0.001402794629
0.001404633307
0.001406459488
0.00140827393
0.001410077432
0.001411870567
0.001413653469
0.001415425735
0.00141718642
0.001418934084
0.001420666883
0.001422382647
0.001424051777
0.001425675618
0.001427279514
0.001428864112
0.001430430501
0.001431979882
0.001433513574
0.001435033502
0.00143654103
0.001438036935
0.001439521508
0.001440994689
0.001442456177
0.001443905489
0.001445341935
0.001446764558
0.001448173056
0.00144956692
0.001450945505
0.001452308321
0.001453655339
0.001454986969
0.001456303931
0.001457607132
0.001458897551
0.001460176204
0.001461444109
0.001462702132
0.001463950833
0.001465190412
0.001466420734
0.001467641401
0.001468851838
0.001470051398
0.001471239462
0.00147241554
0.00147357934
0.001474730811
0.001475870141
0.001476997737
0.001478114116
0.001479219886
0.001480315601
0.001481401729
0.001482478603
0.001483546426
0.001484605282
0.001485655174
0.001486696043
0.001487727803
0.001488750346
0.001489763563
0.001490767374
0.001491761763
0.001492746828
0.00149372287
0.001494690483
0.001495650376
0.001496603304
0.001497550021
0.001498491248
0.001499427641
0.001500359764
0.001501288062
0.001502212846
0.001503134295
0.001504052467
0.001504967318
0.001505878724
0.001506786498
0.001507690403
0.001508590144
0.001509485323
0.001510360381
0.001511220353
0.001512075915
0.001512927541
0.001513776093
0.001514622428
0.001515467294
0.001516311347
0.001517155177
0.001517999318
0.001518844242
0.001519690366
0.001520538055
0.001521387627
0.001522239358
0.001523093484
0.001523950246
0.001524810144
0.001525673654
0.001526541179
0.00152741302
0.001528289359
0.001529170606
0.001530057494
0.001530950799
0.001531851128
0.001532758996
0.001533674839
0.00153459901
0.001535531824
0.001536473574
0.001537424534
0.001538384964
0.001539355124
0.001540335281
0.00154132572
0.001542326755
0.001543338728
0.001544362006
0.00154539698
0.001546444063
0.001547503692
0.001548576326
0.001549662437
0.001550762491
0.001551876953
0.001553006291
0.001554150977
0.001555311493
0.001556488293
0.00155768184
0.001558892593
0.00156012095
0.001561367265
0.001562631772
0.001563904745
0.001565173059
0.001566460171
0.001567772368
0.001569141115
0.001570565227
0.001572017638
0.00157349424
0.001574994917
0.001576520105
0.00157807028
0.001579645919
0.001581247548
0.001582875779
0.001584531342
0.001586214995
0.001587927262
0.001589668532
0.001591439179
0.001593239776
0.001595071879
0.001596934752
0.001598827484
0.00160074969
0.00160270103
0.001604681182
0.001606690712
0.001608730212
0.001610800139
0.001612900709
0.001615031881
0.001617193651
0.001619365516
0.001621550024
0.001623770058
0.001626027396
0.001628322981
0.001630657503
0.001633031604
0.001635387631
0.001637771068
0.001640196752
0.001642665859
0.001645177213
0.001647730946
0.001650327565
0.001652967821
0.001655652719
0.001658383352
0.00166116054
0.001663984812
0.001666856747
0.001669778294
0.001672750999
0.001675775353
0.001678850287
0.001681975058
0.001685147075
0.001688274256
0.001691417496
0.001694588402
0.001697796289
0.00170105803
0.001704388787
0.001707800364
0.001711303186
0.001714902603
0.001718601544
0.001722406948
0.001726326178
0.001730307495
0.001734360496
0.001738554706
0.001742908786
0.001747422812
0.001752102392
0.001756951843
0.001761903509
0.001767041451
0.001772283382
0.00177759165
0.001783031645
0.001788698346
0.001794640954
0.001800905763
0.001807529466
0.001814384945
0.001821622906
0.001829327617
0.001837545031
0.001846318146
0.001855598791
0.001865346693
0.001875824964
0.00188713624
0.001899159553
0.001911894901
0.001925742426
0.001940880461
0.00195739681
0.001975309581
0.001995045506
0.00201639656
0.002039897032
0.002066192498
0.002095487081
0.002127638749
0.002164043381
0.002204746066
0.002250735224
0.002302672915
0.002362136119
0.002429426834
0.00250628603
0.002594721311
0.002695982745
0.002813234516
0.002948546439
0.003105145841
0.003286131911
0.003494240171
0.003733974626
0.004007099904
0.004316161197
0.004644754287
0.004888053208
0.004811410681
0.004024477744
0.00198838779
0.0009826304733
0.0004910008443
0.0002835981428
0.0001710920513
0.0001053033899
6.447266083e-05
3.674824133e-05
2.184089056e-05
1.371247061e-05
8.920338127e-06
5.934475325e-06
3.988673982e-06
2.835574767e-06
2.23829022e-06
1.780068214e-06
1.421584841e-06
1.137890779e-06
9.118605465e-07
7.309061699e-07
5.857850623e-07
4.693286871e-07
3.758024423e-07
3.007263676e-07
2.404672215e-07
1.921267556e-07
1.533771185e-07
1.223312547e-07
9.748208826e-08
7.760805166e-08
6.172644817e-08
4.90478243e-08
3.893494971e-08
3.087638667e-08
2.446114593e-08
1.935893977e-08
1.530505882e-08
1.208728063e-08
9.53568114e-09
7.514397007e-09
5.914891501e-09
4.650472998e-09
3.652018897e-09
2.864451558e-09
2.243911234e-09
1.755533183e-09
1.371612246e-09
1.070168342e-09
8.337731351e-10
6.486253783e-10
5.0380531e-10
3.906826026e-10
3.024439235e-10
2.337161559e-10
1.80267001e-10
1.387667093e-10
1.065982324e-10
8.170762032e-11
6.248458546e-11
4.766834125e-11
3.627301703e-11
2.752884704e-11
2.083554962e-11
1.572578555e-11
1.183624985e-11
8.884961767e-12
6.653428462e-12
4.972660911e-12
3.712220632e-12
2.771660854e-12
2.073698505e-12
1.559169387e-12
1.182738257e-12
9.098483333e-13
7.142532657e-13
5.760024194e-13
4.80112915e-13
4.152359344e-13
3.729892366e-13
3.4714e-13
3.417861169e-13
3.417861169e-13
3.417861169e-13
3.417861169e-13
3.417861169e-13
3.417861169e-13
3.417861169e-13
3.417861169e-13
3.417861169e-13
3.417861169e-13
3.417861169e-13
3.417861169e-13
3.417861169e-13
3.417861169e-13
3.419619046e-13
3.439791645e-13
3.459040721e-13
3.477531871e-13
3.495038992e-13
3.511243628e-13
3.526365514e-13
3.548135572e-13
3.562980299e-13
3.573685449e-13
3.581021727e-13
3.586942637e-13
3.590483095e-13
3.59238492e-13
3.593256917e-13
3.593949557e-13
3.593881328e-13
3.593919986e-13
3.593694689e-13
3.593376173e-13
3.592236724e-13
3.591364543e-13
3.590648906e-13
3.5904967e-13
3.589962581e-13
3.589694789e-13
3.588431648e-13
3.587871681e-13
3.587856254e-13
3.587665322e-13
3.586422727e-13
3.584910312e-13
3.584175839e-13
3.584030347e-13
3.583633727e-13
3.583270259e-13
3.582652761e-13
3.581935454e-13
3.581827749e-13
3.58153166e-13
3.581601636e-13
3.581489379e-13
3.58062523e-13
3.580057877e-13
3.579673992e-13
3.579087243e-13
3.57778226e-13
3.576855492e-13
3.57687769e-13
3.576807983e-13
3.576931588e-13
3.575940999e-13
3.575542424e-13
3.575196608e-13
3.574461785e-13
3.573724643e-13
3.57317075e-13
3.572737945e-13
3.572839694e-13
3.572917564e-13
3.572858065e-13
3.571817398e-13
3.571466303e-13
3.571601848e-13
3.571083207e-13
3.570201752e-13
3.569811207e-13
3.569637497e-13
3.569634733e-13
3.568965118e-13
3.568154371e-13
3.567145393e-13
3.566663945e-13
3.565277392e-13
3.564576784e-13
3.563522198e-13
3.56252819e-13
3.562221953e-13
3.562051567e-13
3.56113082e-13
3.560466918e-13
3.560017172e-13
3.559545425e-13
3.559333718e-13
3.558744727e-13
3.558343688e-13
3.558005545e-13
3.557112953e-13
3.556751216e-13
3.555938952e-13
3.55531218e-13
3.554842315e-13
3.554248399e-13
3.553996084e-13
3.553056872e-13
3.552751288e-13
3.552064811e-13
3.551838343e-13
3.551689101e-13
3.551720142e-13
3.551190286e-13
3.551018236e-13
3.550182811e-13
3.549040159e-13
3.548373287e-13
3.547925491e-13
3.547083044e-13
3.546024708e-13
3.545227781e-13
3.544938695e-13
3.54449452e-13
3.543384217e-13
3.542824311e-13
3.541895586e-13
3.54075929e-13
3.539804364e-13
3.539023066e-13
3.538666023e-13
3.537724783e-13
3.536337575e-13
3.535269962e-13
3.534262997e-13
3.533665161e-13
3.532550802e-13
3.53186562e-13
3.53159391e-13
3.531116735e-13
3.530361281e-13
3.529530485e-13
3.52852288e-13
3.527851013e-13
3.527823778e-13
3.527111018e-13
3.525811593e-13
3.523927744e-13
3.522920697e-13
3.521738506e-13
3.520147404e-13
3.519207233e-13
3.518552869e-13
3.517220514e-13
3.516583233e-13
3.516361378e-13
3.515213285e-13
3.51314431e-13
3.511985999e-13
3.510565549e-13
3.509169051e-13
3.508133625e-13
3.50662141e-13
3.505138797e-13
3.503800932e-13
3.502798302e-13
3.501824406e-13
3.501010744e-13
3.499704725e-13
3.498591215e-13
3.496389131e-13
3.494387882e-13
3.492763773e-13
3.491582738e-13
3.490262458e-13
3.489972991e-13
3.488887783e-13
3.487333516e-13
3.485319893e-13
3.483414316e-13
3.481620484e-13
3.480257924e-13
3.478327379e-13
3.476475349e-13
3.474572583e-13
3.472770634e-13
3.470939887e-13
3.469260474e-13
3.467701638e-13
3.466042566e-13
3.46426183e-13
3.462760311e-13
3.460775268e-13
3.458964934e-13
3.456837311e-13
3.454976167e-13
3.453291181e-13
3.451537657e-13
3.450230168e-13
3.448487863e-13
3.446323188e-13
3.444623074e-13
3.442059255e-13
3.439596754e-13
3.437607644e-13
3.435042296e-13
3.433116801e-13
3.430622887e-13
3.428824119e-13
3.426770601e-13
3.424193754e-13
3.421212053e-13
3.418831349e-13
0.001158064771
0.001158535948
0.001159384983
0.00116054048
0.001161942546
0.001163542885
0.001165304007
0.00116719821
0.001169204302
0.001171304839
0.00117348539
0.001175734119
0.001178040772
0.001180395753
0.00118278927
0.00118521666
0.001187672659
0.001190152294
0.001192651124
0.001195165174
0.001197646855
0.001200092424
0.001202545953
0.00120500622
0.001207471784
0.001209940873
0.001212411159
0.001214879532
0.001217341966
0.001219793617
0.001222229312
0.001224644749
0.00122703874
0.001229413039
0.001231770182
0.001234112283
0.001236440518
0.001238755141
0.001241055907
0.001243342749
0.00124561634
0.00124787786
0.001250128605
0.001252369484
0.001254600695
0.001256821621
0.001259030859
0.001261226313
0.001263405337
0.001265564945
0.001267702144
0.001269814801
0.001271901834
0.001273964321
0.001276004592
0.001278025072
0.001280028115
0.001282015852
0.001283989782
0.001285950691
0.001287898747
0.001289833658
0.001291754853
0.001293661577
0.001295552805
0.001297370612
0.001299163293
0.001300938176
0.001302693977
0.001304429567
0.001306144831
0.001307840356
0.001309517177
0.001311176533
0.00131281969
0.001314447947
0.001316062774
0.001317665464
0.001319256803
0.001320837001
0.001322405768
0.001323962428
0.001325506049
0.001327035582
0.001328550013
0.001330048511
0.001331530539
0.001332995918
0.001334444837
0.001335877812
0.001337295561
0.001338698902
0.001340088588
0.001341465215
0.001342829175
0.001344180652
0.001345519655
0.001346846073
0.001348159723
0.001349460376
0.001350747766
0.001352021599
0.0013532816
0.001354527554
0.001355759371
0.001356977253
0.001358182053
0.001359374722
0.001360556231
0.001361727533
0.001362889519
0.001364042993
0.001365188626
0.001366326915
0.001367458165
0.001368582492
0.001369699845
0.001370810039
0.001371912785
0.001373007731
0.001374094495
0.001375172696
0.001376242008
0.001377302247
0.001378353462
0.001379395904
0.001380430016
0.001381456558
0.001382476325
0.001383490053
0.001384498423
0.001385502088
0.001386501643
0.001387497599
0.001388490389
0.001389480369
0.001390467834
0.001391453013
0.001392436025
0.001393389113
0.001394340755
0.00139529178
0.001396242693
0.001397193948
0.001398145986
0.001399097262
0.001400045227
0.00140099547
0.00140194855
0.001402905012
0.001403865347
0.001404829758
0.001405798506
0.001406771839
0.001407749979
0.001408733133
0.001409721499
0.001410715285
0.00141171473
0.00141272011
0.001413731745
0.001414749996
0.001415775247
0.001416807915
0.00141784845
0.001418897348
0.001419955119
0.001421022248
0.0014220992
0.001423186463
0.00142428452
0.001425393881
0.00142651502
0.001427648429
0.0014287946
0.001429953977
0.001431126989
0.00143231403
0.001433515484
0.001434732182
0.001435966527
0.001437223011
0.001438508198
0.001439822426
0.001441160721
0.001442520322
0.00144390034
0.00144530067
0.001446721523
0.001448163265
0.001449626383
0.001451111518
0.001452619621
0.001454152511
0.001455710279
0.001457292917
0.001458900566
0.001460533138
0.00146216109
0.001463801745
0.001465466426
0.001467155083
0.001468867613
0.001470603982
0.001472364467
0.001474149448
0.001475959508
0.0014777952
0.001479657039
0.001481545708
0.001483462395
0.001485408932
0.001487387793
0.001489402406
0.001491451678
0.001493534977
0.001495650492
0.001497791681
0.00149996444
0.001502140321
0.001504311029
0.001506518987
0.001508765226
0.001511050567
0.00151337603
0.00151574317
0.00151815392
0.001520609812
0.001523112242
0.00152562503
0.001528175792
0.001530777968
0.001533432761
0.001536084396
0.00153876147
0.001541488443
0.001544265998
0.001547090358
0.001549962781
0.001552892409
0.001555891766
0.001558972788
0.001562146637
0.001565367209
0.001568676884
0.001572102181
0.001575650127
0.001579330409
0.001583155293
0.001587136998
0.001591288582
0.001595514249
0.001599923719
0.001604534906
0.001609359747
0.001614407363
0.001619688887
0.001625093786
0.001630703233
0.001636592251
0.001642814807
0.001649418859
0.001656332626
0.001663631263
0.00167144158
0.001679633414
0.001688419366
0.001697801482
0.001707931138
0.00171886916
0.001730606924
0.001743289991
0.001757114735
0.001772146002
0.001788509441
0.001806053642
0.001825223277
0.001846324611
0.001869740365
0.001895429472
0.001923446368
0.001954597741
0.001989686328
0.002028100412
0.002071509813
0.002119635882
0.002173948351
0.002234669323
0.002303223862
0.002380933554
0.002468837752
0.002568331095
0.002681720204
0.002810996157
0.00295839081
0.003126849263
0.003318014962
0.00353522979
0.003783415418
0.004063465002
0.004379134304
0.004720910056
0.004995166369
0.004963350837
0.004424021894
0.00332818102
0.001991580829
0.001166069965
0.0006871032397
0.0004331334269
0.0002817392669
0.0001860768548
0.0001216667388
7.238991141e-05
4.377948389e-05
2.745426908e-05
1.768594632e-05
1.152710796e-05
7.51227259e-06
4.872128389e-06
3.092171892e-06
2.18453071e-06
1.739198875e-06
1.387411598e-06
1.108350193e-06
8.857141799e-07
7.078793064e-07
5.657002495e-07
4.518556098e-07
3.607803266e-07
2.878843024e-07
2.295534693e-07
1.829248216e-07
1.456402795e-07
1.158658188e-07
9.210108825e-08
7.314376312e-08
5.803854467e-08
4.600991876e-08
3.643993251e-08
2.883352519e-08
2.279262269e-08
1.799965901e-08
1.420034702e-08
1.119138976e-08
8.810641861e-09
6.928881363e-09
5.44296437e-09
4.270827751e-09
3.347210455e-09
2.620158225e-09
2.048481211e-09
1.599461808e-09
1.247192523e-09
9.711521606e-10
7.551116541e-10
5.862438056e-10
4.544212355e-10
3.516576779e-10
2.716604241e-10
2.094779625e-10
1.612184691e-10
1.238252161e-10
9.490177091e-11
7.257028641e-11
5.536189368e-11
4.212862076e-11
3.197475445e-11
2.420223606e-11
1.826787178e-11
1.374964651e-11
1.032009223e-11
7.725632716e-12
5.770231058e-12
4.30254006e-12
3.206079169e-12
2.391293766e-12
1.789520907e-12
1.348204357e-12
1.027305751e-12
7.963298983e-13
6.321494052e-13
5.173095367e-13
4.385961185e-13
3.861889213e-13
3.526704669e-13
3.417861169e-13
3.417861169e-13
3.417861169e-13
3.417861169e-13
3.417861169e-13
3.417861169e-13
3.417861169e-13
3.417861169e-13
3.417861169e-13
3.417861169e-13
3.417861169e-13
3.417861169e-13
3.417861169e-13
3.417861169e-13
3.417861169e-13
3.423872027e-13
3.445363033e-13
3.465008587e-13
3.482479086e-13
3.49791465e-13
3.511194267e-13
3.522376852e-13
3.540602181e-13
3.555660855e-13
3.566244217e-13
3.57413929e-13
3.579686373e-13
3.582722325e-13
3.584549704e-13
3.585897893e-13
3.586635183e-13
3.586948796e-13
3.587101374e-13
3.586770718e-13
3.585849706e-13
3.585260084e-13
3.584840321e-13
3.584539472e-13
3.58413361e-13
3.583737297e-13
3.58272892e-13
3.582125974e-13
3.581697449e-13
3.580938826e-13
3.580150813e-13
3.579244171e-13
3.578697011e-13
3.578295762e-13
3.577734858e-13
3.577487985e-13
3.577281644e-13
3.576401506e-13
3.576005541e-13
3.575788557e-13
3.575752581e-13
3.575080521e-13
3.574478581e-13
3.573933163e-13
3.573274264e-13
3.572582145e-13
3.571689764e-13
3.57087026e-13
3.570807207e-13
3.57045148e-13
3.570453426e-13
3.569766665e-13
3.569597155e-13
3.568737202e-13
3.568394355e-13
3.567650342e-13
3.567350704e-13
3.566740224e-13
3.566859341e-13
3.566753744e-13
3.566489358e-13
3.565960882e-13
3.565315448e-13
3.564678986e-13
3.564407935e-13
3.563780951e-13
3.563774421e-13
3.563572127e-13
3.563054215e-13
3.562319902e-13
3.561603244e-13
3.560904315e-13
3.560270017e-13
3.559417437e-13
3.558760916e-13
3.55795118e-13
3.557214973e-13
3.556817984e-13
3.556304985e-13
3.555820939e-13
3.554817828e-13
3.554671908e-13
3.553801532e-13
3.553784077e-13
3.553407215e-13
3.553147745e-13
3.552504552e-13
3.552098093e-13
3.551250956e-13
3.550645248e-13
3.549647352e-13
3.549093394e-13
3.548216718e-13
3.547950076e-13
3.547184419e-13
3.547066504e-13
3.546643032e-13
3.546823231e-13
3.546503337e-13
3.546127428e-13
3.54531126e-13
3.545440143e-13
3.544433852e-13
3.543728194e-13
3.543277509e-13
3.542251459e-13
3.541160993e-13
3.54074982e-13
3.539662826e-13
3.538856276e-13
3.538493011e-13
3.537860879e-13
3.537261604e-13
3.536771757e-13
3.535716966e-13
3.534846438e-13
3.53400515e-13
3.53313781e-13
3.531977212e-13
3.531258955e-13
3.530197575e-13
3.529149077e-13
3.528575061e-13
3.527792975e-13
3.526964568e-13
3.527056531e-13
3.526659909e-13
3.525897295e-13
3.524821375e-13
3.523483032e-13
3.52231324e-13
3.522036894e-13
3.521614861e-13
3.520198998e-13
3.518261892e-13
3.51722554e-13
3.515885943e-13
3.51512627e-13
3.514560131e-13
3.513346833e-13
3.512209096e-13
3.511725897e-13
3.511443033e-13
3.510519304e-13
3.508959555e-13
3.507602373e-13
3.506255827e-13
3.504812442e-13
3.504295509e-13
3.503130838e-13
3.501621455e-13
3.499813893e-13
3.499235013e-13
3.498152562e-13
3.496771209e-13
3.49600271e-13
3.494654863e-13
3.492832824e-13
3.490604769e-13
3.488766081e-13
3.487733776e-13
3.486754378e-13
3.486039288e-13
3.484291147e-13
3.483063291e-13
3.481482977e-13
3.479951943e-13
3.477742699e-13
3.475799497e-13
3.474339164e-13
3.472789303e-13
3.471410315e-13
3.470057454e-13
3.468083563e-13
3.466450042e-13
3.465030025e-13
3.463080384e-13
3.461171702e-13
3.459335541e-13
3.458014314e-13
3.456375658e-13
3.45385101e-13
3.452178192e-13
3.45053172e-13
3.448539592e-13
3.4472036e-13
3.445577319e-13
3.443575853e-13
3.441685988e-13
3.439621414e-13
3.437567112e-13
3.435585979e-13
3.433496864e-13
3.431505815e-13
3.429460708e-13
3.427515116e-13
3.425524947e-13
3.423558593e-13
3.421066602e-13
3.418896686e-13
0.000990100199
0.0009906902374
0.0009917550091
0.0009932047733
0.0009949608968
0.0009969573589
0.0009991434396
0.001001486125
0.001003960624
0.001006545783
0.001009224228
0.001011982951
0.001014810591
0.001017694303
0.001020510252
0.001023364953
0.001026251964
0.001029165487
0.001032100599
0.001035053288
0.001038020565
0.001041000201
0.001043990546
0.001046990426
0.001049998673
0.001053013774
0.001056033474
0.001059054297
0.001062071141
0.001065077125
0.001068063814
0.001071021499
0.001073948671
0.001076851189
0.0010797343
0.001082601873
0.001085455753
0.00108829589
0.001091121104
0.001093930463
0.001096724997
0.001099506709
0.001102277941
0.001105040373
0.001107794467
0.001110539423
0.001113273315
0.001115993235
0.00111869547
0.001121375776
0.001124029894
0.001126654336
0.001129185473
0.001131650604
0.00113409002
0.001136507504
0.001138906505
0.001141289716
0.001143658855
0.001146014671
0.001148357093
0.001150685474
0.001152998899
0.001155296469
0.001157577365
0.001159840735
0.001162085045
0.001164308333
0.001166508101
0.001168681397
0.001170828404
0.001172950115
0.001175048115
0.001177124198
0.00117917994
0.001181216817
0.001183237144
0.00118524307
0.001187235749
0.001189215388
0.001191181456
0.001193132875
0.001195068189
0.001196985752
0.001198883951
0.001200761437
0.001202617304
0.001204451184
0.001206263282
0.001208054303
0.001209825326
0.001211577541
0.00121331203
0.001215029608
0.001216730756