/*--------------------------------*- C++ -*----------------------------------*\
| =========                 |                                                 |
| \\      /  F ield         | OpenFOAM: The Open Source CFD Toolbox           |
|  \\    /   O peration     | Version:  v2006                                 |
|   \\  /    A nd           | Website:  www.openfoam.com                      |
|    \\/     M anipulation  |                                                 |
\*---------------------------------------------------------------------------*/
FoamFile
{
    version     2.0;
    format      ascii;
    class       volScalarField;
    location    "0.09";
    object      CH2(S);
}
// * * * * * * * * * * * * * * * * * * * * * * * * * * * * * * * * * * * * * //

dimensions      [0 0 0 0 0 0 0];


internalField   nonuniform List<scalar> 
72000
(
8.694936359e-13
8.701540079e-13
8.714021183e-13
8.731810076e-13
8.754334693e-13
8.781051612e-13
8.811455003e-13
8.845079952e-13
8.881514613e-13
8.920385754e-13
8.961344957e-13
9.004060176e-13
9.048282691e-13
9.093820275e-13
9.140484204e-13
9.188099113e-13
9.2365041e-13
9.285555132e-13
9.335126509e-13
9.385110474e-13
9.435413616e-13
9.485955035e-13
9.536663394e-13
9.587472849e-13
9.638321508e-13
9.689147854e-13
9.739887354e-13
9.790470442e-13
9.840822861e-13
9.890869249e-13
9.940540316e-13
9.989782521e-13
1.003856599e-12
1.008688293e-12
1.01347375e-12
1.018213558e-12
1.022907854e-12
1.027556262e-12
1.032158288e-12
1.036713928e-12
1.0412241e-12
1.045690564e-12
1.050115454e-12
1.054500648e-12
1.058847225e-12
1.063155166e-12
1.067423297e-12
1.071649393e-12
1.075830392e-12
1.079962716e-12
1.084043059e-12
1.088069781e-12
1.092042875e-12
1.095962743e-12
1.099829181e-12
1.103660038e-12
1.108298624e-12
1.112883118e-12
1.11741908e-12
1.121909459e-12
1.126355613e-12
1.130757912e-12
1.135116149e-12
1.139429814e-12
1.143698166e-12
1.147920143e-12
1.152095056e-12
1.156221977e-12
1.160300006e-12
1.164328671e-12
1.168308314e-12
1.172240249e-12
1.176126686e-12
1.179970469e-12
1.183774775e-12
1.187542857e-12
1.191277793e-12
1.194982149e-12
1.198657707e-12
1.202305358e-12
1.205925162e-12
1.209516516e-12
1.213078387e-12
1.216609587e-12
1.220109048e-12
1.223576076e-12
1.227010527e-12
1.230412895e-12
1.233784293e-12
1.237126349e-12
1.240440945e-12
1.243730168e-12
1.246995969e-12
1.250240047e-12
1.253463772e-12
1.256668179e-12
1.259854035e-12
1.263021969e-12
1.266172384e-12
1.269305821e-12
1.272422747e-12
1.275523714e-12
1.278609421e-12
1.281680806e-12
1.284739128e-12
1.28778601e-12
1.290823445e-12
1.293853728e-12
1.296879381e-12
1.299903039e-12
1.30292734e-12
1.305954815e-12
1.308987793e-12
1.312028309e-12
1.315078066e-12
1.318138413e-12
1.321210377e-12
1.324294702e-12
1.327391904e-12
1.330502298e-12
1.333625982e-12
1.336762711e-12
1.339911593e-12
1.343070751e-12
1.346240141e-12
1.349419523e-12
1.352608625e-12
1.355815224e-12
1.359044322e-12
1.362299634e-12
1.36558425e-12
1.368900915e-12
1.372252151e-12
1.375640315e-12
1.379067629e-12
1.382536205e-12
1.386048065e-12
1.389605175e-12
1.393209474e-12
1.396862873e-12
1.400567669e-12
1.404326045e-12
1.408139952e-12
1.412010771e-12
1.416246423e-12
1.420896185e-12
1.425618257e-12
1.430417119e-12
1.435296446e-12
1.440259446e-12
1.445309036e-12
1.450447944e-12
1.455678758e-12
1.46100397e-12
1.466426e-12
1.471947243e-12
1.477570105e-12
1.483297051e-12
1.489130648e-12
1.495073588e-12
1.501128697e-12
1.507298926e-12
1.513587332e-12
1.519997058e-12
1.526531322e-12
1.533193419e-12
1.539986724e-12
1.546914707e-12
1.553980922e-12
1.561189011e-12
1.568542678e-12
1.576045691e-12
1.583701842e-12
1.591514923e-12
1.599488682e-12
1.607626731e-12
1.615932394e-12
1.624408369e-12
1.633056187e-12
1.641870491e-12
1.650830676e-12
1.659874822e-12
1.669770065e-12
1.680471397e-12
1.691323272e-12
1.702392722e-12
1.713702963e-12
1.725264743e-12
1.737085121e-12
1.749170231e-12
1.761526208e-12
1.77415953e-12
1.787077077e-12
1.800285878e-12
1.813792677e-12
1.827603963e-12
1.841726171e-12
1.856165917e-12
1.870929434e-12
1.886021473e-12
1.901445788e-12
1.917205932e-12
1.93330456e-12
1.95106146e-12
1.96932703e-12
1.987973663e-12
2.007009099e-12
2.026437647e-12
2.046257387e-12
2.066459393e-12
2.087071054e-12
2.108113581e-12
2.129608207e-12
2.151572214e-12
2.17402149e-12
2.196975525e-12
2.220469017e-12
2.244585712e-12
2.269292208e-12
2.294570844e-12
2.320424921e-12
2.346862961e-12
2.373895316e-12
2.401533796e-12
2.429791588e-12
2.458683131e-12
2.488223115e-12
2.51842463e-12
2.549292971e-12
2.580831237e-12
2.613081903e-12
2.646071881e-12
2.679817588e-12
2.714327977e-12
2.749608447e-12
2.785647289e-12
2.822384456e-12
2.859656351e-12
2.906313507e-12
2.956141899e-12
3.007148693e-12
3.059542983e-12
3.113451424e-12
3.168960636e-12
3.226120905e-12
3.284917561e-12
3.345520207e-12
3.408033674e-12
3.472513955e-12
3.539069672e-12
3.607870317e-12
3.679047814e-12
3.752707711e-12
3.828950872e-12
3.907883206e-12
3.98961818e-12
4.074348602e-12
4.162385401e-12
4.262577676e-12
4.375926489e-12
4.494185017e-12
4.617689759e-12
4.746890545e-12
4.882300289e-12
5.024551113e-12
5.174052739e-12
5.33129915e-12
5.496904033e-12
5.675572926e-12
5.868681492e-12
6.103093275e-12
6.352934758e-12
6.618948394e-12
6.902789524e-12
7.206229606e-12
7.530611508e-12
7.878223615e-12
8.268984219e-12
8.72303956e-12
9.217142318e-12
9.756146632e-12
1.034643665e-11
1.102074856e-11
1.183731421e-11
1.27701704e-11
1.381720099e-11
1.499797853e-11
1.642925373e-11
1.823143637e-11
2.031698775e-11
2.276465018e-11
2.606866209e-11
3.002022144e-11
3.495876647e-11
4.152033326e-11
5.0102769e-11
6.136428084e-11
7.689584504e-11
9.838037276e-11
1.286762539e-10
1.724781245e-10
2.356111184e-10
3.339812141e-10
5.041095727e-10
1.011011448e-09
6.92052091e-09
8.078033363e-12
1.375671772e-12
3.618625706e-13
2.277146441e-13
1.770250221e-13
1.171085493e-13
6.248371555e-14
2.204688784e-14
7.531785752e-15
2.019319556e-15
6.050563194e-16
8.744625807e-17
2.693780969e-18
2.065767453e-18
1.618560723e-18
1.283308557e-18
1.024006602e-18
8.198579649e-19
6.574793981e-19
5.27559251e-19
4.233080529e-19
3.395451276e-19
2.722020672e-19
2.180661388e-19
1.745596083e-19
1.396146454e-19
1.115664219e-19
8.907010603e-20
7.104280641e-20
5.660936037e-20
4.506387102e-20
3.583744552e-20
2.847129088e-20
2.259612975e-20
1.791485383e-20
1.418856706e-20
1.122544297e-20
8.871568014e-21
7.003580651e-21
5.522721687e-21
4.350004437e-21
3.422301751e-21
2.689222198e-21
2.110577127e-21
1.654344559e-21
1.295040704e-21
1.012403332e-21
7.90341282e-22
6.160872858e-22
4.795228855e-22
3.726367936e-22
2.890929582e-22
2.238857879e-22
1.730651318e-22
1.335174487e-22
1.027914277e-22
7.895934736e-23
6.050714832e-23
4.624711098e-23
3.524872917e-23
2.678393468e-23
2.028384217e-23
1.530463348e-23
1.150050892e-23
8.602476492e-24
6.401645546e-24
4.736029674e-24
3.480302339e-24
2.537622945e-24
1.83336116e-24
1.31009458e-24
9.237990393e-25
6.407271373e-25
4.3515054e-25
2.875126856e-25
1.82903338e-25
1.101272036e-25
6.078087883e-26
2.862617456e-26
9.190781817e-27
2.516181518e-30
2.516181518e-30
2.516181518e-30
2.516181518e-30
2.516181518e-30
2.516181518e-30
2.516181518e-30
2.516181518e-30
2.516181518e-30
2.516181518e-30
2.516181518e-30
2.516181518e-30
2.516181518e-30
2.516181518e-30
7.354825625e-28
2.03739654e-27
3.399418999e-27
4.741802052e-27
6.067878449e-27
7.392645552e-27
9.638700836e-26
2.063595612e-25
2.553907428e-25
2.784103749e-25
2.954343133e-25
3.091323963e-25
3.097676251e-25
3.100297341e-25
3.024323409e-25
3.049769642e-25
2.974487244e-25
3.000312371e-25
2.913944185e-25
2.873199454e-25
2.809144607e-25
2.762556245e-25
2.740135381e-25
2.741497958e-25
2.770111457e-25
2.68995416e-25
2.635535101e-25
2.62233145e-25
2.643325985e-25
2.698325884e-25
2.645139929e-25
2.533697663e-25
2.517907318e-25
2.529902058e-25
2.530907822e-25
2.532710397e-25
2.565934288e-25
2.489527622e-25
2.484036966e-25
2.484142633e-25
2.505844843e-25
2.55907774e-25
2.476929806e-25
2.467330516e-25
2.515190594e-25
2.453417733e-25
2.455783694e-25
2.383821973e-25
2.397781298e-25
2.431938747e-25
2.488051801e-25
2.408349975e-25
2.410150037e-25
2.396524242e-25
2.429631487e-25
2.352401823e-25
2.336537949e-25
2.332551646e-25
2.361506618e-25
2.437118587e-25
2.424671412e-25
2.316662642e-25
2.331581711e-25
2.411547108e-25
2.397105592e-25
2.308758403e-25
2.302172446e-25
2.321825562e-25
2.385231713e-25
2.313522195e-25
2.288058108e-25
2.275345503e-25
2.330507011e-25
2.304566027e-25
2.285361496e-25
2.198249527e-25
2.129857515e-25
2.180181423e-25
2.211903342e-25
2.242600186e-25
2.165988927e-25
2.158088927e-25
2.165711194e-25
2.221588708e-25
2.157003537e-25
2.145781002e-25
2.142543765e-25
2.123925903e-25
2.170364947e-25
2.09071655e-25
2.081938934e-25
2.134556864e-25
2.084251199e-25
2.133328909e-25
2.05258045e-25
2.049051732e-25
2.028223166e-25
2.037348596e-25
2.042112265e-25
2.066698202e-25
2.113850873e-25
2.06150696e-25
2.029525028e-25
1.993196676e-25
1.980707575e-25
1.982995111e-25
1.970123145e-25
1.995209383e-25
1.919378138e-25
1.940613897e-25
1.998227465e-25
1.93063954e-25
1.97848163e-25
1.963241845e-25
1.873249719e-25
1.849138687e-25
1.842337292e-25
1.857734181e-25
1.895452875e-25
1.810078417e-25
1.832141533e-25
1.758507632e-25
1.748127928e-25
1.72142346e-25
1.718381161e-25
1.738813101e-25
1.787976509e-25
1.730552449e-25
1.755015522e-25
1.674099369e-25
1.676546268e-25
1.766119942e-25
1.771524231e-25
1.72918204e-25
1.628921305e-25
1.67478545e-25
1.656395318e-25
1.559590295e-25
1.560624092e-25
1.621417229e-25
1.544701093e-25
1.555077215e-25
1.638828549e-25
1.617616718e-25
1.50728734e-25
1.548601662e-25
1.529939093e-25
1.446265904e-25
1.417749862e-25
1.41586647e-25
1.39284095e-25
1.375660251e-25
1.377610942e-25
1.37049664e-25
1.375208594e-25
1.371670087e-25
1.412854804e-25
1.297083572e-25
1.23714489e-25
1.228768649e-25
1.274329543e-25
1.216022706e-25
1.247150815e-25
1.30220017e-25
1.227872744e-25
1.228014374e-25
1.136414076e-25
1.114875978e-25
1.175106252e-25
1.155155691e-25
1.123162246e-25
1.033061273e-25
1.005652034e-25
9.87020144e-26
9.731129122e-26
9.673598635e-26
1.005044696e-25
9.290391384e-26
9.098674016e-26
8.855620891e-26
9.112992583e-26
8.193385766e-26
7.931982845e-26
8.28037345e-26
7.56765834e-26
7.494263045e-26
7.255109991e-26
6.987107765e-26
7.305827914e-26
6.331756274e-26
6.368642189e-26
6.055746107e-26
5.032060593e-26
5.209350475e-26
4.245064052e-26
4.075189189e-26
4.182080694e-26
2.974608997e-26
1.873317431e-26
8.338160557e-27
7.041340051e-13
7.051401879e-13
7.069733474e-13
7.095118507e-13
7.126474189e-13
7.162902812e-13
7.203665938e-13
7.2481233e-13
7.295779214e-13
7.346186621e-13
7.398958931e-13
7.453759891e-13
7.510304955e-13
7.568347115e-13
7.627662018e-13
7.688061824e-13
7.74937503e-13
7.811446897e-13
7.874140774e-13
7.937339399e-13
8.000952341e-13
8.06489765e-13
8.129095774e-13
8.193481938e-13
8.257993262e-13
8.322562872e-13
8.387115195e-13
8.45156263e-13
8.515805237e-13
8.579735531e-13
8.64325019e-13
8.706269085e-13
8.768755551e-13
8.830713697e-13
8.892165678e-13
8.953132247e-13
9.013622348e-13
9.073632358e-13
9.133153152e-13
9.192181229e-13
9.250727167e-13
9.308813731e-13
9.366468338e-13
9.42371311e-13
9.480557107e-13
9.536992732e-13
9.592995551e-13
9.648526206e-13
9.703533539e-13
9.757957859e-13
9.818191763e-13
9.883602822e-13
9.948196352e-13
1.001199225e-12
1.007502215e-12
1.01373231e-12
1.019893803e-12
1.025994711e-12
1.032040412e-12
1.038033872e-12
1.043976178e-12
1.049867102e-12
1.055705606e-12
1.06149018e-12
1.067219002e-12
1.072890553e-12
1.078502692e-12
1.084053264e-12
1.089540193e-12
1.094962015e-12
1.100318734e-12
1.105611981e-12
1.110844747e-12
1.116020872e-12
1.121144576e-12
1.126220205e-12
1.131252014e-12
1.136243581e-12
1.141197273e-12
1.146114081e-12
1.150993731e-12
1.155834954e-12
1.160635827e-12
1.165394179e-12
1.170108003e-12
1.174775834e-12
1.179397034e-12
1.183971923e-12
1.188501766e-12
1.192988721e-12
1.197435128e-12
1.20184391e-12
1.20621763e-12
1.210558497e-12
1.214868207e-12
1.219147941e-12
1.223398463e-12
1.227620268e-12
1.231813685e-12
1.235979016e-12
1.240116533e-12
1.244226549e-12
1.248309534e-12
1.252366288e-12
1.256398114e-12
1.260406939e-12
1.264395404e-12
1.268366612e-12
1.27232398e-12
1.276271032e-12
1.280211247e-12
1.284147921e-12
1.288084039e-12
1.292022149e-12
1.295964302e-12
1.299912038e-12
1.303866441e-12
1.307828206e-12
1.311797729e-12
1.315775189e-12
1.319760589e-12
1.323753752e-12
1.3277542e-12
1.33226958e-12
1.337133169e-12
1.341999724e-12
1.346872237e-12
1.351755973e-12
1.356656265e-12
1.361577947e-12
1.366525412e-12
1.371502718e-12
1.376513634e-12
1.381561666e-12
1.386650073e-12
1.391781899e-12
1.396960001e-12
1.402187085e-12
1.407465814e-12
1.412799378e-12
1.418190927e-12
1.423643993e-12
1.429161878e-12
1.434747362e-12
1.440402348e-12
1.446130115e-12
1.451936126e-12
1.457826312e-12
1.463805462e-12
1.469877813e-12
1.47604724e-12
1.482317356e-12
1.488691595e-12
1.495173282e-12
1.501765667e-12
1.508471973e-12
1.515295458e-12
1.522239479e-12
1.529307563e-12
1.536503448e-12
1.543831103e-12
1.551294704e-12
1.558898616e-12
1.566647363e-12
1.57454563e-12
1.582598252e-12
1.59081021e-12
1.599186623e-12
1.607732741e-12
1.616453951e-12
1.625355765e-12
1.634443817e-12
1.643723808e-12
1.653201511e-12
1.662882722e-12
1.672773145e-12
1.682878303e-12
1.693203217e-12
1.704121655e-12
1.71614086e-12
1.728442171e-12
1.741072965e-12
1.754238708e-12
1.767940164e-12
1.782012486e-12
1.796433687e-12
1.811207783e-12
1.826343152e-12
1.841849021e-12
1.857735099e-12
1.874011749e-12
1.890690219e-12
1.907782829e-12
1.92530243e-12
1.943260921e-12
1.961669695e-12
1.980540173e-12
1.99988516e-12
2.019724231e-12
2.040062469e-12
2.060904169e-12
2.082257378e-12
2.104130638e-12
2.126531656e-12
2.149477373e-12
2.17298423e-12
2.197067229e-12
2.221739765e-12
2.247013713e-12
2.27290235e-12
2.300492907e-12
2.329800034e-12
2.359854315e-12
2.390687195e-12
2.422324629e-12
2.454791312e-12
2.48811198e-12
2.528166573e-12
2.570565157e-12
2.614131392e-12
2.658905114e-12
2.704908536e-12
2.752173683e-12
2.800735909e-12
2.850634012e-12
2.901911111e-12
2.954612901e-12
3.008787999e-12
3.064483333e-12
3.121743715e-12
3.180638927e-12
3.241234456e-12
3.303579081e-12
3.367688612e-12
3.433619978e-12
3.50141652e-12
3.58287085e-12
3.668615794e-12
3.756859397e-12
3.847763945e-12
3.941590653e-12
4.038607418e-12
4.139054804e-12
4.243148868e-12
4.351095454e-12
4.463080655e-12
4.579352824e-12
4.70018055e-12
4.837839755e-12
4.99305032e-12
5.155010071e-12
5.324279206e-12
5.501175927e-12
5.686126844e-12
5.879959963e-12
6.092755044e-12
6.316285291e-12
6.571499385e-12
6.851295005e-12
7.143497538e-12
7.450953802e-12
7.775661863e-12
8.119676153e-12
8.485057812e-12
8.905618163e-12
9.362338201e-12
9.849846485e-12
1.037132399e-11
1.093036122e-11
1.155433196e-11
1.226541821e-11
1.303226655e-11
1.386249942e-11
1.48098699e-11
1.595583369e-11
1.721865398e-11
1.861262178e-11
2.019628843e-11
2.206182834e-11
2.414324128e-11
2.668509359e-11
2.97679641e-11
3.327808014e-11
3.738855522e-11
4.247883657e-11
4.847953669e-11
5.603589169e-11
6.524587672e-11
7.716824543e-11
9.214641819e-11
1.119437786e-10
1.379564492e-10
1.728716697e-10
2.213047396e-10
2.883487125e-10
3.854058377e-10
5.310978608e-10
7.627894204e-10
1.184324872e-09
2.082859337e-09
4.375780219e-09
9.867780069e-09
1.535881341e-08
1.009477041e-08
3.210933417e-09
5.856799275e-10
1.827009753e-11
6.103661367e-12
8.507369741e-13
7.920756411e-13
6.224627518e-13
4.217450616e-13
2.384165696e-13
7.976451291e-14
2.330048621e-14
9.138964995e-15
3.866608598e-15
1.50699815e-15
3.883064608e-16
2.119658593e-18
1.673174343e-18
1.330642613e-18
1.062667858e-18
8.505998725e-19
6.816369557e-19
5.46369302e-19
4.378878599e-19
3.508339796e-19
2.809209113e-19
2.247997793e-19
1.797546499e-19
1.436190143e-19
1.14652749e-19
9.144523538e-20
7.286989888e-20
5.801358896e-20
4.614171671e-20
3.666414708e-20
2.910453541e-20
2.308056995e-20
1.828502657e-20
1.447100743e-20
1.144063605e-20
9.035271148e-21
7.127890501e-21
5.616933058e-21
4.421265062e-21
3.476082483e-21
2.729714553e-21
2.140989439e-21
1.677120948e-21
1.312046865e-21
1.025056932e-21
7.997205222e-22
6.230095435e-22
4.846072394e-22
3.763508312e-22
2.917889461e-22
2.258284576e-22
1.744528344e-22
1.344983336e-22
1.034758892e-22
7.942919595e-23
6.082287782e-23
4.645320701e-23
3.537771589e-23
2.685944295e-23
2.032297017e-23
1.531957287e-23
1.149990402e-23
8.592384576e-24
6.386227304e-24
4.718103659e-24
3.461690372e-24
2.51948161e-24
1.816391048e-24
1.294647772e-24
9.100251513e-25
6.286340252e-25
4.246423874e-25
2.784304727e-25
1.750847125e-25
1.034050521e-25
5.490798273e-26
2.332758225e-26
4.004669737e-27
2.516181518e-30
2.516181518e-30
2.516181518e-30
2.516181518e-30
2.516181518e-30
2.516181518e-30
2.516181518e-30
2.516181518e-30
2.516181518e-30
2.516181518e-30
2.516181518e-30
2.516181518e-30
2.516181518e-30
2.516181518e-30
1.339216516e-28
1.641870837e-27
3.080784539e-27
4.463041535e-27
5.771740035e-27
6.983074698e-27
8.11347121e-27
3.45965604e-25
5.393801678e-25
6.668373699e-25
7.424263288e-25
8.0647747e-25
8.310423417e-25
8.355074182e-25
8.32642789e-25
8.336424462e-25
8.22650547e-25
8.183736118e-25
8.131434265e-25
8.069871159e-25
7.848708942e-25
7.715497288e-25
7.613567822e-25
7.606129512e-25
7.513814542e-25
7.511603705e-25
7.296237375e-25
7.251153499e-25
7.304424351e-25
7.319505163e-25
7.145803496e-25
6.977932099e-25
6.963308471e-25
7.038168458e-25
7.02896764e-25
6.998823336e-25
6.911903533e-25
6.837116675e-25
6.882132305e-25
6.867405524e-25
6.92303811e-25
6.930853201e-25
6.808418922e-25
6.783148848e-25
6.783436359e-25
6.752981528e-25
6.577222567e-25
6.518364381e-25
6.624514888e-25
6.66884083e-25
6.737582768e-25
6.603420892e-25
6.597234598e-25
6.607603845e-25
6.532803894e-25
6.479832187e-25
6.458019015e-25
6.43442932e-25
6.491952695e-25
6.527341002e-25
6.551711635e-25
6.391948268e-25
6.377467606e-25
6.454117476e-25
6.414091132e-25
6.330277236e-25
6.34118752e-25
6.376387766e-25
6.441013929e-25
6.387087373e-25
6.321278618e-25
6.218986255e-25
6.217764651e-25
6.054439506e-25
6.072873399e-25
6.021962289e-25
5.978708232e-25
6.038942611e-25
6.098847687e-25
5.973498734e-25
5.939539391e-25
5.938915958e-25
5.924488724e-25
5.957219055e-25
5.91828907e-25
5.921866978e-25
5.927071702e-25
5.799015049e-25
5.796733986e-25
5.719578252e-25
5.682056207e-25
5.669641036e-25
5.643920252e-25
5.697157643e-25
5.618183593e-25
5.671093928e-25
5.609830235e-25
5.622155735e-25
5.629799561e-25
5.669317794e-25
5.612192491e-25
5.667644156e-25
5.590758346e-25
5.464381804e-25
5.443776741e-25
5.462255998e-25
5.38952987e-25
5.271402599e-25
5.228152246e-25
5.297734634e-25
5.305014372e-25
5.190869566e-25
5.203951142e-25
5.160745885e-25
5.091246937e-25
5.054054062e-25
5.030921952e-25
5.081065072e-25
5.006972529e-25
4.857290632e-25
4.801199526e-25
4.763536896e-25
4.80071799e-25
4.699495799e-25
4.674137645e-25
4.719030677e-25
4.708764315e-25
4.65419912e-25
4.590529653e-25
4.500158634e-25
4.481991349e-25
4.58997194e-25
4.577662436e-25
4.476158285e-25
4.297094243e-25
4.308692624e-25
4.285404456e-25
4.181671613e-25
4.190160383e-25
4.235198227e-25
4.126919401e-25
4.161055025e-25
4.268746515e-25
4.200244076e-25
3.959573023e-25
3.958419921e-25
3.913698142e-25
3.892404048e-25
3.937587894e-25
3.852584399e-25
3.771767961e-25
3.710591813e-25
3.706251867e-25
3.703225964e-25
3.737373357e-25
3.676221015e-25
3.672659893e-25
3.471958839e-25
3.325839244e-25
3.242475524e-25
3.224071243e-25
3.176839214e-25
3.344225369e-25
3.327903376e-25
3.250192978e-25
3.085250139e-25
2.98286202e-25
2.901525703e-25
2.911422147e-25
2.802265304e-25
2.752768743e-25
2.71027155e-25
2.680057275e-25
2.615640321e-25
2.571586671e-25
2.538825381e-25
2.478845307e-25
2.416620012e-25
2.412337988e-25
2.29035838e-25
2.21130762e-25
2.086349064e-25
2.013005054e-25
1.967367438e-25
1.914066818e-25
1.959765382e-25
1.90460611e-25
1.756066459e-25
1.718316539e-25
1.512174822e-25
1.346321963e-25
1.300457006e-25
1.13668154e-25
1.105369584e-25
9.504082324e-26
9.359943474e-26
8.518787802e-26
6.500358728e-26
3.453468731e-26
1.235440282e-26
6.433692611e-13
6.444862589e-13
6.465252025e-13
6.49342173e-13
6.528098874e-13
6.568199644e-13
6.612852397e-13
6.66137602e-13
6.713234323e-13
6.767962558e-13
6.825163634e-13
6.884504424e-13
6.945694821e-13
7.008471611e-13
7.072595319e-13
7.137869507e-13
7.204114757e-13
7.271169165e-13
7.338888988e-13
7.407145395e-13
7.486610179e-13
7.577594038e-13
7.668974627e-13
7.760689965e-13
7.85267167e-13
7.944840913e-13
8.037100912e-13
8.129329265e-13
8.221373877e-13
8.313057127e-13
8.40419343e-13
8.494628625e-13
8.584309232e-13
8.673277434e-13
8.761602447e-13
8.849339561e-13
8.936511146e-13
9.023106743e-13
9.109098593e-13
9.194468052e-13
9.279229884e-13
9.363424312e-13
9.447101613e-13
9.530301163e-13
9.613036893e-13
9.69529279e-13
9.777024318e-13
9.858162486e-13
9.938619789e-13
1.001829922e-12
1.009711029e-12
1.017499106e-12
1.025193182e-12
1.03279525e-12
1.040310191e-12
1.047745091e-12
1.055107464e-12
1.062404515e-12
1.069641273e-12
1.076820262e-12
1.083941869e-12
1.091004968e-12
1.09800761e-12
1.10494745e-12
1.111821406e-12
1.120411965e-12
1.129173152e-12
1.137841445e-12
1.146411858e-12
1.154880125e-12
1.163245526e-12
1.171510661e-12
1.179680714e-12
1.187762179e-12
1.195761848e-12
1.203686701e-12
1.211544227e-12
1.21934086e-12
1.227080601e-12
1.2347648e-12
1.242392491e-12
1.24996092e-12
1.257466161e-12
1.264903795e-12
1.27226967e-12
1.279560601e-12
1.286774931e-12
1.293912767e-12
1.300976004e-12
1.307968076e-12
1.314893153e-12
1.321756063e-12
1.328561151e-12
1.335311988e-12
1.342011142e-12
1.348660199e-12
1.355259967e-12
1.3618108e-12
1.368312861e-12
1.374766252e-12
1.381170987e-12
1.387527025e-12
1.393834458e-12
1.400093866e-12
1.406307037e-12
1.41247756e-12
1.418608532e-12
1.424704968e-12
1.430772462e-12
1.436816705e-12
1.44284324e-12
1.448857312e-12
1.454863628e-12
1.460866123e-12
1.466867831e-12
1.472870901e-12
1.478876697e-12
1.484885954e-12
1.49089895e-12
1.496915694e-12
1.502936108e-12
1.508960227e-12
1.51498851e-12
1.521022652e-12
1.52706404e-12
1.533114539e-12
1.539177598e-12
1.545258035e-12
1.551361153e-12
1.55749235e-12
1.563656895e-12
1.569859823e-12
1.576105893e-12
1.582399571e-12
1.58874502e-12
1.595146122e-12
1.601606501e-12
1.608129504e-12
1.61471798e-12
1.622676437e-12
1.630714698e-12
1.638828664e-12
1.647023991e-12
1.655306033e-12
1.663680111e-12
1.67233834e-12
1.681571592e-12
1.69094181e-12
1.700456041e-12
1.710120991e-12
1.719943028e-12
1.729927933e-12
1.740081398e-12
1.750408948e-12
1.760915975e-12
1.771607809e-12
1.782489837e-12
1.793567623e-12
1.804847054e-12
1.816334438e-12
1.828036532e-12
1.839960487e-12
1.852113775e-12
1.864504147e-12
1.877139602e-12
1.890028389e-12
1.903179019e-12
1.91660028e-12
1.930301237e-12
1.944291176e-12
1.958579659e-12
1.973176435e-12
1.988091521e-12
2.003335057e-12
2.018917293e-12
2.034848628e-12
2.051139543e-12
2.067800665e-12
2.084842951e-12
2.102281656e-12
2.120145395e-12
2.13848102e-12
2.157353023e-12
2.176774069e-12
2.196711564e-12
2.217150681e-12
2.23809242e-12
2.259544912e-12
2.281519474e-12
2.304029236e-12
2.327088821e-12
2.350714597e-12
2.374925962e-12
2.399749938e-12
2.425200469e-12
2.451291231e-12
2.478036848e-12
2.505449687e-12
2.536027088e-12
2.568364764e-12
2.601534218e-12
2.635554347e-12
2.670444322e-12
2.706224689e-12
2.742920407e-12
2.780559847e-12
2.819168581e-12
2.858773643e-12
2.899403921e-12
2.941092148e-12
2.98387971e-12
3.027810609e-12
3.072932125e-12
3.119305941e-12
3.166954978e-12
3.21590685e-12
3.266177043e-12
3.317731024e-12
3.370664678e-12
3.428623686e-12
3.492831909e-12
3.558890774e-12
3.626859633e-12
3.696795804e-12
3.768761474e-12
3.842829993e-12
3.919064996e-12
3.99756774e-12
4.078438157e-12
4.165016745e-12
4.255337709e-12
4.348540139e-12
4.444734434e-12
4.553725927e-12
4.670700346e-12
4.791500944e-12
4.916269187e-12
5.045070096e-12
5.17805427e-12
5.315519798e-12
5.457847069e-12
5.605431238e-12
5.758680482e-12
5.932404508e-12
6.119979015e-12
6.315213677e-12
6.518562291e-12
6.730591547e-12
6.951986279e-12
7.18342691e-12
7.425604413e-12
7.705759022e-12
8.000781089e-12
8.310349423e-12
8.635473536e-12
8.977085927e-12
9.336331416e-12
9.740645411e-12
1.017668782e-11
1.063737412e-11
1.112574897e-11
1.164510534e-11
1.222495337e-11
1.286331556e-11
1.354822792e-11
1.432059349e-11
1.517294538e-11
1.614829753e-11
1.720644972e-11
1.835652404e-11
1.965871985e-11
2.112321115e-11
2.273106917e-11
2.454379001e-11
2.663141919e-11
2.9108923e-11
3.19748708e-11
3.528247385e-11
3.905815362e-11
4.354093284e-11
4.89941296e-11
5.553196293e-11
6.315400361e-11
7.308396525e-11
8.495569332e-11
1.000961004e-10
1.188404467e-10
1.434689771e-10
1.755259615e-10
2.181395675e-10
2.755024614e-10
3.541153443e-10
4.641976919e-10
6.211937065e-10
8.520222804e-10
1.206256032e-09
1.766373554e-09
2.759880717e-09
4.767028186e-09
9.739149921e-09
2.179534348e-08
3.786287882e-08
3.174200862e-08
1.360933485e-08
3.928705534e-09
8.276176079e-10
1.385441854e-10
3.762853571e-11
1.106207719e-11
3.434804487e-12
1.374124084e-12
9.54814976e-13
5.888737643e-13
2.343110681e-13
8.328410401e-14
3.418486175e-14
1.701830861e-14
8.290095813e-15
3.783013022e-15
1.491333633e-15
3.237042542e-16
1.632987844e-18
1.300091821e-18
1.037122554e-18
8.285175891e-19
6.620919316e-19
5.291561798e-19
4.228739899e-19
3.377724433e-19
2.696915265e-19
2.152000334e-19
1.715963634e-19
1.367403522e-19
1.088692798e-19
8.661216994e-20
6.884747478e-20
5.467642824e-20
4.338492208e-20
3.439324123e-20
2.723945136e-20
2.155348293e-20
1.703776619e-20
1.345491309e-20
1.061483799e-20
8.365571649e-21
6.585906582e-21
5.179246339e-21
4.068488429e-21
3.19228873e-21
2.501863072e-21
1.958374425e-21
1.531032407e-21
1.195379841e-21
9.320502622e-22
7.25703597e-22
5.642082357e-22
4.379755462e-22
3.394350737e-22
2.626168967e-22
2.028170675e-22
1.563342146e-22
1.202591078e-22
9.230677157e-23
7.06858158e-23
5.399250575e-23
4.112882734e-23
3.12366445e-23
2.364639055e-23
1.78362502e-23
1.340017328e-23
1.00226936e-23
7.459021085e-24
5.519601563e-24
4.057892821e-24
2.960759271e-24
2.141128959e-24
1.532057701e-24
1.082218332e-24
7.523238279e-25
5.124445706e-25
3.397846865e-25
2.170559053e-25
1.312104019e-25
7.237026996e-26
3.319465712e-26
8.138823896e-27
2.516181518e-30
2.516181518e-30
2.516181518e-30
2.516181518e-30
2.516181518e-30
2.516181518e-30
2.516181518e-30
2.516181518e-30
2.516181518e-30
2.516181518e-30
2.516181518e-30
2.516181518e-30
2.516181518e-30
2.516181518e-30
2.516181518e-30
4.51841951e-28
2.058345238e-27
3.526896588e-27
4.832857473e-27
5.986702244e-27
6.979384871e-27
7.815309342e-27
3.924087302e-25
7.27360746e-25
9.51090543e-25
1.10963211e-24
1.210766272e-24
1.256347871e-24
1.282120336e-24
1.300719152e-24
1.305011005e-24
1.30206155e-24
1.297448447e-24
1.282214553e-24
1.257472084e-24
1.243568843e-24
1.233512909e-24
1.223824909e-24
1.211730634e-24
1.201848794e-24
1.180647166e-24
1.170132321e-24
1.162129473e-24
1.149405631e-24
1.13917855e-24
1.130364423e-24
1.127882011e-24
1.125008374e-24
1.118503623e-24
1.117408031e-24
1.115080352e-24
1.09986283e-24
1.096946504e-24
1.096470705e-24
1.098895165e-24
1.085948004e-24
1.078506666e-24
1.073755215e-24
1.066008021e-24
1.058014192e-24
1.047808033e-24
1.041384483e-24
1.047598442e-24
1.046092582e-24
1.050214572e-24
1.041359434e-24
1.043529761e-24
1.031832396e-24
1.031849853e-24
1.023751612e-24
1.023844108e-24
1.016631921e-24
1.023706845e-24
1.023742037e-24
1.021065335e-24
1.013385337e-24
1.003772112e-24
9.959691473e-25
9.968824044e-25
9.908466533e-25
9.98486658e-25
9.996061205e-25
9.927886222e-25
9.840017388e-25
9.780023698e-25
9.73024016e-25
9.687829467e-25
9.617393656e-25
9.595216529e-25
9.54118523e-25
9.511336767e-25
9.533588079e-25
9.51223633e-25
9.477118869e-25
9.346825326e-25
9.394971991e-25
9.281437392e-25
9.342749351e-25
9.335717578e-25
9.339975785e-25
9.258637888e-25
9.225301844e-25
9.087513126e-25
9.034352434e-25
8.88970096e-25
8.838158753e-25
8.744869622e-25
8.77913869e-25
8.716092389e-25
8.787382532e-25
8.775720132e-25
8.863174753e-25
8.818126719e-25
8.748908941e-25
8.646186235e-25
8.742937684e-25
8.590524548e-25
8.534273157e-25
8.520005285e-25
8.371742309e-25
8.232622749e-25
8.244810179e-25
8.110863474e-25
8.050515351e-25
8.087440938e-25
8.071170393e-25
8.066701108e-25
8.086154259e-25
7.971332859e-25
7.899447448e-25
7.825286003e-25
7.73128576e-25
7.587661609e-25
7.556103145e-25
7.456356739e-25
7.365524297e-25
7.363515404e-25
7.297728075e-25
7.22932099e-25
7.365109015e-25
7.365387003e-25
7.283959836e-25
7.148728845e-25
6.945801092e-25
6.811792493e-25
6.8750652e-25
6.908212781e-25
6.730073043e-25
6.490649511e-25
6.465316086e-25
6.379436298e-25
6.429996534e-25
6.486733409e-25
6.387878769e-25
6.292527451e-25
6.358230661e-25
6.444190184e-25
6.392227947e-25
6.219438146e-25
6.122773842e-25
6.039186752e-25
5.954378327e-25
6.059120492e-25
6.010568602e-25
5.881189173e-25
5.690118222e-25
5.759483982e-25
5.710131843e-25
5.598800406e-25
5.627524065e-25
5.536467852e-25
5.358598962e-25
5.101436508e-25
4.932746742e-25
4.938725128e-25
4.941727081e-25
4.998639848e-25
4.807182461e-25
4.761312086e-25
4.64480528e-25
4.564957975e-25
4.340554553e-25
4.188446381e-25
4.158200236e-25
4.124583946e-25
4.128579759e-25
4.13790898e-25
3.990660889e-25
3.919354071e-25
3.882388003e-25
3.716344045e-25
3.574171341e-25
3.438084815e-25
3.421442773e-25
3.331030884e-25
3.050093321e-25
2.965687862e-25
2.874695657e-25
2.71450829e-25
2.69957863e-25
2.61851118e-25
2.465354128e-25
2.33066364e-25
2.159363509e-25
2.016794714e-25
1.891945663e-25
1.746909333e-25
1.61874965e-25
1.460246098e-25
1.312875545e-25
1.133875645e-25
9.346433713e-26
5.763199657e-26
2.196735014e-26
5.362027439e-13
5.374205653e-13
5.396360151e-13
5.426860379e-13
5.464238826e-13
5.507204844e-13
5.554751954e-13
5.606202209e-13
5.661025503e-13
5.718746626e-13
5.778961863e-13
5.841359533e-13
5.905661892e-13
5.972098777e-13
6.069068992e-13
6.16765728e-13
6.267622467e-13
6.36874486e-13
6.470833428e-13
6.573725687e-13
6.677286728e-13
6.781418934e-13
6.886056429e-13
6.991142304e-13
7.096618749e-13
7.202416901e-13
7.308444401e-13
7.414570479e-13
7.520613241e-13
7.626336056e-13
7.731458135e-13
7.835674105e-13