/*--------------------------------*- C++ -*----------------------------------*\
| =========                 |                                                 |
| \\      /  F ield         | OpenFOAM: The Open Source CFD Toolbox           |
|  \\    /   O peration     | Version:  v2006                                 |
|   \\  /    A nd           | Website:  www.openfoam.com                      |
|    \\/     M anipulation  |                                                 |
\*---------------------------------------------------------------------------*/
FoamFile
{
    version     2.0;
    format      ascii;
    class       volScalarField;
    location    "0.09";
    object      CH2O;
}
// * * * * * * * * * * * * * * * * * * * * * * * * * * * * * * * * * * * * * //

dimensions      [0 0 0 0 0 0 0];


internalField   nonuniform List<scalar> 
72000
(
1.281113389e-07
1.281737743e-07
1.282915718e-07
1.284592637e-07
1.286713838e-07
1.289227842e-07
1.29208689e-07
1.295247237e-07
1.298670168e-07
1.302320654e-07
1.30616605e-07
1.310175325e-07
1.314325162e-07
1.318597482e-07
1.322974599e-07
1.327440132e-07
1.331979065e-07
1.336577959e-07
1.341225079e-07
1.345910353e-07
1.350625049e-07
1.355361637e-07
1.360113515e-07
1.364874586e-07
1.369639109e-07
1.374401364e-07
1.379155338e-07
1.383894535e-07
1.388612007e-07
1.393300692e-07
1.397954092e-07
1.402567196e-07
1.407137238e-07
1.411663544e-07
1.41614658e-07
1.42058697e-07
1.424984915e-07
1.429340132e-07
1.433652218e-07
1.437921221e-07
1.442148036e-07
1.446334326e-07
1.450482095e-07
1.454593088e-07
1.458668296e-07
1.46270768e-07
1.466710111e-07
1.470673469e-07
1.474594848e-07
1.478470862e-07
1.482298435e-07
1.486075983e-07
1.489803413e-07
1.493481129e-07
1.497109064e-07
1.500694656e-07
1.504603607e-07
1.508467073e-07
1.512289756e-07
1.516074151e-07
1.519821417e-07
1.523531872e-07
1.527205347e-07
1.530841409e-07
1.534439426e-07
1.53799849e-07
1.541518016e-07
1.544997221e-07
1.548435338e-07
1.551831961e-07
1.555187375e-07
1.558502687e-07
1.561779756e-07
1.565020976e-07
1.568229017e-07
1.571406616e-07
1.57455636e-07
1.57768041e-07
1.580780263e-07
1.583856664e-07
1.586909656e-07
1.589938719e-07
1.592942971e-07
1.595921395e-07
1.598873077e-07
1.601797414e-07
1.604694265e-07
1.607564028e-07
1.610407624e-07
1.613226405e-07
1.616021944e-07
1.618795981e-07
1.621550146e-07
1.624285857e-07
1.627004251e-07
1.629706184e-07
1.632392284e-07
1.635063059e-07
1.637718827e-07
1.640360015e-07
1.642986988e-07
1.64560018e-07
1.648200147e-07
1.650787643e-07
1.653363696e-07
1.655929641e-07
1.658487137e-07
1.661038102e-07
1.663584638e-07
1.666128941e-07
1.668673205e-07
1.671219532e-07
1.673769848e-07
1.676325835e-07
1.678888884e-07
1.681460095e-07
1.684040289e-07
1.68663005e-07
1.689229764e-07
1.69183965e-07
1.694459742e-07
1.697089783e-07
1.699728986e-07
1.702375804e-07
1.705030148e-07
1.707691777e-07
1.710360485e-07
1.713042664e-07
1.71574245e-07
1.718462911e-07
1.721206589e-07
1.723975736e-07
1.726772415e-07
1.729598545e-07
1.732455928e-07
1.73534627e-07
1.738271199e-07
1.741232288e-07
1.74423108e-07
1.747269102e-07
1.750348204e-07
1.753470144e-07
1.756636473e-07
1.759848251e-07
1.763241332e-07
1.766838265e-07
1.770490047e-07
1.774200092e-07
1.77797118e-07
1.781805725e-07
1.785705914e-07
1.789673777e-07
1.793711235e-07
1.797820128e-07
1.802002239e-07
1.806259325e-07
1.810593149e-07
1.815005514e-07
1.819498296e-07
1.824073463e-07
1.828733083e-07
1.833479312e-07
1.838314386e-07
1.843240598e-07
1.848260296e-07
1.853375879e-07
1.858589804e-07
1.863904589e-07
1.869322813e-07
1.874847109e-07
1.880480153e-07
1.88622466e-07
1.892083351e-07
1.898058941e-07
1.9041541e-07
1.910371381e-07
1.916713106e-07
1.923181103e-07
1.929776307e-07
1.936494408e-07
1.943319266e-07
1.950202804e-07
1.957038565e-07
1.963833334e-07
1.970691645e-07
1.977663015e-07
1.984763743e-07
1.992000464e-07
1.999376838e-07
2.006895694e-07
2.014559756e-07
2.022371906e-07
2.030335241e-07
2.038452866e-07
2.046727565e-07
2.055161842e-07
2.063758103e-07
2.072518846e-07
2.081446221e-07
2.090541144e-07
2.099803662e-07
2.109233478e-07
2.118829138e-07
2.129176633e-07
2.139763104e-07
2.150531841e-07
2.161485521e-07
2.172624621e-07
2.183946572e-07
2.195446693e-07
2.207136864e-07
2.219026999e-07
2.231126535e-07
2.243443243e-07
2.255983892e-07
2.268757512e-07
2.28178321e-07
2.295112608e-07
2.308718504e-07
2.322584312e-07
2.336707278e-07
2.351087832e-07
2.365727635e-07
2.380629312e-07
2.395796245e-07
2.411232403e-07
2.426941666e-07
2.442926673e-07
2.45918644e-07
2.475719627e-07
2.492541768e-07
2.509661711e-07
2.527082655e-07
2.544803187e-07
2.562817944e-07
2.581110482e-07
2.599637908e-07
2.61827995e-07
2.63722859e-07
2.656185957e-07
2.675369627e-07
2.694885125e-07
2.714787993e-07
2.735110062e-07
2.755863095e-07
2.777034101e-07
2.798673699e-07
2.820810521e-07
2.843456144e-07
2.86664194e-07
2.890421833e-07
2.914834426e-07
2.939902897e-07
2.965646247e-07
2.992085677e-07
3.019249213e-07
3.047191291e-07
3.076034286e-07
3.106123546e-07
3.137530372e-07
3.170054463e-07
3.203775151e-07
3.238821439e-07
3.275341518e-07
3.313533881e-07
3.35347776e-07
3.395280982e-07
3.439095657e-07
3.486190125e-07
3.536885617e-07
3.591117942e-07
3.648499094e-07
3.70934206e-07
3.774026094e-07
3.842990899e-07
3.916468616e-07
3.994968537e-07
4.079570198e-07
4.171353543e-07
4.271050925e-07
4.379628109e-07
4.498503976e-07
4.635140871e-07
4.790148892e-07
4.964907395e-07
5.161441554e-07
5.383466314e-07
5.641553527e-07
5.955382476e-07
6.318778901e-07
6.745936726e-07
7.290119076e-07
7.94023852e-07
8.770354062e-07
9.849658683e-07
1.128909468e-06
1.328445339e-06
1.623085503e-06
2.094975679e-06
2.954849972e-06
4.741431422e-06
8.94524502e-06
1.980544096e-05
4.607369258e-05
0.0001176909735
0.0008360181419
0.01001110705
0.006836698771
0.003926930555
0.002332665158
0.001412118596
0.000859332381
0.0005165443187
0.0003084543983
0.0002022651429
0.0001321147818
8.914627472e-05
6.13195771e-05
4.48654995e-05
3.44058022e-05
2.695747996e-05
2.137378458e-05
1.705505594e-05
1.365491741e-05
1.09504682e-05
8.7866208e-06
7.050295151e-06
5.655205999e-06
4.533593152e-06
3.631947869e-06
2.907337444e-06
2.325321732e-06
1.858172665e-06
1.483491789e-06
1.18324332e-06
9.428512376e-07
7.505586821e-07
5.968906233e-07
4.742057672e-07
3.763537219e-07
2.983860861e-07
2.363239955e-07
1.869725401e-07
1.477682572e-07
1.166565344e-07
9.199251668e-08
7.246066403e-08
5.70095805e-08
4.479998624e-08
3.516253078e-08
2.756388133e-08
2.157959998e-08
1.687221506e-08
1.317372487e-08
1.027148789e-08
7.996979054e-09
6.216768693e-09
4.825328528e-09
3.739289382e-09
2.892860657e-09
2.234185669e-09
1.722437323e-09
1.325509008e-09
1.018183749e-09
7.806798251e-10
5.974994608e-10
4.565165267e-10
3.482561178e-10
2.653263489e-10
2.019678536e-10
1.537005135e-10
1.170452108e-10
8.930402789e-11
6.838962479e-11
5.268910105e-11
4.095947278e-11
3.224435775e-11
2.58105242e-11
2.109590209e-11
1.767198058e-11
1.521304104e-11
1.347075034e-11
1.22586485e-11
1.143677507e-11
1.090123171e-11
1.057753115e-11
1.042449865e-11
1.042449865e-11
1.042449865e-11
1.042449865e-11
1.042449865e-11
1.042449865e-11
1.042449865e-11
1.042449865e-11
1.042449865e-11
1.042449865e-11
1.042449865e-11
1.042449865e-11
1.042449865e-11
1.042449865e-11
1.043670636e-11
1.045839001e-11
1.048107478e-11
1.050343245e-11
1.052551854e-11
1.054758281e-11
1.057255312e-11
1.059649034e-11
1.06136384e-11
1.062554191e-11
1.063428903e-11
1.064078219e-11
1.064465986e-11
1.064711042e-11
1.064791602e-11
1.064888724e-11
1.064869032e-11
1.064885642e-11
1.064790884e-11
1.064706962e-11
1.064594456e-11
1.064494722e-11
1.064422753e-11
1.064386393e-11
1.064364746e-11
1.064251223e-11
1.064139837e-11
1.064071083e-11
1.064049112e-11
1.06404181e-11
1.063920373e-11
1.063718666e-11
1.063602076e-11
1.063541293e-11
1.063493377e-11
1.06345849e-11
1.063438748e-11
1.063327553e-11
1.063274784e-11
1.06324451e-11
1.063244659e-11
1.063254233e-11
1.063144274e-11
1.063077423e-11
1.063053854e-11
1.062938435e-11
1.062853762e-11
1.062716916e-11
1.062672165e-11
1.062664291e-11
1.062674833e-11
1.062565359e-11
1.062506117e-11
1.062438863e-11
1.062399694e-11
1.062271109e-11
1.062190145e-11
1.062148565e-11
1.062159855e-11
1.062210501e-11
1.062171994e-11
1.062039479e-11
1.062010957e-11
1.062044646e-11
1.061985151e-11
1.061848023e-11
1.061780384e-11
1.061750426e-11
1.06175489e-11
1.061636113e-11
1.061536017e-11
1.061453302e-11
1.061425044e-11
1.061317329e-11
1.061182637e-11
1.060987937e-11
1.060823286e-11
1.060779218e-11
1.060748684e-11
1.060714977e-11
1.060593642e-11
1.060522575e-11
1.060475576e-11
1.060470824e-11
1.060365737e-11
1.060291832e-11
1.060231392e-11
1.060170474e-11
1.060149593e-11
1.060025082e-11
1.059951464e-11
1.059930423e-11
1.059833912e-11
1.059797714e-11
1.05965754e-11
1.05957249e-11
1.059502421e-11
1.059466413e-11
1.059445973e-11
1.059447684e-11
1.059449914e-11
1.059349038e-11
1.05924052e-11
1.05912619e-11
1.059032827e-11
1.058959029e-11
1.058873709e-11
1.058815127e-11
1.058680087e-11
1.058626484e-11
1.058599702e-11
1.058473229e-11
1.058422727e-11
1.058302088e-11
1.05810642e-11
1.057968378e-11
1.057864858e-11
1.057796235e-11
1.057735211e-11
1.057566596e-11
1.0574593e-11
1.057283313e-11
1.057158292e-11
1.057043099e-11
1.056967254e-11
1.056923391e-11
1.056901467e-11
1.056792256e-11
1.056725631e-11
1.056581464e-11
1.056510272e-11
1.056516563e-11
1.056435265e-11
1.056276775e-11
1.056046398e-11
1.055929767e-11
1.055763159e-11
1.055533865e-11
1.055394872e-11
1.05532318e-11
1.055160442e-11
1.055069439e-11
1.055039528e-11
1.054905625e-11
1.054673845e-11
1.05454146e-11
1.054353413e-11
1.054109102e-11
1.053907616e-11
1.053737552e-11
1.053564876e-11
1.053408211e-11
1.05327831e-11
1.053146611e-11
1.053021813e-11
1.052887259e-11
1.052757224e-11
1.052480803e-11
1.052240014e-11
1.052065691e-11
1.051946425e-11
1.051761996e-11
1.051656498e-11
1.051561688e-11
1.051342002e-11
1.051150163e-11
1.050878143e-11
1.050665963e-11
1.050524462e-11
1.050313389e-11
1.050059335e-11
1.049749793e-11
1.049493283e-11
1.049262474e-11
1.0490526e-11
1.048860384e-11
1.048697974e-11
1.048438156e-11
1.04821318e-11
1.047994907e-11
1.047805375e-11
1.047521204e-11
1.047284549e-11
1.047102961e-11
1.046841707e-11
1.046624623e-11
1.046399497e-11
1.046172611e-11
1.045975584e-11
1.045669939e-11
1.04542257e-11
1.045142123e-11
1.04480005e-11
1.044545369e-11
1.044211207e-11
1.043943103e-11
1.043688807e-11
1.043325662e-11
1.042959674e-11
1.042617485e-11
7.719207244e-08
7.726748556e-08
7.740303021e-08
7.758839919e-08
7.781479487e-08
7.80752923e-08
7.836433589e-08
7.867741565e-08
7.901099117e-08
7.936203149e-08
7.97279515e-08
8.010652793e-08
8.049588445e-08
8.089438335e-08
8.130055067e-08
8.171324102e-08
8.213141814e-08
8.255413608e-08
8.298054879e-08
8.34099073e-08
8.38415594e-08
8.427502014e-08
8.470993602e-08
8.514596534e-08
8.558274844e-08
8.601988179e-08
8.645688851e-08
8.689319467e-08
8.73281258e-08
8.776094056e-08
8.819091748e-08
8.861750342e-08
8.904047895e-08
8.945993832e-08
8.987611101e-08
9.028921564e-08
9.069938463e-08
9.110665831e-08
9.151103196e-08
9.19125272e-08
9.231124276e-08
9.270733935e-08
9.310099091e-08
9.349232358e-08
9.38813689e-08
9.42680421e-08
9.465214047e-08
9.50333548e-08
9.541128835e-08
9.57854755e-08
9.618308578e-08
9.66012748e-08
9.701433569e-08
9.74224294e-08
9.782582798e-08
9.822483236e-08
9.861977407e-08
9.901114812e-08
9.939930384e-08
9.978443801e-08
1.001666235e-07
1.005458432e-07
1.00922019e-07
1.012950281e-07
1.016646977e-07
1.02030796e-07
1.023932386e-07
1.027518928e-07
1.031065955e-07
1.034572232e-07
1.038037693e-07
1.041463384e-07
1.04485117e-07
1.048203391e-07
1.051522592e-07
1.054811405e-07
1.058072464e-07
1.061308006e-07
1.064519483e-07
1.067707423e-07
1.070871498e-07
1.074010709e-07
1.077123607e-07
1.08020856e-07
1.083264016e-07
1.086288754e-07
1.089282069e-07
1.092243875e-07
1.095174703e-07
1.09807565e-07
1.100948077e-07
1.103793589e-07
1.106613655e-07
1.109409508e-07
1.112182048e-07
1.11493183e-07
1.11765912e-07
1.120363968e-07
1.123046282e-07
1.125705903e-07
1.128342622e-07
1.130956234e-07
1.133546609e-07
1.136113792e-07
1.138658128e-07
1.141180465e-07
1.143682366e-07
1.146165694e-07
1.148632438e-07
1.151084595e-07
1.153524086e-07
1.155952676e-07
1.158371894e-07
1.160782968e-07
1.163186786e-07
1.165583896e-07
1.16797454e-07
1.170358701e-07
1.172736154e-07
1.175106519e-07
1.177469289e-07
1.17982381e-07
1.182169181e-07
1.184680654e-07
1.187300069e-07
1.18990798e-07
1.192505875e-07
1.195096431e-07
1.197682313e-07
1.200265863e-07
1.202849147e-07
1.205434042e-07
1.208022246e-07
1.210615281e-07
1.213214505e-07
1.215821122e-07
1.218436203e-07
1.221060695e-07
1.223695433e-07
1.226341302e-07
1.228999888e-07
1.231672739e-07
1.23436119e-07
1.237066271e-07
1.239788638e-07
1.242529643e-07
1.245291664e-07
1.248077215e-07
1.250888293e-07
1.253726611e-07
1.256593647e-07
1.259490645e-07
1.262418735e-07
1.265378982e-07
1.268372398e-07
1.271399964e-07
1.274462657e-07
1.277561486e-07
1.280697525e-07
1.283871939e-07
1.287085989e-07
1.290341022e-07
1.293638464e-07
1.296979813e-07
1.300366648e-07
1.303800625e-07
1.307283441e-07
1.310816804e-07
1.314402415e-07
1.318042016e-07
1.32173736e-07
1.325490244e-07
1.329302407e-07
1.333175612e-07
1.337111626e-07
1.34111205e-07
1.345178355e-07
1.349311666e-07
1.353515209e-07
1.357793262e-07
1.362144704e-07
1.366590002e-07
1.371228797e-07
1.376058275e-07
1.38099397e-07
1.386023436e-07
1.391146841e-07
1.396366166e-07
1.401683564e-07
1.407101244e-07
1.412621596e-07
1.418247322e-07
1.423981532e-07
1.429827454e-07
1.435787639e-07
1.44186424e-07
1.448059385e-07
1.454375848e-07
1.460819583e-07
1.46738928e-07
1.474083106e-07
1.480900927e-07
1.487842779e-07
1.49490868e-07
1.502101767e-07
1.509425221e-07
1.516881756e-07
1.524473329e-07
1.532201087e-07
1.540066398e-07
1.548371762e-07
1.557117621e-07
1.566032338e-07
1.575124112e-07
1.58439814e-07
1.59385876e-07
1.603510172e-07
1.613668723e-07
1.624103396e-07
1.634760863e-07
1.645648128e-07
1.656763499e-07
1.668110145e-07
1.679692677e-07
1.691516751e-07
1.703589142e-07
1.71591713e-07
1.728507333e-07
1.741365348e-07
1.754496819e-07
1.767913531e-07
1.781625739e-07
1.795639176e-07
1.809952323e-07
1.82456749e-07
1.839480049e-07
1.855245566e-07
1.871384773e-07
1.887806044e-07
1.904551649e-07
1.921695591e-07
1.939307137e-07
1.957443016e-07
1.976154044e-07
1.995473938e-07
2.015427247e-07
2.036056222e-07
2.057406172e-07
2.07992595e-07
2.103691155e-07
2.128403697e-07
2.154166491e-07
2.181004187e-07
2.208967484e-07
2.238172779e-07
2.27019594e-07
2.303649362e-07
2.339163855e-07
2.376255631e-07
2.414649603e-07
2.454899884e-07
2.497330121e-07
2.54225832e-07
2.589966281e-07
2.641634746e-07
2.696934469e-07
2.755976226e-07
2.819145168e-07
2.886839565e-07
2.960440932e-07
3.04097735e-07
3.127712174e-07
3.221506332e-07
3.329285496e-07
3.453967986e-07
3.590658946e-07
3.740940552e-07
3.90847612e-07
4.098623221e-07
4.310055311e-07
4.564897788e-07
4.861818591e-07
5.198471899e-07
5.584520182e-07
6.054996935e-07
6.603472185e-07
7.271990255e-07
8.08058169e-07
9.099323665e-07
1.036307645e-06
1.199982341e-06
1.41398526e-06
1.701236455e-06
2.109319801e-06
2.702864838e-06
3.657428297e-06
5.394876658e-06
9.048891852e-06
1.838061387e-05
4.581842371e-05
0.0001398744346
0.0004667305653
0.001478668328
0.003661382402
0.006748141133
0.009700686852
0.00909756187
0.006298674815
0.003969912549
0.002519355374
0.001596262762
0.001009745502
0.0006274825312
0.0003666685013
0.0002245526897
0.0001467691037
9.909986907e-05
6.841866961e-05
4.803731148e-05
3.530337048e-05
2.78670813e-05
2.216214324e-05
1.769896729e-05
1.416693035e-05
1.13528174e-05
9.09990616e-06
7.293124906e-06
5.843224205e-06
4.678807336e-06
3.744098068e-06
2.993861956e-06
2.39201534e-06
1.909576093e-06
1.523050069e-06
1.213673929e-06
9.662389603e-07
7.685104291e-07
6.106595119e-07
4.847525882e-07
3.844221755e-07
3.04551391e-07
2.410280994e-07
1.90556626e-07
1.504947673e-07
1.187269412e-07
9.35616269e-08
7.364752473e-08
5.790530993e-08
4.547439494e-08
3.566905424e-08
2.794322687e-08
2.186284118e-08
1.708296344e-08
1.332993809e-08
1.038677955e-08
8.081660038e-09
6.278626772e-09
4.870230775e-09
3.771644954e-09
2.915973136e-09
2.250522515e-09
1.733837173e-09
1.333334435e-09
1.02344229e-09
7.841123978e-10
5.996477619e-10
4.577741329e-10
3.489078029e-10
2.655751677e-10
2.019577789e-10
1.535324305e-10
1.167884168e-10
8.900546633e-11
6.807963857e-11
5.23869533e-11
4.0676832e-11
3.19870879e-11
2.55811172e-11
2.089448876e-11
1.749696509e-11
1.506177487e-11
1.334052948e-11
1.214668965e-11
1.133896075e-11
1.081298254e-11
1.049115536e-11
1.042449865e-11
1.042449865e-11
1.042449865e-11
1.042449865e-11
1.042449865e-11
1.042449865e-11
1.042449865e-11
1.042449865e-11
1.042449865e-11
1.042449865e-11
1.042449865e-11
1.042449865e-11
1.042449865e-11
1.042449865e-11
1.042668724e-11
1.045180245e-11
1.047576786e-11
1.049878964e-11
1.052058629e-11
1.054076132e-11
1.055958831e-11
1.058283032e-11
1.059910332e-11
1.061097655e-11
1.061924837e-11
1.062588936e-11
1.063001816e-11
1.063233631e-11
1.063345561e-11
1.063430707e-11
1.063434833e-11
1.063444562e-11
1.0634225e-11
1.063389888e-11
1.063273331e-11
1.06317997e-11
1.063102519e-11
1.06308441e-11
1.06302847e-11
1.06299536e-11
1.062862727e-11
1.06279814e-11
1.062790099e-11
1.062764579e-11
1.06262972e-11
1.062460575e-11
1.062370748e-11
1.062344023e-11
1.062295666e-11
1.062253845e-11
1.062186896e-11
1.062106119e-11
1.06208753e-11
1.062052333e-11
1.06205466e-11
1.062039777e-11
1.061946178e-11
1.061878396e-11
1.061830536e-11
1.061760932e-11
1.061618536e-11
1.061509833e-11
1.061500406e-11
1.06148663e-11
1.061494133e-11
1.061386129e-11
1.061337182e-11
1.061292907e-11
1.061209949e-11
1.061124195e-11
1.061057692e-11
1.06100648e-11
1.061012549e-11
1.061018186e-11
1.061007974e-11
1.060896671e-11
1.060854592e-11
1.060862675e-11
1.060802656e-11
1.060702466e-11
1.060652555e-11
1.06062687e-11
1.060619102e-11
1.060541871e-11
1.060448421e-11
1.060334465e-11
1.060274623e-11
1.060120636e-11
1.060031232e-11
1.059905692e-11
1.059786819e-11
1.059741747e-11
1.059713638e-11
1.059613323e-11
1.059534509e-11
1.059478548e-11
1.059421432e-11
1.059391296e-11
1.059322387e-11
1.059272012e-11
1.059229285e-11
1.059132789e-11
1.059087983e-11
1.058995648e-11
1.05892187e-11
1.058864756e-11
1.058793716e-11
1.058756166e-11
1.058648223e-11
1.058604074e-11
1.058525584e-11
1.058495953e-11
1.058476482e-11
1.05847581e-11
1.058416358e-11
1.058388553e-11
1.058293302e-11
1.058165458e-11
1.058084741e-11
1.058026828e-11
1.057930224e-11
1.057811937e-11
1.057717618e-11
1.057673609e-11
1.057617434e-11
1.057492215e-11
1.057420955e-11
1.057310211e-11
1.057176625e-11
1.057061926e-11
1.056967243e-11
1.056917e-11
1.056808244e-11
1.056652609e-11
1.05652604e-11
1.056404911e-11
1.056326158e-11
1.056198949e-11
1.056116497e-11
1.056077489e-11
1.056019218e-11
1.055931366e-11
1.055835172e-11
1.055720018e-11
1.055638398e-11
1.055622602e-11
1.055535215e-11
1.055384982e-11
1.055170846e-11
1.055044049e-11
1.054899438e-11
1.054713122e-11
1.054595013e-11
1.054508314e-11
1.054354757e-11
1.054271439e-11
1.054231428e-11
1.054096259e-11
1.053866135e-11
1.053721957e-11
1.053550123e-11
1.053378583e-11
1.053244392e-11
1.053065753e-11
1.052890321e-11
1.052730667e-11
1.05260625e-11
1.052485262e-11
1.052379968e-11
1.052224279e-11
1.052085958e-11
1.05183466e-11
1.051602113e-11
1.051409345e-11
1.051264317e-11
1.051105252e-11
1.051049961e-11
1.050916633e-11
1.050731917e-11
1.050499991e-11
1.050274341e-11
1.050060194e-11
1.0498893e-11
1.049661316e-11
1.049436262e-11
1.049204083e-11
1.048983053e-11
1.048762364e-11
1.048558191e-11
1.048367742e-11
1.048167932e-11
1.047953223e-11
1.047766644e-11
1.047533344e-11
1.047316879e-11
1.047066157e-11
1.046842707e-11
1.046638021e-11
1.046425676e-11
1.04625753e-11
1.046046797e-11
1.045794167e-11
1.045586691e-11
1.045290949e-11
1.045003203e-11
1.044760653e-11
1.044459855e-11
1.04422356e-11
1.043930649e-11
1.043708201e-11
1.04346202e-11
1.043164162e-11
1.042827678e-11
1.042556549e-11
5.064017158e-08
5.070550217e-08
5.082345168e-08
5.098434174e-08
5.11799982e-08
5.140378228e-08
5.165051635e-08
5.191634481e-08
5.219830638e-08
5.249394374e-08
5.280121346e-08
5.31184335e-08
5.344414535e-08
5.377699131e-08
5.411561306e-08
5.445928812e-08
5.480723908e-08
5.515873782e-08
5.551313412e-08
5.586984583e-08
5.626419625e-08
5.669707688e-08
5.713149279e-08
5.756721627e-08
5.800398149e-08
5.844146445e-08
5.887924466e-08
5.931676508e-08
5.975330926e-08
6.018801911e-08
6.061998148e-08
6.104843686e-08
6.147316557e-08
6.189445928e-08
6.231274584e-08
6.272837977e-08
6.314155053e-08
6.355228509e-08
6.396052291e-08
6.436623621e-08
6.476953357e-08
6.51706188e-08
6.556972049e-08
6.59670022e-08
6.636250223e-08
6.675611479e-08
6.714759553e-08
6.753657847e-08
6.792260171e-08
6.830514574e-08
6.868369617e-08
6.905788801e-08
6.942755414e-08
6.979286834e-08
7.015421109e-08
7.051199543e-08
7.086662698e-08
7.121847704e-08
7.156780565e-08
7.191474793e-08
7.225933051e-08
7.260150055e-08
7.2941157e-08
7.327816942e-08
7.361236126e-08
7.399645286e-08
7.438455717e-08
7.476876999e-08
7.514882076e-08
7.552447275e-08
7.589569978e-08
7.626262666e-08
7.662547762e-08
7.69845238e-08
7.734004277e-08
7.769232024e-08
7.804167618e-08
7.838839152e-08
7.873263708e-08
7.907446063e-08
7.941380259e-08
7.975052068e-08
8.008441756e-08
8.041527135e-08
8.074286864e-08
8.106703609e-08
8.138766496e-08
8.170472397e-08
8.201826166e-08
8.232839702e-08
8.263529089e-08
8.293912723e-08
8.324007453e-08
8.353826761e-08
8.383379679e-08
8.412670767e-08
8.441700875e-08
8.470468356e-08
8.498970134e-08
8.527202276e-08
8.55516007e-08
8.582838357e-08
8.610232343e-08
8.637338764e-08
8.66415747e-08
8.690694961e-08
8.716969018e-08
8.743000585e-08
8.768811502e-08
8.794423286e-08
8.81985629e-08
8.845129057e-08
8.870257364e-08
8.89525329e-08
8.920124771e-08
8.944875703e-08
8.969506402e-08
8.994014273e-08
9.018394567e-08
9.042641164e-08
9.066747337e-08
9.090706537e-08
9.114513452e-08
9.13816633e-08
9.161667314e-08
9.185022479e-08
9.20824261e-08
9.231345212e-08
9.254348803e-08
9.277270921e-08
9.300128047e-08
9.322936011e-08
9.34570934e-08
9.368460904e-08
9.391201892e-08
9.413941974e-08
9.436689482e-08
9.459451373e-08
9.482232284e-08
9.508208951e-08
9.534234977e-08
9.560302733e-08
9.586427258e-08
9.612622291e-08
9.638901296e-08
9.665335886e-08
9.692029872e-08
9.718868762e-08
9.745869767e-08
9.773049622e-08
9.800423589e-08
9.82800032e-08
9.855789663e-08
9.883801088e-08
9.912043469e-08
9.940525255e-08
9.969254818e-08
9.998240886e-08
1.002749301e-07
1.005702193e-07
1.008683968e-07
1.011695937e-07
1.014739499e-07
1.017816134e-07
1.020927424e-07
1.024075063e-07
1.027260803e-07
1.030486361e-07
1.03375343e-07
1.03706377e-07
1.040419159e-07
1.043821444e-07
1.047272418e-07
1.050773926e-07
1.054327823e-07
1.057935875e-07
1.061599822e-07
1.065321346e-07
1.069102129e-07
1.072945133e-07
1.07685769e-07
1.080852986e-07
1.084949994e-07
1.089150498e-07
1.093441503e-07
1.097816079e-07
1.102272488e-07
1.106811213e-07
1.111433649e-07
1.116141663e-07
1.1209375e-07
1.125823871e-07
1.130804391e-07
1.135885133e-07
1.141067456e-07
1.14635249e-07
1.151741766e-07
1.157236158e-07
1.162930154e-07
1.168770604e-07
1.174723094e-07
1.180788909e-07
1.186969233e-07
1.193265502e-07
1.19968015e-07
1.206216071e-07
1.212876439e-07
1.219664457e-07
1.226583381e-07
1.233637102e-07
1.240831247e-07
1.248173069e-07
1.255671507e-07
1.263338638e-07
1.271173755e-07
1.279177515e-07
1.287347086e-07
1.295665576e-07
1.304152966e-07
1.313033531e-07
1.322383401e-07
1.331948211e-07
1.341734541e-07
1.351748359e-07
1.361996424e-07
1.372487488e-07
1.38323047e-07
1.39423604e-07
1.405514478e-07
1.417608076e-07
1.430174951e-07
1.443065597e-07
1.456290437e-07
1.470299752e-07
1.484880606e-07
1.499845952e-07
1.515207063e-07
1.530958326e-07
1.547113148e-07
1.563715687e-07
1.580824608e-07
1.598498098e-07
1.616793236e-07
1.636299418e-07
1.656828749e-07
1.678164097e-07
1.700354699e-07
1.723464314e-07
1.747571402e-07
1.772754455e-07
1.799095391e-07
1.827691222e-07
1.857701018e-07
1.889171499e-07
1.92219971e-07
1.956870417e-07
1.993287056e-07
2.032817587e-07
2.074809776e-07
2.119025022e-07
2.1657926e-07
2.215437868e-07
2.269940284e-07
2.329344607e-07
2.393099681e-07
2.465549524e-07
2.544527609e-07
2.632430985e-07
2.72766715e-07
2.83097561e-07
2.945380444e-07
3.072017019e-07
3.210778829e-07
3.364933746e-07
3.538467109e-07
3.743912468e-07
3.976807996e-07
4.241080304e-07
4.539781231e-07
4.885321717e-07
5.303530644e-07
5.791062516e-07
6.353010595e-07
7.061736369e-07
7.894009546e-07
8.926301316e-07
1.017269929e-06
1.177847665e-06
1.380351767e-06
1.642598943e-06
1.987978311e-06
2.452612037e-06
3.102622789e-06
4.044353178e-06
5.516661046e-06
8.013644953e-06
1.292349002e-05
2.473849235e-05
5.743113708e-05
0.0001619880713
0.0004967476844
0.001458554802
0.003514035173
0.006387451482
0.009091387218
0.01033463022
0.009161215989
0.007077784054
0.005065972654
0.003632890274
0.002490459295
0.001668185749
0.00109477331
0.0006528079521
0.0003989548681
0.0002569172981
0.0001715757501
0.0001162683003
7.927750074e-05
5.425820827e-05
3.693371256e-05
2.719776671e-05
2.165331337e-05
1.727350488e-05
1.379914527e-05
1.102729091e-05
8.813217986e-06
7.04306574e-06
5.625681569e-06
4.491779568e-06
3.58421228e-06
2.857983977e-06
2.277449774e-06
1.813251196e-06
1.442554347e-06
1.146679609e-06
9.106578461e-07
7.225954341e-07
5.728370968e-07
4.536892206e-07
3.589882197e-07
2.837780068e-07
2.241048342e-07
1.768027856e-07
1.393407812e-07
1.097000849e-07
8.627186245e-08
6.777195565e-08
5.317866522e-08
4.167948055e-08
3.262756274e-08
2.551009148e-08
1.991972733e-08
1.553391777e-08
1.209717062e-08
9.407431388e-09
7.304999371e-09
5.66378706e-09
4.384364152e-09
3.388385409e-09
2.614203708e-09
2.013365212e-09
1.547813168e-09
1.187711598e-09
9.096810054e-10
6.954337336e-10
5.306773461e-10
4.042600688e-10
3.074909583e-10
2.336071635e-10
1.773545284e-10
1.34656023e-10
1.023545826e-10
7.800951585e-11
5.973652563e-11
4.608541025e-11
3.594120025e-11
2.844903086e-11
2.295456846e-11
1.895932893e-11
1.608364222e-11
1.403956854e-11
1.260979361e-11
1.162979882e-11
1.097732074e-11
1.056001057e-11
1.042449865e-11
1.042449865e-11
1.042449865e-11
1.042449865e-11
1.042449865e-11
1.042449865e-11
1.042449865e-11
1.042449865e-11
1.042449865e-11
1.042449865e-11
1.042449865e-11
1.042449865e-11
1.042449865e-11
1.042449865e-11
1.042449865e-11
1.043198227e-11
1.045873892e-11
1.048319795e-11
1.0504949e-11
1.052416653e-11
1.054069987e-11
1.055462236e-11
1.057291118e-11
1.058782495e-11
1.059844061e-11
1.060645578e-11
1.061220507e-11
1.061546391e-11
1.061744456e-11
1.06189106e-11
1.061977987e-11
1.062020447e-11
1.062044755e-11
1.062021058e-11
1.061934732e-11
1.061877243e-11
1.061836496e-11
1.061810142e-11
1.061773469e-11
1.061735444e-11
1.061634167e-11
1.061571125e-11
1.061526929e-11
1.061447029e-11
1.0613606e-11
1.061257768e-11
1.06119245e-11
1.061145761e-11
1.061083351e-11
1.061053852e-11
1.061030818e-11
1.060938644e-11
1.060892661e-11
1.060866174e-11
1.060858907e-11
1.060790049e-11
1.060723602e-11
1.060661108e-11
1.060587916e-11
1.060510869e-11
1.060411413e-11
1.060316691e-11
1.060301698e-11
1.060259109e-11
1.060254616e-11
1.060179226e-11
1.060155614e-11
1.060061911e-11
1.060019177e-11
1.059935784e-11
1.059898346e-11
1.059830573e-11
1.059837286e-11
1.05982409e-11
1.059794225e-11
1.059737206e-11
1.059667835e-11
1.059597503e-11
1.059562684e-11
1.059491503e-11
1.059481913e-11
1.059455424e-11
1.05939873e-11
1.059317337e-11
1.059234941e-11
1.059153582e-11
1.059079428e-11
1.058981298e-11
1.058902051e-11
1.058807374e-11
1.058719081e-11
1.058667065e-11
1.058605604e-11
1.058549332e-11
1.058439323e-11
1.058415613e-11
1.058320216e-11
1.058310999e-11
1.058264854e-11
1.058232038e-11
1.058161248e-11
1.058114437e-11
1.058024722e-11
1.057955364e-11
1.057847655e-11
1.057784559e-11
1.057686051e-11
1.057648895e-11
1.057560746e-11
1.057537866e-11
1.057486446e-11
1.057498851e-11
1.057464171e-11
1.057425288e-11
1.057335403e-11
1.057340347e-11
1.057232483e-11
1.057151028e-11
1.057096517e-11
1.056985715e-11
1.056865836e-11
1.056813209e-11
1.056693169e-11
1.056599615e-11
1.056550115e-11
1.056473229e-11
1.05639908e-11
1.056335816e-11
1.056217592e-11
1.056117392e-11
1.056021097e-11
1.055923834e-11
1.055795736e-11
1.055709875e-11
1.055589098e-11
1.055468902e-11
1.055397617e-11
1.055307736e-11
1.055212384e-11
1.055208244e-11
1.055158798e-11
1.055073139e-11
1.054954627e-11
1.054811195e-11
1.054680847e-11
1.05463915e-11
1.054582762e-11
1.054426825e-11
1.054212988e-11
1.054086781e-11
1.053929749e-11
1.053829296e-11
1.053752245e-11
1.053612438e-11
1.053481643e-11
1.053413895e-11
1.05336878e-11
1.053259664e-11
1.053085186e-11
1.052927202e-11
1.05276904e-11
1.052598954e-11
1.052522519e-11
1.052382993e-11
1.052209804e-11
1.052006552e-11
1.051926463e-11
1.051797272e-11
1.051637961e-11
1.051538916e-11
1.05138145e-11
1.051174878e-11
1.05092683e-11
1.050717129e-11
1.05058783e-11
1.050465464e-11
1.050369836e-11
1.050174031e-11
1.050026324e-11
1.04984282e-11
1.049661244e-11
1.049411776e-11
1.049187149e-11
1.049008684e-11
1.048819452e-11
1.048647189e-11
1.048477568e-11
1.048248559e-11
1.048053234e-11
1.047880563e-11
1.047656735e-11
1.047435268e-11
1.047222137e-11
1.047059441e-11
1.04686567e-11
1.0465834e-11
1.046384683e-11
1.046190005e-11
1.045960211e-11
1.045795478e-11
1.045602176e-11
1.045370411e-11
1.045150429e-11
1.044912885e-11
1.044673321e-11
1.044440838e-11
1.04419722e-11
1.043963881e-11
1.043727293e-11
1.043501824e-11
1.043274435e-11
1.043052337e-11
1.042783025e-11
1.042553647e-11
3.28734052e-08
3.292954883e-08
3.303101097e-08
3.316943574e-08
3.333747069e-08
3.352889555e-08
3.373892074e-08
3.396441119e-08
3.420299636e-08
3.445263459e-08
3.471163834e-08
3.497873661e-08
3.525281479e-08
3.553408667e-08
3.589521145e-08
3.626156156e-08
3.663230391e-08
3.700668615e-08
3.738406558e-08
3.776391303e-08
3.814582412e-08
3.852949871e-08
3.891471856e-08
3.930132078e-08
3.968914204e-08
4.00779747e-08
4.046751652e-08
4.085731107e-08
4.12466961e-08
4.163478534e-08
4.202049965e-08
4.240261155e-08
4.27809138e-08
4.315612031e-08
4.352887711e-08