/*--------------------------------*- C++ -*----------------------------------*\
| =========                 |                                                 |
| \\      /  F ield         | OpenFOAM: The Open Source CFD Toolbox           |
|  \\    /   O peration     | Version:  v2006                                 |
|   \\  /    A nd           | Website:  www.openfoam.com                      |
|    \\/     M anipulation  |                                                 |
\*---------------------------------------------------------------------------*/
FoamFile
{
    version     2.0;
    format      ascii;
    class       volScalarField;
    location    "0.09";
    object      CH3;
}
// * * * * * * * * * * * * * * * * * * * * * * * * * * * * * * * * * * * * * //

dimensions      [0 0 0 0 0 0 0];


internalField   nonuniform List<scalar> 
72000
(
8.196747477e-09
8.200950364e-09
8.208918528e-09
8.220299777e-09
8.234736957e-09
8.251885204e-09
8.271421273e-09
8.293046063e-09
8.316493936e-09
8.341523421e-09
8.367908485e-09
8.395432963e-09
8.423935565e-09
8.453292045e-09
8.483379856e-09
8.514084722e-09
8.545301718e-09
8.576936995e-09
8.608908745e-09
8.64114697e-09
8.673591046e-09
8.706188246e-09
8.738891861e-09
8.771658868e-09
8.80444898e-09
8.837222291e-09
8.869937064e-09
8.902548423e-09
8.935008566e-09
8.967269062e-09
8.999285425e-09
9.031023257e-09
9.062463272e-09
9.093600262e-09
9.124436691e-09
9.154976113e-09
9.185219238e-09
9.215163502e-09
9.244805633e-09
9.274145585e-09
9.303189318e-09
9.331948305e-09
9.360436503e-09
9.388666242e-09
9.416644724e-09
9.444372095e-09
9.471841053e-09
9.499037538e-09
9.525942107e-09
9.552531954e-09
9.578785792e-09
9.604693339e-09
9.630254944e-09
9.655473142e-09
9.680346244e-09
9.704943145e-09
9.732697351e-09
9.760125396e-09
9.787260462e-09
9.814120201e-09
9.840712828e-09
9.867040662e-09
9.893102657e-09
9.918896042e-09
9.944416808e-09
9.969658984e-09
9.994618631e-09
1.001929034e-08
1.004366892e-08
1.006775173e-08
1.009154092e-08
1.011504439e-08
1.01382754e-08
1.016125106e-08
1.018399048e-08
1.020651322e-08
1.022883776e-08
1.025097951e-08
1.027294916e-08
1.029475212e-08
1.031638884e-08
1.033785582e-08
1.035914699e-08
1.038025537e-08
1.040117473e-08
1.042190104e-08
1.04424336e-08
1.046277549e-08
1.048293351e-08
1.050291751e-08
1.052273882e-08
1.054241002e-08
1.056194285e-08
1.058134754e-08
1.060063234e-08
1.061980352e-08
1.063886575e-08
1.06578229e-08
1.067667745e-08
1.069543281e-08
1.071409191e-08
1.07326582e-08
1.075113603e-08
1.076953117e-08
1.078785133e-08
1.080610632e-08
1.082430808e-08
1.084247036e-08
1.086060827e-08
1.087873763e-08
1.08968743e-08
1.09150335e-08
1.093322927e-08
1.095147391e-08
1.096977769e-08
1.098814882e-08
1.100659354e-08
1.102511645e-08
1.104372072e-08
1.106240837e-08
1.108118011e-08
1.110003457e-08
1.111896643e-08
1.113796402e-08
1.11570272e-08
1.117615456e-08
1.119534413e-08
1.121464319e-08
1.12340819e-08
1.12536826e-08
1.127346382e-08
1.129344206e-08
1.131363248e-08
1.133404921e-08
1.135470563e-08
1.137561442e-08
1.139678775e-08
1.141823746e-08
1.143997522e-08
1.146201254e-08
1.148436316e-08
1.150704013e-08
1.153005512e-08
1.155341648e-08
1.157820373e-08
1.160459415e-08
1.163140144e-08
1.165865063e-08
1.168636232e-08
1.171455452e-08
1.174324362e-08
1.177244494e-08
1.180217305e-08
1.183244194e-08
1.186326521e-08
1.189465626e-08
1.192662859e-08
1.1959196e-08
1.199237283e-08
1.202617413e-08
1.20606157e-08
1.209571399e-08
1.213148605e-08
1.216794938e-08
1.220512186e-08
1.224302176e-08
1.228166781e-08
1.232107923e-08
1.236127575e-08
1.240227753e-08
1.244410512e-08
1.248677933e-08
1.253032117e-08
1.257475158e-08
1.262009118e-08
1.266635989e-08
1.271357596e-08
1.276175411e-08
1.281090232e-08
1.286098927e-08
1.291189999e-08
1.296329163e-08
1.301832181e-08
1.307679671e-08
1.313603709e-08
1.319641152e-08
1.325804537e-08
1.332099464e-08
1.338529468e-08
1.34509755e-08
1.351806692e-08
1.358660048e-08
1.365660971e-08
1.37281288e-08
1.380119012e-08
1.387582444e-08
1.395206207e-08
1.402993412e-08
1.410946944e-08
1.419068849e-08
1.427360611e-08
1.435823576e-08
1.444458555e-08
1.453658813e-08
1.46308246e-08
1.472693217e-08
1.482494528e-08
1.492488062e-08
1.502672265e-08
1.513041954e-08
1.52361066e-08
1.53438865e-08
1.54538616e-08
1.556611346e-08
1.56807161e-08
1.579776148e-08
1.591741819e-08
1.604010251e-08
1.616563594e-08
1.629392028e-08
1.642496353e-08
1.655879997e-08
1.669547283e-08
1.683503246e-08
1.697753581e-08
1.712304585e-08
1.727162651e-08
1.742333335e-08
1.757818256e-08
1.773617913e-08
1.789752545e-08
1.806234491e-08
1.823070802e-08
1.84026479e-08
1.857818029e-08
1.875723644e-08
1.893950902e-08
1.91241844e-08
1.93397127e-08
1.956596707e-08
1.979700862e-08
2.003378422e-08
2.027684983e-08
2.05265719e-08
2.078314757e-08
2.104648164e-08
2.131730186e-08
2.159604324e-08
2.188292123e-08
2.217838435e-08
2.248314828e-08
2.279775673e-08
2.312263114e-08
2.345816938e-08
2.380478991e-08
2.416294364e-08
2.453342548e-08
2.491754561e-08
2.533850719e-08
2.579903759e-08
2.627815129e-08
2.677710137e-08
2.729760734e-08
2.784162511e-08
2.841158366e-08
2.900893294e-08
2.963545068e-08
3.029338236e-08
3.099709198e-08
3.175161906e-08
3.261855987e-08
3.353784367e-08
3.451265668e-08
3.554847673e-08
3.665112042e-08
3.782464397e-08
3.907646681e-08
4.045150941e-08
4.199624034e-08
4.367060239e-08
4.548966221e-08
4.747354027e-08
4.970530236e-08
5.229428729e-08
5.521000902e-08
5.846076233e-08
6.210111153e-08
6.638529283e-08
7.158911009e-08
7.755384966e-08
8.446752422e-08
9.33638453e-08
1.038442285e-07
1.16620331e-07
1.32957428e-07
1.537647592e-07
1.803699697e-07
2.157815822e-07
2.633732135e-07
3.288913462e-07
4.222048849e-07
5.566822774e-07
7.696410453e-07
1.147638373e-06
2.281032481e-06
1.984759213e-05
3.467475317e-06
1.702311428e-06
6.232724402e-07
3.451708297e-07
2.125750365e-07
1.250055963e-07
6.837329687e-08
3.305661747e-08
1.978695033e-08
1.178011529e-08
6.849383147e-09
4.128528206e-09
2.892284888e-09
2.218069677e-09
1.737962844e-09
1.378046849e-09
1.099668569e-09
8.805011254e-10
7.061766931e-10
5.666985812e-10
4.547778314e-10
3.648526357e-10
2.925552814e-10
2.344366812e-10
1.877294625e-10
1.502136687e-10
1.201019936e-10
9.595066894e-11
7.659713702e-11
6.110185131e-11
4.870698345e-11
3.880178832e-11
3.089372045e-11
2.45863355e-11
1.956066749e-11
1.556024527e-11
1.237913009e-11
9.85208527e-12
7.846673822e-12
6.256871033e-12
4.997879326e-12
4.001927413e-12
3.214916667e-12
2.593701838e-12
2.103905155e-12
1.718168035e-12
1.414737599e-12
1.176338889e-12
9.892653756e-13
8.426542062e-13
7.279047188e-13
6.382147309e-13
5.682103999e-13
5.1365097e-13
4.711938431e-13
4.382073704e-13
4.126220116e-13
3.928123213e-13
3.775032016e-13
3.656956909e-13
3.566081584e-13
3.496298672e-13
3.442843481e-13
3.402003617e-13
3.370891268e-13
3.347263852e-13
3.329382333e-13
3.315901246e-13
3.305780942e-13
3.298220213e-13
3.29260259e-13
3.288455445e-13
3.285416475e-13
3.283209471e-13
3.281624478e-13
3.280501426e-13
3.279720124e-13
3.279190358e-13
3.278845155e-13
3.278636503e-13
3.278537861e-13
3.278537861e-13
3.278537861e-13
3.278537861e-13
3.278537861e-13
3.278537861e-13
3.278537861e-13
3.278537861e-13
3.278537861e-13
3.278537861e-13
3.278537861e-13
3.278537861e-13
3.278537861e-13
3.278537861e-13
3.27854573e-13
3.278559707e-13
3.278574329e-13
3.27858874e-13
3.278602977e-13
3.278617199e-13
3.278637968e-13
3.278659195e-13
3.278672812e-13
3.278681676e-13
3.278688196e-13
3.278693092e-13
3.278695613e-13
3.278697199e-13
3.27869731e-13
3.278698069e-13
3.27869754e-13
3.278697785e-13
3.278696716e-13
3.27869596e-13
3.278694896e-13
3.278694007e-13
3.278693426e-13
3.2786932e-13
3.278693214e-13
3.278692058e-13
3.278691053e-13
3.278690541e-13
3.278690513e-13
3.27869076e-13
3.278689697e-13
3.278687808e-13
3.278686975e-13
3.27868665e-13
3.278686348e-13
3.278686134e-13
3.278686184e-13
3.278685063e-13
3.278684695e-13
3.278684502e-13
3.278684619e-13
3.278684964e-13
3.27868382e-13
3.27868334e-13
3.278683445e-13
3.278682375e-13
3.278681844e-13
3.278680582e-13
3.27868037e-13
3.278680502e-13
3.278680869e-13
3.278679741e-13
3.278679371e-13
3.278678867e-13
3.278678792e-13
3.278677555e-13
3.278676951e-13
3.278676663e-13
3.27867689e-13
3.278677619e-13
3.278677305e-13
3.278675878e-13
3.278675775e-13
3.278676418e-13
3.27867596e-13
3.278674608e-13
3.278674139e-13
3.278674052e-13
3.278674419e-13
3.278673275e-13
3.278672497e-13
3.278671898e-13
3.278672012e-13
3.278671182e-13
3.278670216e-13
3.278668502e-13
3.27866708e-13
3.278667066e-13
3.27866704e-13
3.278666988e-13
3.2786658e-13
3.278665302e-13
3.278665042e-13
3.27866531e-13
3.278664291e-13
3.278663757e-13
3.278663352e-13
3.278662862e-13
3.278662976e-13
3.278661752e-13
3.278661233e-13
3.278661379e-13
3.278660491e-13
3.278660521e-13
3.278659191e-13
3.278658626e-13
3.278658066e-13
3.278657883e-13
3.278657778e-13
3.27865792e-13
3.278658186e-13
3.27865726e-13
3.278656393e-13
3.278655465e-13
3.2786548e-13
3.278654339e-13
3.278653723e-13
3.278653481e-13
3.27865221e-13
3.27865198e-13
3.278652116e-13
3.278650943e-13
3.278650875e-13
3.27865002e-13
3.278648284e-13
3.27864727e-13
3.27864657e-13
3.278646212e-13
3.278646022e-13
3.278644484e-13
3.278643914e-13
3.278642392e-13
3.278641535e-13
3.278640653e-13
3.278640151e-13
3.278639978e-13
3.2786401e-13
3.278639093e-13
3.278638797e-13
3.27863744e-13
3.278636996e-13
3.278637515e-13
3.278637022e-13
3.27863578e-13
3.278633767e-13
3.278633264e-13
3.278632097e-13
3.278630109e-13
3.278629223e-13
3.278629088e-13
3.278627634e-13
3.278627106e-13
3.278627362e-13
3.27862639e-13
3.278624314e-13
3.278623685e-13
3.27862238e-13
3.278620366e-13
3.278618921e-13
3.27861782e-13
3.27861659e-13
3.278615493e-13
3.27861467e-13
3.278613788e-13
3.278613012e-13
3.278612131e-13
3.278611517e-13
3.278609125e-13
3.278607261e-13
3.278606098e-13
3.278605576e-13
3.278604082e-13
3.278603572e-13
3.278603258e-13
3.278601452e-13
3.278600222e-13
3.278597988e-13
3.278596512e-13
3.278595926e-13
3.278594466e-13
3.278592666e-13
3.278590199e-13
3.278588407e-13
3.278586827e-13
3.278585407e-13
3.278584144e-13
3.278583303e-13
3.278581231e-13
3.278579685e-13
3.278578156e-13
3.278577078e-13
3.278574764e-13
3.278573106e-13
3.278572128e-13
3.278570071e-13
3.27856864e-13
3.278567068e-13
3.27856547e-13
3.278564376e-13
3.278561896e-13
3.278560329e-13
3.278558363e-13
3.278555622e-13
3.278554083e-13
3.278551425e-13
3.278549615e-13
3.278548041e-13
3.278545067e-13
3.278542131e-13
3.278539381e-13
6.679228389e-09
6.685929781e-09
6.698118878e-09
6.714972747e-09
6.735762477e-09
6.759887312e-09
6.786854065e-09
6.816238357e-09
6.847710569e-09
6.880975254e-09
6.915777249e-09
6.951894878e-09
6.989140548e-09
7.027351266e-09
7.066379203e-09
7.106101852e-09
7.146407629e-09
7.187195821e-09
7.228377424e-09
7.269875779e-09
7.311630599e-09
7.353588934e-09
7.395701384e-09
7.437926999e-09
7.480225671e-09
7.522554479e-09
7.564864619e-09
7.607099195e-09
7.649192974e-09
7.691075539e-09
7.732679069e-09
7.773951153e-09
7.81486857e-09
7.855435512e-09
7.895668264e-09
7.935582202e-09
7.975184889e-09
8.014475563e-09
8.053449742e-09
8.092106417e-09
8.130453448e-09
8.168506259e-09
8.206282935e-09
8.24379783e-09
8.281056599e-09
8.318053903e-09
8.354773282e-09
8.39118838e-09
8.427264942e-09
8.462962873e-09
8.500740711e-09
8.540344222e-09
8.579451605e-09
8.618075465e-09
8.656235941e-09
8.693956416e-09
8.731263803e-09
8.76820672e-09
8.804818041e-09
8.841116059e-09
8.877107637e-09
8.912791603e-09
8.948161757e-09
8.983208822e-09
9.017921237e-09
9.052288161e-09
9.086297421e-09
9.11993615e-09
9.153191457e-09
9.186054148e-09
9.218524211e-09
9.250611569e-09
9.282334307e-09
9.313715541e-09
9.344780615e-09
9.37555563e-09
9.406066228e-09
9.436333988e-09
9.466373151e-09
9.496189557e-09
9.525781321e-09
9.555140449e-09
9.584254961e-09
9.613111307e-09
9.641696884e-09
9.670002331e-09
9.698023254e-09
9.725761048e-09
9.753222843e-09
9.780421157e-09
9.807369825e-09
9.834086015e-09
9.860584847e-09
9.886879288e-09
9.91297918e-09
9.938891228e-09
9.964619563e-09
9.990166607e-09
1.00155337e-08
1.004072193e-08
1.006573214e-08
1.009056537e-08
1.011522354e-08
1.013971051e-08
1.016403311e-08
1.018820214e-08
1.021223318e-08
1.023614461e-08
1.025995657e-08
1.028368973e-08
1.030736439e-08
1.033099967e-08
1.035461272e-08
1.037821801e-08
1.040182692e-08
1.042544776e-08
1.0449086e-08
1.047274475e-08
1.049642528e-08
1.052012749e-08
1.054385018e-08
1.056759103e-08
1.059134574e-08
1.061705258e-08
1.064407466e-08
1.067109506e-08
1.069812993e-08
1.072520798e-08
1.075235826e-08
1.077960694e-08
1.080697772e-08
1.083449239e-08
1.086217108e-08
1.089003243e-08
1.091809365e-08
1.094637068e-08
1.09748784e-08
1.100363075e-08
1.103264134e-08
1.106192642e-08
1.109150276e-08
1.112138897e-08
1.115160226e-08
1.118215693e-08
1.121306248e-08
1.124433598e-08
1.127600635e-08
1.130810493e-08
1.134065683e-08
1.137368407e-08
1.14072066e-08
1.144124274e-08
1.147580984e-08
1.151092455e-08
1.154660306e-08
1.158286139e-08
1.161971565e-08
1.165718247e-08
1.169527932e-08
1.173402477e-08
1.177343858e-08
1.18135416e-08
1.185435559e-08
1.189590317e-08
1.193820774e-08
1.19812935e-08
1.202518532e-08
1.206990871e-08
1.211548972e-08
1.216195507e-08
1.2209332e-08
1.225764834e-08
1.230693208e-08
1.235721152e-08
1.240851502e-08
1.246087017e-08
1.251430349e-08
1.256883859e-08
1.262556025e-08
1.268593335e-08
1.274762196e-08
1.281086944e-08
1.287676206e-08
1.294529149e-08
1.301556986e-08
1.308747352e-08
1.316101656e-08
1.323623544e-08
1.331317039e-08
1.339186365e-08
1.347236047e-08
1.355471033e-08
1.363896794e-08
1.37251903e-08
1.38134287e-08
1.390373132e-08
1.399614617e-08
1.409072832e-08
1.41875678e-08
1.428667808e-08
1.43880682e-08
1.449176648e-08
1.459780359e-08
1.470620659e-08
1.481704757e-08
1.493039637e-08
1.504631567e-08
1.516485961e-08
1.528607421e-08
1.541001159e-08
1.554012815e-08
1.567648806e-08
1.581607075e-08
1.595901025e-08
1.610541306e-08
1.625537885e-08
1.640900681e-08
1.658447027e-08
1.676817553e-08
1.695653143e-08
1.714968876e-08
1.734771263e-08
1.755071529e-08
1.775882411e-08
1.7972181e-08
1.819094583e-08
1.841528841e-08
1.864538753e-08
1.888141282e-08
1.912352525e-08
1.937199119e-08
1.96270565e-08
1.988889435e-08
2.015753935e-08
2.043318906e-08
2.071597759e-08
2.103572842e-08
2.136864451e-08
2.171023646e-08
2.206114699e-08
2.24224305e-08
2.279514163e-08
2.318020135e-08
2.357842514e-08
2.399054422e-08
2.441719609e-08
2.485926719e-08
2.531771321e-08
2.582252381e-08
2.637585591e-08
2.695207681e-08
2.755314022e-08
2.817999969e-08
2.883401648e-08
2.951774363e-08
3.026052774e-08
3.103860956e-08
3.189554826e-08
3.281390241e-08
3.376915697e-08
3.477088135e-08
3.582538293e-08
3.693900723e-08
3.811791625e-08
3.941398868e-08
4.080249412e-08
4.22795382e-08
4.385386306e-08
4.553516585e-08
4.736944639e-08
4.939370353e-08
5.156833822e-08
5.391341736e-08
5.654897594e-08
5.960318394e-08
6.294545249e-08
6.661360355e-08
7.071390799e-08
7.540125291e-08
8.059604381e-08
8.68094071e-08
9.412871261e-08
1.023863594e-07
1.118400353e-07
1.231472264e-07
1.363386187e-07
1.523886273e-07
1.716180217e-07
1.956809119e-07
2.25366226e-07
2.632442696e-07
3.117017479e-07
3.749755004e-07
4.602393907e-07
5.757394665e-07
7.394846372e-07
9.823348145e-07
1.369773287e-06
2.089726322e-06
3.697719775e-06
8.205288901e-06
2.170586205e-05
5.095445209e-05
7.300678154e-05
6.252793507e-05
3.442569302e-05
6.182847496e-06
3.496255713e-06
1.154435381e-06
8.440625205e-07
5.682031119e-07
3.59590628e-07
2.112551228e-07
9.614232042e-08
4.721723298e-08
2.49849746e-08
1.370544314e-08
7.592365026e-09
4.003375619e-09
2.27592548e-09
1.796594278e-09
1.428863176e-09
1.141174055e-09
9.135046536e-10
7.321114737e-10
5.8689245e-10
4.704302456e-10
3.769719859e-10
3.019155534e-10
2.416657021e-10
1.933066929e-10
1.545126311e-10
1.234153756e-10
9.85005318e-11
7.855864503e-11
6.260938617e-11
4.986412409e-11
3.968930866e-11
3.157355152e-11
2.5106415e-11
1.99580731e-11
1.586346422e-11
1.261015449e-11
1.002783172e-11
7.980128898e-12
6.358013345e-12
5.074382452e-12
4.059664686e-12
3.258387963e-12
2.626351523e-12
2.128357157e-12
1.736425306e-12
1.428322099e-12
1.186408141e-12
9.966968899e-13
8.481126058e-13
7.318919908e-13
6.411090573e-13
5.702959878e-13
5.151407631e-13
4.722468898e-13
4.389421863e-13
4.131264261e-13
3.931512784e-13
3.777244597e-13
3.658341669e-13
3.566892217e-13
3.496718737e-13
3.443003865e-13
3.401997123e-13
3.370782925e-13
3.347098326e-13
3.329189885e-13
3.315701434e-13
3.305586182e-13
3.298038027e-13
3.292436758e-13
3.288307573e-13
3.285286648e-13
3.283096659e-13
3.281526974e-13
3.280417487e-13
3.279647958e-13
3.279127309e-13
3.278788271e-13
3.278580827e-13
3.278537861e-13
3.278537861e-13
3.278537861e-13
3.278537861e-13
3.278537861e-13
3.278537861e-13
3.278537861e-13
3.278537861e-13
3.278537861e-13
3.278537861e-13
3.278537861e-13
3.278537861e-13
3.278537861e-13
3.278537861e-13
3.278539272e-13
3.278555461e-13
3.278570908e-13
3.278585748e-13
3.278599798e-13
3.278612802e-13
3.278624938e-13
3.278657891e-13
3.278678659e-13
3.278693082e-13
3.278702425e-13
3.278710106e-13
3.278714066e-13
3.278715791e-13
3.278716356e-13
3.278716956e-13
3.278716395e-13
3.278716229e-13
3.278715808e-13
3.27871527e-13
3.278713341e-13
3.278712031e-13
3.27871099e-13
3.278710834e-13
3.278709982e-13
3.278709758e-13
3.278707757e-13
3.278707102e-13
3.278707335e-13
3.278707251e-13
3.278705459e-13
3.278703477e-13
3.278702823e-13
3.278703051e-13
3.278702692e-13
3.278702263e-13
3.278701369e-13
3.278700452e-13
3.278700573e-13
3.278700268e-13
3.27870058e-13
3.278700527e-13
3.278699272e-13
3.278698703e-13
3.278698397e-13
3.278697788e-13
3.278695936e-13
3.278694925e-13
3.278695431e-13
3.278695579e-13
3.278695995e-13
3.278694585e-13
3.278694238e-13
3.27869401e-13
3.278693078e-13
3.278692245e-13
3.278691702e-13
3.278691248e-13
3.278691594e-13
3.278691819e-13
3.278691884e-13
3.278690317e-13
3.278689969e-13
3.278690431e-13
3.278689832e-13
3.278688742e-13
3.27868848e-13
3.278688503e-13
3.278688798e-13
3.278688015e-13
3.278687064e-13
3.278685787e-13
3.278685397e-13
3.278683537e-13
3.278683062e-13
3.278681984e-13
3.278680991e-13
3.278681024e-13
3.278681163e-13
3.27867985e-13
3.278679163e-13
3.278678801e-13
3.278678358e-13
3.278678339e-13
3.278677689e-13
3.278677385e-13
3.278677139e-13
3.278675836e-13
3.278675537e-13
3.278674532e-13
3.278673859e-13
3.278673426e-13
3.278672833e-13
3.278672877e-13
3.278671763e-13
3.278671762e-13
3.278670931e-13
3.278670807e-13
3.278670723e-13
3.27867093e-13
3.278670243e-13
3.278670361e-13
3.27866934e-13
3.278667845e-13
3.278667217e-13
3.278666944e-13
3.278665936e-13
3.278664547e-13
3.278663711e-13
3.2786638e-13
3.278663479e-13
3.278662066e-13
3.278661679e-13
3.278660737e-13
3.278659509e-13
3.278658575e-13
3.278657844e-13
3.27865779e-13
3.278656697e-13
3.278654899e-13
3.278653788e-13
3.278652809e-13
3.278652503e-13
3.278651146e-13
3.278650482e-13
3.278650472e-13
3.278650043e-13
3.278649188e-13
3.278648231e-13
3.27864701e-13
3.278646389e-13
3.278646865e-13
3.278646239e-13
3.278644733e-13
3.278642403e-13
3.278641652e-13
3.2786406e-13
3.278638851e-13
3.278638139e-13
3.278637823e-13
3.27863626e-13
3.278635908e-13
3.278636226e-13
3.278634993e-13
3.278632232e-13
3.278631301e-13
3.27862996e-13
3.278628746e-13
3.278628127e-13
3.278626527e-13
3.27862497e-13
3.278623619e-13
3.278622798e-13
3.278622006e-13
3.278621513e-13
3.278620188e-13
3.278619282e-13
3.278616598e-13
3.278614326e-13
3.278612644e-13
3.278611616e-13
3.278610343e-13
3.278610883e-13
3.278609941e-13
3.278608341e-13
3.278605972e-13
3.278603978e-13
3.27860217e-13
3.278601127e-13
3.278599082e-13
3.278597374e-13
3.278595658e-13
3.278594079e-13
3.278592319e-13
3.278590774e-13
3.278589378e-13
3.278587776e-13
3.278586066e-13
3.278584847e-13
3.278582699e-13
3.278580888e-13
3.278578613e-13
3.278576788e-13
3.278575231e-13
3.278573585e-13
3.27857275e-13
3.278571104e-13
3.27856869e-13
3.278567158e-13
3.27856416e-13
3.278561429e-13
3.278559628e-13
3.278556824e-13
3.278555141e-13
3.278552435e-13
3.278550931e-13
3.278548903e-13
3.278545914e-13
3.278542129e-13
3.278539205e-13
5.707370556e-09
5.71497831e-09
5.728828569e-09
5.747905335e-09
5.771320525e-09
5.7983265e-09
5.82832596e-09
5.860857169e-09
5.895558342e-09
5.932118934e-09
5.970275147e-09
6.009806539e-09
6.050521292e-09
6.092244321e-09
6.13481243e-09
6.178104123e-09
6.222004925e-09
6.266410827e-09
6.311229487e-09
6.35637828e-09
6.406298889e-09
6.461102438e-09
6.51612262e-09
6.571323393e-09
6.62666487e-09
6.682100847e-09
6.737574216e-09
6.793012258e-09
6.848324102e-09
6.903403158e-09
6.958137713e-09
7.012435046e-09
7.066264337e-09
7.119653585e-09
7.172647273e-09
7.225281422e-09
7.277572144e-09
7.329515752e-09
7.381098109e-09
7.432310334e-09
7.483163043e-09
7.533681449e-09
7.583896156e-09
7.633830818e-09
7.683493656e-09
7.73287483e-09
7.781947271e-09
7.830669063e-09
7.878986924e-09
7.926841484e-09
7.974176496e-09
8.02095313e-09
8.067162328e-09
8.112818466e-09
8.157955309e-09
8.202617798e-09
8.246852656e-09
8.290704193e-09
8.334203436e-09
8.377366252e-09
8.420195476e-09
8.462684665e-09
8.504822149e-09
8.546593554e-09
8.587979725e-09
8.635727407e-09
8.683972546e-09
8.73171008e-09
8.778911858e-09
8.825553669e-09
8.871631764e-09
8.91716076e-09
8.962169213e-09
9.006692649e-09
9.050768098e-09
9.094433567e-09
9.137730099e-09
9.180693069e-09
9.223344405e-09
9.265691292e-09
9.30772806e-09
9.349439103e-09
9.390802252e-09
9.431792566e-09
9.472386454e-09
9.512565577e-09
9.552319907e-09
9.591649098e-09
9.630562634e-09
9.669078503e-09
9.707218959e-09
9.745009712e-09
9.782473945e-09
9.819630583e-09
9.856493018e-09
9.893069185e-09
9.929362682e-09
9.965374445e-09
1.000110422e-08
1.003655125e-08
1.007171417e-08
1.010659124e-08
1.014118138e-08
1.017548603e-08
1.020951264e-08
1.024327822e-08
1.027680059e-08
1.031010672e-08
1.034322636e-08
1.037618956e-08
1.040902541e-08
1.044176123e-08
1.047442124e-08
1.050702532e-08
1.053958835e-08
1.057212028e-08
1.06046267e-08
1.063710967e-08
1.066956874e-08
1.070200187e-08
1.073440649e-08
1.076678055e-08
1.079912415e-08
1.083144364e-08
1.086374513e-08
1.089603788e-08
1.092833919e-08
1.096067411e-08
1.099306998e-08
1.102555426e-08
1.105815355e-08
1.109089326e-08
1.112379723e-08
1.115688756e-08
1.119018462e-08
1.122370709e-08
1.125747217e-08
1.129149549e-08
1.132578991e-08
1.136515175e-08
1.140484285e-08
1.144485477e-08
1.148521397e-08
1.152594531e-08
1.156707344e-08
1.160913667e-08
1.165294103e-08
1.16972961e-08
1.174223314e-08
1.178778186e-08
1.183397016e-08
1.188082169e-08
1.192836001e-08
1.197660789e-08
1.202558735e-08
1.207532002e-08
1.212582763e-08
1.217713268e-08
1.222925911e-08
1.228223275e-08
1.23360815e-08
1.239083503e-08
1.244652441e-08
1.250318195e-08
1.256084113e-08
1.261953664e-08
1.267930425e-08
1.274018057e-08
1.280220312e-08
1.286541035e-08
1.292984168e-08
1.299553737e-08
1.306253839e-08
1.313088623e-08
1.320062268e-08
1.327178972e-08
1.334442943e-08
1.341858414e-08
1.349429732e-08
1.357163228e-08
1.365071543e-08
1.373175867e-08
1.381505648e-08
1.39006567e-08
1.398839355e-08
1.407818637e-08
1.417002943e-08
1.426395023e-08
1.43599908e-08
1.445820118e-08
1.45586379e-08
1.466136515e-08
1.47664608e-08
1.487403783e-08
1.498414662e-08
1.509683571e-08
1.521215813e-08
1.533015646e-08
1.545599843e-08
1.558683318e-08
1.572077362e-08
1.585788225e-08
1.599822194e-08
1.614186101e-08
1.62888862e-08
1.643939716e-08
1.659348506e-08
1.675124577e-08
1.691278132e-08
1.707820862e-08
1.72476796e-08
1.742136043e-08
1.759943375e-08
1.778214092e-08
1.796954663e-08
1.81617362e-08
1.835874197e-08
1.856037985e-08
1.876703242e-08
1.898608537e-08
1.922005951e-08
1.946031297e-08
1.970704092e-08
1.996042906e-08
2.022068067e-08
2.048804066e-08
2.076272538e-08
2.104506919e-08
2.133539987e-08
2.164306708e-08
2.196261065e-08
2.229167964e-08
2.263062271e-08
2.299914235e-08
2.338761808e-08
2.378781595e-08
2.420014396e-08
2.462472486e-08
2.506200112e-08
2.551295078e-08
2.597883198e-08
2.646093089e-08
2.69605543e-08
2.750639856e-08
2.808629641e-08
2.868861709e-08
2.931464745e-08
2.996601921e-08
3.06447183e-08
3.135269918e-08
3.209193737e-08
3.290800098e-08
3.37638379e-08
3.465991854e-08
3.559889953e-08
3.658316595e-08
3.761567427e-08
3.873504417e-08
3.992567877e-08
4.118095805e-08
4.250918599e-08
4.391910551e-08
4.544847964e-08
4.709981408e-08
4.886721627e-08
5.083688554e-08
5.298382038e-08
5.537426375e-08
5.795759927e-08
6.075373324e-08
6.385164814e-08
6.727856977e-08
7.102420639e-08
7.518137718e-08
7.986502202e-08
8.533635503e-08
9.152710731e-08
9.855535896e-08
1.065104129e-07
1.156517547e-07
1.265846729e-07
1.39331423e-07
1.540419506e-07
1.724944384e-07
1.942122991e-07
2.21022369e-07
2.534026557e-07
2.947711707e-07
3.468055985e-07
4.138238912e-07
5.011955495e-07
6.171149739e-07
7.743889412e-07
9.921024442e-07
1.304099737e-06
1.772712155e-06
2.510225687e-06
3.839414576e-06
6.643197505e-06
1.418734815e-05
3.639210844e-05
8.939149114e-05
0.0001484391429
0.0001571878923
0.0001222405776
6.175706149e-05
2.168426153e-05
9.515156755e-06
4.242048034e-06
2.057371772e-06
1.18651807e-06
7.928913216e-07
5.029566509e-07
2.548865777e-07
1.316053533e-07
7.27055589e-08
4.162186504e-08
2.384638616e-08
1.331883816e-08
7.054475978e-09
3.224069095e-09
1.753451339e-09
1.396064823e-09
1.113749435e-09
8.897978208e-10
7.111285613e-10
5.684129929e-10
4.543118353e-10
3.629495386e-10
2.898600452e-10
2.313597222e-10
1.845482176e-10
1.471279195e-10
1.172064282e-10
9.331190742e-11
7.424029925e-11
5.902671723e-11
4.69045176e-11
3.725133681e-11
2.957125696e-11
2.346698324e-11
1.861905428e-11
1.477261785e-11
1.172360412e-11
9.308863766e-12
7.398272309e-12
5.888126892e-12
4.695652749e-12
3.754992795e-12
3.013773905e-12
2.430301889e-12
1.971521176e-12
1.611175322e-12
1.328473115e-12
1.106945939e-12
9.335696879e-13
7.980503124e-13
6.92260415e-13
6.097908787e-13
5.45591696e-13
4.956891927e-13
4.569601127e-13
4.269513791e-13
4.037398129e-13
3.858184096e-13
3.720083761e-13
3.613884452e-13
3.532397915e-13
3.470022108e-13
3.422397806e-13
3.386138265e-13
3.358615497e-13
3.33779451e-13
3.322102073e-13
3.310323598e-13
3.301524309e-13
3.294985515e-13
3.290156184e-13
3.286614542e-13
3.284039275e-13
3.282185654e-13
3.280868077e-13
3.279946467e-13
3.279314778e-13
3.278894201e-13
3.27862521e-13
3.278537861e-13
3.278537861e-13
3.278537861e-13
3.278537861e-13
3.278537861e-13
3.278537861e-13
3.278537861e-13
3.278537861e-13
3.278537861e-13
3.278537861e-13
3.278537861e-13
3.278537861e-13
3.278537861e-13
3.278537861e-13
3.278537861e-13
3.278542685e-13
3.278559932e-13
3.278575698e-13
3.278589718e-13
3.278602105e-13
3.278612762e-13
3.278621737e-13
3.278654009e-13
3.278681466e-13
3.278700225e-13
3.278713834e-13
3.278722924e-13
3.278727449e-13
3.278730096e-13
3.278732029e-13
3.278732816e-13
3.278732931e-13
3.27873284e-13
3.278731875e-13
3.278729999e-13
3.278728888e-13
3.27872809e-13
3.278727403e-13
3.278726522e-13
3.27872575e-13
3.278723968e-13
3.278723002e-13
3.278722291e-13
3.278721099e-13
3.278719998e-13
3.278718868e-13
3.278718317e-13
3.278717864e-13
3.278717116e-13
3.278716868e-13
3.278716596e-13
3.278715192e-13
3.278714741e-13
3.278714546e-13
3.278714629e-13
3.278713496e-13
3.278712672e-13
3.278712018e-13
3.278711134e-13
3.278710213e-13
3.27870903e-13
3.278708079e-13
3.278708315e-13
3.278707962e-13
3.278708153e-13
3.278707196e-13
3.278707161e-13
3.278705935e-13
3.278705662e-13
3.278704695e-13
3.278704459e-13
3.278703639e-13
3.27870406e-13
3.278703978e-13
3.278703643e-13
3.278702867e-13
3.278701909e-13
3.278701041e-13
3.278700866e-13
3.278700087e-13
3.278700434e-13
3.278700324e-13
3.278699596e-13
3.278698605e-13
3.278697756e-13
3.278696968e-13
3.278696266e-13
3.27869526e-13
3.278694634e-13
3.278693738e-13
3.278693012e-13
3.278692797e-13
3.278692289e-13
3.278691741e-13
3.278690339e-13
3.278690444e-13
3.278689226e-13
3.278689494e-13
3.278689161e-13
3.278688973e-13
3.278688084e-13
3.278687606e-13
3.278686295e-13
3.278685566e-13
3.278684103e-13
3.278683423e-13
3.278682292e-13
3.278682237e-13
3.278681335e-13
3.278681569e-13
3.278681177e-13
3.278681724e-13
3.278681261e-13
3.278680642e-13
3.278679516e-13
3.278680065e-13
3.278678559e-13
3.278677736e-13
3.27867731e-13
3.278675808e-13
3.278674296e-13
3.278674023e-13
3.278672538e-13
3.278671615e-13
3.278671495e-13
3.278670915e-13
3.278670416e-13
3.278670114e-13
3.278668742e-13
3.278667716e-13
3.278666702e-13
3.278665576e-13
3.278663987e-13
3.278663268e-13
3.278661961e-13
3.278660704e-13
3.278660237e-13
3.278659309e-13
3.278658332e-13
3.27865903e-13
3.278658715e-13
3.27865773e-13
3.278656248e-13
3.278654244e-13
3.278652692e-13
3.278652763e-13
3.278652578e-13
3.278650627e-13
3.278647976e-13
3.278647031e-13
3.278645566e-13
3.278645191e-13
3.278645e-13
3.278643575e-13
3.278642227e-13
3.278642144e-13
3.278642313e-13
3.278641336e-13
3.278639294e-13
3.278637764e-13
3.278636304e-13
3.27863476e-13
3.278634829e-13
3.278633675e-13
3.278631873e-13
3.278629549e-13
3.278629405e-13
3.278628313e-13
3.278626697e-13
3.278626215e-13
3.278624719e-13
3.278622444e-13
3.278619479e-13
3.278617233e-13
3.278616436e-13
3.278615667e-13
3.278615358e-13
3.278613079e-13
3.278611887e-13
3.278610088e-13
3.278608496e-13
3.278605698e-13
3.278603445e-13
3.278602138e-13
3.278600745e-13
3.278599662e-13
3.278598624e-13
3.278596368e-13
3.278594735e-13
3.27859343e-13
3.278591107e-13
3.278588927e-13
3.278586833e-13
3.278585701e-13
3.278583975e-13
3.278580664e-13
3.278578939e-13
3.278577204e-13
3.278574875e-13
3.278573738e-13
3.278572066e-13
3.278569761e-13
3.278567631e-13
3.278565192e-13
3.278562894e-13
3.278560736e-13
3.278558399e-13
3.278556218e-13
3.278553854e-13
3.278551621e-13
3.278549206e-13
3.278546717e-13
3.278543076e-13
3.2785397e-13
4.539725176e-09
4.547844236e-09
4.562584232e-09
4.582820275e-09
4.607547034e-09
4.635890953e-09
4.667172992e-09
4.700939325e-09
4.736838422e-09
4.774558887e-09
4.81383824e-09
4.854475146e-09
4.896291055e-09
4.939330617e-09
4.99588965e-09
5.053349495e-09
5.111569948e-09
5.170423773e-09
5.229800921e-09
5.289608582e-09
5.349771124e-09
5.410233735e-09
5.470958978e-09
5.531915556e-09
5.593071908e-09
5.654390075e-09
5.7158183e-09
5.777282192e-09
5.838677156e-09
5.899866079e-09
5.960685114e-09
6.020953819e-09