/*--------------------------------*- C++ -*----------------------------------*\
| =========                 |                                                 |
| \\      /  F ield         | OpenFOAM: The Open Source CFD Toolbox           |
|  \\    /   O peration     | Version:  v2006                                 |
|   \\  /    A nd           | Website:  www.openfoam.com                      |
|    \\/     M anipulation  |                                                 |
\*---------------------------------------------------------------------------*/
FoamFile
{
    version     2.0;
    format      ascii;
    class       volScalarField;
    location    "0.09";
    object      CH3OCH3;
}
// * * * * * * * * * * * * * * * * * * * * * * * * * * * * * * * * * * * * * //

dimensions      [0 0 0 0 0 0 0];


internalField   nonuniform List<scalar> 
72000
(
4.487712983e-12
4.500422613e-12
4.524246267e-12
4.558003439e-12
4.600537381e-12
4.650794998e-12
4.707815159e-12
4.770731229e-12
4.838781666e-12
4.911282568e-12
4.987600295e-12
5.067136242e-12
5.149437892e-12
5.234153199e-12
5.32094034e-12
5.409484241e-12
5.499495914e-12
5.590715845e-12
5.682916635e-12
5.775902319e-12
5.869502493e-12
5.963570745e-12
6.057978879e-12
6.152607629e-12
6.247343619e-12
6.342073101e-12
6.436675855e-12
6.531021533e-12
6.624970394e-12
6.718380165e-12
6.811119723e-12
6.903087584e-12
6.994227059e-12
7.084523141e-12
7.173983262e-12
7.262617768e-12
7.350428333e-12
7.437406688e-12
7.523542069e-12
7.608832598e-12
7.693293359e-12
7.776955033e-12
7.859855271e-12
7.942026933e-12
8.023488063e-12
8.104236329e-12
8.18424788e-12
8.263479348e-12
8.341871856e-12
8.419357051e-12
8.495871947e-12
8.571384692e-12
8.645894234e-12
8.71940748e-12
8.791919866e-12
8.864828525e-12
9.001062726e-12
9.135736703e-12
9.269013772e-12
9.400979179e-12
9.531671077e-12
9.661097945e-12
9.789250741e-12
9.916110486e-12
1.004165026e-11
1.016583424e-11
1.028863976e-11
1.041003793e-11
1.052999993e-11
1.06485098e-11
1.076557664e-11
1.088123859e-11
1.099555991e-11
1.110862326e-11
1.122052093e-11
1.133134755e-11
1.144119292e-11
1.155013204e-11
1.165821685e-11
1.176547302e-11
1.187190166e-11
1.197748432e-11
1.208218991e-11
1.218598273e-11
1.228883071e-11
1.239071268e-11
1.249162376e-11
1.259157788e-11
1.269060735e-11
1.278875966e-11
1.288609025e-11
1.298266027e-11
1.307852729e-11
1.317374146e-11
1.326834329e-11
1.336236351e-11
1.345582494e-11
1.354874622e-11
1.364113952e-11
1.373302074e-11
1.382440382e-11
1.391530514e-11
1.400574542e-11
1.40957525e-11
1.418536376e-11
1.427462759e-11
1.436360375e-11
1.4452361e-11
1.454097461e-11
1.462952318e-11
1.471808528e-11
1.480673645e-11
1.489554621e-11
1.49845757e-11
1.507387621e-11
1.516348891e-11
1.525344551e-11
1.534376962e-11
1.543447814e-11
1.552558229e-11
1.561708701e-11
1.57089873e-11
1.58012595e-11
1.589385219e-11
1.598676617e-11
1.607999689e-11
1.617353967e-11
1.626762424e-11
1.636240044e-11
1.645798071e-11
1.655445937e-11
1.665192083e-11
1.675044323e-11
1.685010002e-11
1.695096094e-11
1.705309267e-11
1.715655962e-11
1.726142477e-11
1.736775051e-11
1.747559892e-11
1.758504357e-11
1.769615514e-11
1.780899771e-11
1.792361888e-11
1.807946374e-11
1.828271969e-11
1.848916088e-11
1.869900099e-11
1.891241616e-11
1.912956225e-11
1.935058248e-11
1.957561174e-11
1.980477948e-11
2.00382117e-11
2.027603237e-11
2.05183651e-11
2.076533515e-11
2.101707142e-11
2.127370842e-11
2.153538745e-11
2.180225715e-11
2.207447307e-11
2.235219697e-11
2.263559606e-11
2.292484271e-11
2.322011448e-11
2.352159421e-11
2.382947031e-11
2.414393664e-11
2.446519267e-11
2.479344276e-11
2.512889605e-11
2.547176466e-11
2.58222631e-11
2.618060627e-11
2.654700467e-11
2.692165794e-11
2.730473908e-11
2.769637134e-11
2.809636868e-11
2.85038165e-11
2.891583716e-11
2.933351344e-11
2.975708447e-11
3.018647597e-11
3.062482503e-11
3.107324815e-11
3.153227688e-11
3.200226658e-11
3.248352741e-11
3.297636922e-11
3.348111836e-11
3.399812116e-11
3.452773182e-11
3.507029145e-11
3.562613072e-11
3.619558097e-11
3.677898607e-11
3.737667466e-11
3.798890361e-11
3.861588013e-11
3.925779622e-11
3.991477943e-11
4.091412568e-11
4.197172605e-11
4.305429091e-11
4.416248582e-11
4.529675931e-11
4.645727566e-11
4.764404372e-11
4.885864253e-11
5.010255124e-11
5.137722531e-11
5.268400322e-11
5.402414394e-11
5.539919116e-11
5.681187037e-11
5.826868552e-11
5.976723235e-11
6.130627832e-11
6.288616677e-11
6.450761793e-11
6.617151578e-11
6.787887937e-11
6.963083984e-11
7.142862083e-11
7.327346009e-11
7.516646934e-11
7.710835565e-11
7.909979738e-11
8.114348672e-11
8.324139549e-11
8.539484159e-11
8.760458307e-11
8.987086413e-11
9.219248811e-11
9.456478235e-11
9.697268325e-11
1.002697457e-10
1.037287054e-10
1.072576669e-10
1.108797174e-10
1.146080102e-10
1.18451019e-10
1.224131553e-10
1.264940339e-10
1.307054311e-10
1.35055329e-10
1.395485826e-10
1.441942415e-10
1.490063588e-10
1.539961973e-10
1.591717258e-10
1.645400677e-10
1.701090258e-10
1.758883906e-10
1.818939571e-10
1.881592877e-10
1.950388099e-10
2.02600258e-10
2.105468062e-10
2.189083946e-10
2.277294519e-10
2.370616482e-10
2.469731243e-10
2.575019265e-10
2.686956057e-10
2.806165078e-10
2.954652895e-10
3.134389391e-10
3.337150981e-10
3.557771803e-10
3.798273789e-10
4.061280402e-10
4.349951595e-10
4.666561869e-10
5.014912497e-10
5.405842719e-10
5.848966421e-10
6.342518687e-10
6.893945274e-10
7.513822106e-10
8.448970387e-10
9.646697291e-10
1.107338322e-09
1.275350131e-09
1.473971476e-09
1.735962526e-09
2.149097868e-09
2.656598456e-09
3.328977698e-09
4.479152762e-09
6.007917028e-09
8.694490789e-09
1.317760745e-08
2.11499787e-08
3.653500965e-08
6.876835524e-08
1.434810385e-07
3.426155075e-07
9.095969862e-07
2.638426902e-06
8.084621232e-06
2.341725133e-05
7.08233311e-05
0.0007276585529
0.04911175157
0.07044287768
0.07874365135
0.08187406871
0.08333218173
0.08408715871
0.08449715116
0.08472215439
0.08481746753
0.08487058929
0.08488426189
0.08489174659
0.08489469761
0.08489607619
0.08489705788
0.08489779381
0.08489836302
0.08489881116
0.0848991676
0.0848994528
0.08489968164
0.08489986552
0.08490001334
0.08490013218
0.08490022768
0.08490030439
0.08490036596
0.08490041535
0.08490045492
0.0849004866
0.08490051195
0.0849005322
0.08490054837
0.08490056127
0.08490057154
0.08490057972
0.08490058623
0.0849005914
0.0849005955
0.08490059875
0.08490060132
0.08490060336
0.08490060497
0.08490060624
0.08490060724
0.08490060803
0.08490060865
0.08490060914
0.08490060952
0.08490060982
0.08490061005
0.08490061024
0.08490061038
0.08490061049
0.08490061058
0.08490061064
0.0849006107
0.08490061074
0.08490061077
0.08490061079
0.08490061081
0.08490061083
0.08490061084
0.08490061084
0.08490061085
0.08490061086
0.08490061086
0.08490061086
0.08490061086
0.08490061087
0.08490061087
0.08490061087
0.08490061087
0.08490061087
0.08490061087
0.08490061087
0.08490061087
0.08490061087
0.08490061087
0.08490061087
0.08490061087
0.08490061087
0.08490061087
0.08490061087
0.08490061087
0.08490061087
0.08490061087
0.08490061087
0.08490061087
0.08490061087
0.08490061087
0.08490061087
0.08490061087
0.08490061087
0.08490061087
0.08490061087
0.08490061087
0.08490061087
0.08490061087
0.08490061087
0.08490061087
0.08490061087
0.08490061087
0.08490061087
0.08490061087
0.08490061087
0.08490061087
0.08490061087
0.08490061087
0.08490061087
0.08490061087
0.08490061087
0.08490061087
0.08490061087
0.08490061087
0.08490061087
0.08490061087
0.08490061087
0.08490061087
0.08490061087
0.08490061087
0.08490061087
0.08490061087
0.08490061087
0.08490061087
0.08490061087
0.08490061087
0.08490061087
0.08490061087
0.08490061087
0.08490061087
0.08490061087
0.08490061087
0.08490061087
0.08490061087
0.08490061087
0.08490061087
0.08490061087
0.08490061087
0.08490061087
0.08490061087
0.08490061087
0.08490061087
0.08490061087
0.08490061087
0.08490061087
0.08490061087
0.08490061087
0.08490061087
0.08490061087
0.08490061087
0.08490061087
0.08490061087
0.08490061087
0.08490061087
0.08490061087
0.08490061087
0.08490061087
0.08490061087
0.08490061087
0.08490061087
0.08490061087
0.08490061087
0.08490061087
0.08490061087
0.08490061087
0.08490061087
0.08490061087
0.08490061087
0.08490061087
0.08490061087
0.08490061087
0.08490061087
0.08490061087
0.08490061087
0.08490061087
0.08490061087
0.08490061087
0.08490061087
0.08490061087
0.08490061087
0.08490061087
0.08490061087
0.08490061087
0.08490061087
0.08490061087
0.08490061087
0.08490061087
0.08490061087
0.08490061087
0.08490061087
0.08490061087
0.08490061087
0.08490061087
0.08490061087
0.08490061087
0.08490061087
0.08490061087
0.08490061087
0.08490061087
0.08490061087
0.08490061087
0.08490061087
0.08490061087
0.08490061087
0.08490061087
0.08490061087
0.08490061087
0.08490061087
0.08490061087
0.08490061087
0.08490061087
0.08490061087
0.08490061087
0.08490061087
0.08490061087
0.08490061087
0.08490061087
0.08490061087
0.08490061087
0.08490061087
0.08490061087
0.08490061087
0.08490061087
0.08490061087
0.08490061087
0.08490061087
0.08490061087
0.08490061087
0.08490061087
0.08490061087
0.08490061087
0.08490061087
0.08490061087
0.08490061087
0.08490061087
0.08490061087
0.08490061087
0.08490061087
0.08490061087
0.08490061087
0.08490061087
0.08490061087
0.08490061087
0.08490061087
0.08490061087
0.08490061087
0.08490061087
0.08490061087
0.08490061087
0.08490061087
0.08490061087
0.08490061087
0.08490061087
0.08490061087
0.08490061087
0.08490061087
0.08490061087
0.08490061087
0.08490061087
0.08490061087
0.08490061087
0.08490061087
0.08490061087
0.08490061087
0.08490061087
0.08490061087
0.08490061087
0.08490061087
0.08490061087
0.08490061087
0.08490061087
0.08490061087
0.08490061087
0.08490061087
0.08490061087
0.08490061087
0.08490061087
0.08490061087
0.08490061087
0.08490061087
0.08490061087
0.08490061087
0.08490061087
0.08490061087
0.08490061087
0.08490061087
0.08490061087
0.08490061087
0.08490061087
0.08490061087
0.08490061087
0.08490061087
0.08490061087
4.075807132e-13
4.100412557e-13
4.144438102e-13
4.204390809e-13
4.277330934e-13
4.360987026e-13
4.453558739e-13
4.553619582e-13
4.660050851e-13
4.77191306e-13
4.888410197e-13
5.008861052e-13
5.132692101e-13
5.259402286e-13
5.388541473e-13
5.519767543e-13
5.65277012e-13
5.787263367e-13
5.922989529e-13
6.059717906e-13
6.197242724e-13
6.335416846e-13
6.474139086e-13
6.613305493e-13
6.752803624e-13
6.892505297e-13
7.032257479e-13
7.171874828e-13
7.311138725e-13
7.44980824e-13
7.587648324e-13
7.724478027e-13
7.860224115e-13
7.994914433e-13
8.128620017e-13
8.261407942e-13
8.393317059e-13
8.524356127e-13
8.654518992e-13
8.783807627e-13
8.912248669e-13
9.039888776e-13
9.166779167e-13
9.292956052e-13
9.418425598e-13
9.543156855e-13
9.667081228e-13
9.790096132e-13
9.91207118e-13
1.003285428e-12
1.02355996e-12
1.051245e-12
1.078598545e-12
1.105631452e-12
1.13236263e-12
1.158812659e-12
1.1850039e-12
1.210968053e-12
1.236727677e-12
1.262295272e-12
1.287675077e-12
1.312865277e-12
1.33785991e-12
1.362649848e-12
1.387222271e-12
1.411559435e-12
1.43565628e-12
1.45950382e-12
1.483090558e-12
1.506407712e-12
1.529454604e-12
1.552238027e-12
1.574770161e-12
1.597066297e-12
1.619143054e-12
1.641017674e-12
1.662707497e-12
1.684227296e-12
1.70558661e-12
1.726788828e-12
1.747831651e-12
1.76870829e-12
1.789408995e-12
1.809922794e-12
1.830239274e-12
1.850350236e-12
1.870250936e-12
1.889940761e-12
1.909423267e-12
1.928705764e-12
1.947797429e-12
1.966709023e-12
1.98545045e-12
2.004030063e-12
2.022454017e-12
2.040726195e-12
2.058848537e-12
2.076821586e-12
2.094644922e-12
2.112317707e-12
2.129838785e-12
2.147207047e-12
2.164421912e-12
2.181483977e-12
2.198395867e-12
2.215163598e-12
2.231797977e-12
2.24831181e-12
2.264718738e-12
2.281032481e-12
2.297266253e-12
2.31343226e-12
2.329541172e-12
2.345601668e-12
2.361620196e-12
2.377600979e-12
2.393546215e-12
2.409456394e-12
2.425330667e-12
2.441167159e-12
2.456963164e-12
2.472715041e-12
2.488417505e-12
2.514403474e-12
2.547262155e-12
2.57994185e-12
2.612462564e-12
2.644859065e-12
2.677165893e-12
2.709413355e-12
2.741628237e-12
2.773834976e-12
2.806055803e-12
2.838310687e-12
2.870617431e-12
2.902991897e-12
2.93544822e-12
2.967998883e-12
3.000654696e-12
3.033426315e-12
3.066336356e-12
3.099406094e-12
3.13265383e-12
3.166094011e-12
3.199736767e-12
3.233601109e-12
3.267718741e-12
3.302122971e-12
3.336841055e-12
3.371896864e-12
3.40731125e-12
3.443101952e-12
3.479285347e-12
3.515877133e-12
3.552892482e-12
3.590346277e-12
3.628253486e-12
3.666629608e-12
3.705491119e-12
3.744855795e-12
3.784742836e-12
3.825172751e-12
3.866167257e-12
3.907749233e-12
3.94994291e-12
3.992773835e-12
4.036268276e-12
4.080452776e-12
4.125353933e-12
4.170999132e-12
4.217416137e-12
4.264633585e-12
4.312679507e-12
4.361582626e-12
4.411372068e-12
4.462074867e-12
4.51371662e-12
4.56631845e-12
4.620278978e-12
4.676155581e-12
4.733165318e-12
4.791596757e-12
4.852828954e-12
4.916848061e-12
4.982514503e-12
5.049672841e-12
5.118340593e-12
5.188560525e-12
5.260378215e-12
5.333840627e-12
5.40899793e-12
5.485905464e-12
5.56462519e-12
5.645221663e-12
5.727750705e-12
5.812263333e-12
5.898811084e-12
5.987455744e-12
6.078306249e-12
6.171367406e-12
6.266636563e-12
6.364135902e-12
6.46389049e-12
6.565925824e-12
6.670313359e-12
6.777126634e-12
6.886433622e-12
6.998291989e-12
7.112748075e-12
7.229852018e-12
7.390680521e-12
7.594946749e-12
7.804325491e-12
8.019102644e-12
8.239478227e-12
8.465629516e-12
8.697733481e-12
8.941462152e-12
9.193137649e-12
9.452073527e-12
9.718561501e-12
9.992628439e-12
1.027445526e-11
1.056427226e-11
1.086234498e-11
1.116897589e-11
1.148448729e-11
1.180917522e-11
1.214330907e-11
1.248717347e-11
1.284122913e-11
1.320590245e-11
1.35815e-11
1.396813984e-11
1.436597028e-11
1.477489602e-11
1.524128192e-11
1.572816971e-11
1.622825457e-11
1.67431439e-11
1.727561057e-11
1.782834872e-11
1.840370344e-11
1.900391347e-11
1.963061583e-11
2.028515265e-11
2.096956001e-11
2.168604904e-11
2.242234551e-11
2.318003558e-11
2.397603431e-11
2.481485544e-11
2.569804022e-11
2.662817558e-11
2.762425893e-11
2.911196139e-11
3.067849131e-11
3.226068425e-11
3.387597495e-11
3.557764791e-11
3.740487085e-11
3.938239904e-11
4.153588798e-11
4.388900928e-11
4.660534054e-11
4.961781375e-11
5.292187955e-11
5.655432313e-11
6.055353374e-11
6.498671687e-11
6.991457561e-11
7.538051848e-11
8.147113974e-11
9.225559468e-11
1.054634427e-10
1.204745594e-10
1.375759105e-10
1.572522775e-10
1.805510397e-10
2.079992205e-10
2.539209553e-10
3.053696404e-10
3.677623875e-10
4.470207663e-10
6.031843895e-10
7.865875522e-10
1.079101837e-09
1.539011305e-09
2.288985518e-09
3.433503972e-09
5.619195141e-09
9.871114572e-09
1.831814008e-08
3.752865208e-08
8.073729921e-08
1.924165899e-07
5.185138357e-07
1.53271063e-06
5.075370663e-06
1.83655295e-05
7.577942156e-05
0.0003344297182
0.001454210515
0.005116803523
0.01366187585
0.0303962356
0.05939352113
0.07235588483
0.07870211409
0.08138353816
0.08284403325
0.08369202365
0.08421307865
0.08456476237
0.08474385778
0.08481944168
0.08485652938
0.08487735808
0.08489004176
0.08489595789
0.08489693799
0.0848976899
0.08489827815
0.08489874367
0.08489911457
0.08489941151
0.08489964964
0.08489984074
0.08489999421
0.0849001174
0.08490021628
0.0849002956
0.08490035919
0.08490041013
0.08490045091
0.08490048352
0.08490050958
0.08490053039
0.08490054698
0.0849005602
0.08490057073
0.0849005791
0.08490058576
0.08490059104
0.08490059522
0.08490059854
0.08490060116
0.08490060324
0.08490060488
0.08490060617
0.08490060719
0.08490060799
0.08490060862
0.08490060911
0.0849006095
0.08490060981
0.08490061004
0.08490061023
0.08490061037
0.08490061049
0.08490061057
0.08490061064
0.0849006107
0.08490061074
0.08490061077
0.08490061079
0.08490061081
0.08490061083
0.08490061084
0.08490061084
0.08490061085
0.08490061086
0.08490061086
0.08490061086
0.08490061086
0.08490061087
0.08490061087
0.08490061087
0.08490061087
0.08490061087
0.08490061087
0.08490061087
0.08490061087
0.08490061087
0.08490061087
0.08490061087
0.08490061087
0.08490061087
0.08490061087
0.08490061087
0.08490061087
0.08490061087
0.08490061087
0.08490061087
0.08490061087
0.08490061087
0.08490061087
0.08490061087
0.08490061087
0.08490061087
0.08490061087
0.08490061087
0.08490061087
0.08490061087
0.08490061087
0.08490061087
0.08490061087
0.08490061087
0.08490061087
0.08490061087
0.08490061087
0.08490061087
0.08490061087
0.08490061087
0.08490061087
0.08490061087
0.08490061087
0.08490061087
0.08490061087
0.08490061087
0.08490061087
0.08490061087
0.08490061087
0.08490061087
0.08490061087
0.08490061087
0.08490061087
0.08490061087
0.08490061087
0.08490061087
0.08490061087
0.08490061087
0.08490061087
0.08490061087
0.08490061087
0.08490061087
0.08490061087
0.08490061087
0.08490061087
0.08490061087
0.08490061087
0.08490061087
0.08490061087
0.08490061087
0.08490061087
0.08490061087
0.08490061087
0.08490061087
0.08490061087
0.08490061087
0.08490061087
0.08490061087
0.08490061087
0.08490061087
0.08490061087
0.08490061087
0.08490061087
0.08490061087
0.08490061087
0.08490061087
0.08490061087
0.08490061087
0.08490061087
0.08490061087
0.08490061087
0.08490061087
0.08490061087
0.08490061087
0.08490061087
0.08490061087
0.08490061087
0.08490061087
0.08490061087
0.08490061087
0.08490061087
0.08490061087
0.08490061087
0.08490061087
0.08490061087
0.08490061087
0.08490061087
0.08490061087
0.08490061087
0.08490061087
0.08490061087
0.08490061087
0.08490061087
0.08490061087
0.08490061087
0.08490061087
0.08490061087
0.08490061087
0.08490061087
0.08490061087
0.08490061087
0.08490061087
0.08490061087
0.08490061087
0.08490061087
0.08490061087
0.08490061087
0.08490061087
0.08490061087
0.08490061087
0.08490061087
0.08490061087
0.08490061087
0.08490061087
0.08490061087
0.08490061087
0.08490061087
0.08490061087
0.08490061087
0.08490061087
0.08490061087
0.08490061087
0.08490061087
0.08490061087
0.08490061087
0.08490061087
0.08490061087
0.08490061087
0.08490061087
0.08490061087
0.08490061087
0.08490061087
0.08490061087
0.08490061087
0.08490061087
0.08490061087
0.08490061087
0.08490061087
0.08490061087
0.08490061087
0.08490061087
0.08490061087
0.08490061087
0.08490061087
0.08490061087
0.08490061087
0.08490061087
0.08490061087
0.08490061087
0.08490061087
0.08490061087
0.08490061087
0.08490061087
0.08490061087
0.08490061087
0.08490061087
0.08490061087
0.08490061087
0.08490061087
0.08490061087
0.08490061087
0.08490061087
0.08490061087
0.08490061087
0.08490061087
0.08490061087
0.08490061087
0.08490061087
0.08490061087
0.08490061087
0.08490061087
0.08490061087
0.08490061087
0.08490061087
0.08490061087
0.08490061087
0.08490061087
0.08490061087
0.08490061087
0.08490061087
0.08490061087
0.08490061087
0.08490061087
0.08490061087
0.08490061087
0.08490061087
0.08490061087
0.08490061087
0.08490061087
0.08490061087
0.08490061087
0.08490061087
0.08490061087
0.08490061087
0.08490061087
0.08490061087
0.08490061087
0.08490061087
0.08490061087
0.08490061087
0.08490061087
0.08490061087
0.08490061087
0.08490061087
0.08490061087
0.08490061087
6.202372475e-14
6.22909866e-14
6.277268954e-14
6.34284691e-14
6.422448539e-14
6.51334909e-14
6.613439099e-14
6.721163614e-14
6.835337175e-14
6.954984382e-14
7.079298791e-14
7.207619526e-14
7.339374233e-14
7.474028192e-14
7.611041053e-14
7.750141388e-14
7.891027751e-14
8.033415108e-14
8.1770476e-14
8.321695023e-14
8.603962828e-14
9.028490062e-14
9.454731505e-14
9.882488961e-14
1.03115205e-13
1.074152096e-13
1.117208373e-13
1.160266055e-13
1.203253827e-13
1.246085633e-13
1.288669365e-13
1.330928167e-13
1.372840213e-13
1.414435666e-13
1.455758203e-13
1.496843916e-13
1.53771221e-13
1.578366105e-13
1.618799698e-13
1.659009967e-13
1.699006837e-13
1.738809126e-13
1.778437714e-13
1.817906892e-13
1.857218569e-13
1.896360443e-13
1.935306502e-13
1.974018655e-13
2.012449233e-13
2.050544735e-13
2.088251871e-13
2.125532594e-13
2.162367925e-13
2.198775984e-13
2.234796329e-13
2.270470544e-13
2.305839026e-13
2.340938475e-13
2.375794414e-13
2.410419862e-13
2.444816956e-13
2.478979847e-13
2.512897801e-13
2.546557081e-13
2.579939286e-13
2.66307907e-13
2.752682263e-13
2.841407353e-13
2.929186328e-13
3.015959554e-13
3.10172085e-13
3.1864992e-13
3.270345315e-13
3.353319932e-13
3.435484869e-13
3.516903982e-13
3.597650047e-13
3.677787455e-13
3.757355041e-13
3.836362886e-13
3.91479604e-13
3.992620305e-13
4.069788687e-13
4.146248467e-13
4.221948797e-13
4.296848028e-13
4.370919385e-13
4.444154062e-13
4.51656185e-13
4.588169061e-13
4.659012286e-13
4.729133189e-13
4.798570267e-13
4.867354335e-13
4.935505991e-13
5.003035489e-13
5.069944445e-13
5.13622852e-13
5.201879865e-13
5.266888455e-13
5.331242381e-13
5.394928712e-13
5.457935363e-13
5.520253601e-13
5.581881021e-13
5.642830176e-13
5.703145599e-13
5.76287672e-13
5.822074355e-13
5.880788311e-13
5.939065566e-13
5.996948799e-13
6.054474239e-13
6.111669551e-13
6.168552859e-13
6.22513298e-13
6.281410495e-13
6.337379272e-13
6.393028212e-13
6.448343043e-13
6.503308058e-13
6.5579079e-13
6.612129925e-13
6.665969181e-13
6.719431496e-13
6.772532374e-13
6.825297517e-13
6.877768458e-13
6.929988803e-13
6.981999546e-13
7.033839189e-13
7.085544929e-13
7.137151021e-13
7.188687858e-13
7.240181922e-13
7.291656183e-13
7.343130537e-13
7.394621723e-13
7.446141118e-13
7.558150924e-13
7.670465325e-13
7.782681209e-13
7.894865405e-13
8.007078768e-13
8.119380999e-13
8.231176196e-13
8.341600716e-13
8.452375858e-13
8.563582145e-13
8.675300067e-13
8.787603624e-13
8.900528844e-13
9.014120754e-13
9.128423713e-13
9.243479797e-13
9.359329386e-13
9.476012686e-13
9.593571733e-13
9.712052596e-13
9.83150713e-13
9.951993615e-13
1.007357574e-12
1.019632193e-12
1.032030516e-12
1.044560459e-12
1.057230636e-12
1.070049988e-12
1.083027211e-12
1.09617082e-12
1.109489777e-12
1.122993152e-12
1.136690505e-12
1.150591057e-12
1.164704452e-12
1.179040529e-12
1.193608621e-12
1.208418026e-12
1.223477757e-12
1.238796839e-12
1.254390487e-12
1.27029558e-12
1.286578164e-12
1.303333966e-12
1.3205749e-12
1.338239782e-12
1.356297161e-12
1.374741135e-12
1.393576734e-12
1.412813516e-12
1.432463443e-12
1.45254047e-12
1.473061078e-12
1.494046597e-12
1.515531448e-12
1.537525571e-12
1.560037707e-12
1.583079072e-12
1.606657789e-12
1.631152219e-12
1.656314379e-12
1.682004057e-12
1.708228721e-12
1.734995192e-12
1.762311541e-12
1.790190867e-12
1.818648223e-12
1.847701918e-12
1.877370212e-12
1.907671263e-12
1.938626294e-12
1.970265252e-12
2.0026287e-12
2.035768189e-12
2.069752005e-12
2.104576955e-12
2.140247349e-12
2.176748133e-12
2.213985647e-12
2.252070775e-12
2.293845865e-12
2.340292216e-12
2.388022093e-12
2.437081638e-12
2.487514205e-12
2.539368076e-12
2.592703153e-12
2.64758379e-12
2.704078985e-12
2.762256729e-12
2.84983287e-12
2.9485417e-12
3.050088365e-12
3.154571346e-12
3.26311757e-12
3.375408922e-12
3.491062115e-12
3.610178076e-12
3.732653936e-12
3.858617382e-12
3.988572794e-12
4.123204538e-12
4.263195017e-12
4.409215336e-12
4.552757682e-12
4.700402473e-12
4.856853328e-12
5.022811749e-12
5.19915585e-12
5.386952063e-12
5.587336361e-12
5.801567217e-12
6.019630567e-12
6.252816931e-12
6.503084405e-12
6.771889996e-12
7.060611462e-12
7.370823571e-12
7.690203764e-12
8.02007802e-12
8.366106611e-12
8.731557776e-12
9.119283298e-12
9.593153548e-12
1.015085794e-11
1.077564759e-11
1.198168977e-11
1.329973126e-11
1.471550743e-11
1.630734772e-11
1.809671835e-11
2.011143166e-11
2.239801172e-11
2.500148853e-11
2.788448659e-11
3.104617621e-11
3.787233028e-11
4.54906362e-11
5.406105672e-11
6.379720874e-11
7.706722807e-11
1.042345624e-10
1.364722588e-10
1.745028163e-10
2.49213692e-10
3.347912646e-10
5.01859957e-10
7.322515618e-10
1.223886317e-09
2.101087026e-09
3.708861425e-09
7.05753348e-09
1.436017516e-08
3.185875033e-08
7.505236224e-08
1.959526995e-07
5.325137439e-07
1.645632527e-06
5.715101008e-06
2.111557118e-05
8.506053864e-05
0.0003529278608
0.001414142618
0.00478100351
0.01236427341
0.02498802876
0.04191965881
0.0594866751
0.0698548295
0.07595022418
0.079268053
0.08127888202
0.0825555428
0.08341555334
0.0840807228
0.08445414423
0.08464802852
0.08475218354
0.08481450759
0.08485301977
0.08487673318
0.08489164584
0.08489702621
0.08489775697
0.08489833423
0.08489879215
0.08489915748
0.08489944929
0.0848996826
0.08489986941
0.08490001886
0.08490013847
0.08490023419
0.0849003107
0.08490037189
0.08490042074
0.08490045974
0.08490049085
0.08490051563
0.08490053537
0.08490055108
0.08490056356
0.08490057347
0.08490058133
0.08490058757
0.08490059251
0.08490059641
0.0849005995
0.08490060194
0.08490060386
0.08490060538
0.08490060657
0.08490060751
0.08490060825
0.08490060882
0.08490060928
0.08490060963
0.08490060991
0.08490061012
0.08490061029
0.08490061042
0.08490061053
0.08490061061
0.08490061067
0.08490061071
0.08490061075
0.08490061078
0.0849006108
0.08490061082
0.08490061083
0.08490061084
0.08490061085
0.08490061085
0.08490061086
0.08490061086
0.08490061086
0.08490061087
0.08490061087
0.08490061087
0.08490061087
0.08490061087
0.08490061087
0.08490061087
0.08490061087
0.08490061087
0.08490061087
0.08490061087
0.08490061087
0.08490061087
0.08490061087
0.08490061087
0.08490061087
0.08490061087
0.08490061087
0.08490061087
0.08490061087
0.08490061087
0.08490061087
0.08490061087
0.08490061087
0.08490061087
0.08490061087
0.08490061087
0.08490061087
0.08490061087
0.08490061087
0.08490061087
0.08490061087
0.08490061087
0.08490061087
0.08490061087
0.08490061087
0.08490061087
0.08490061087
0.08490061087
0.08490061087
0.08490061087
0.08490061087
0.08490061087
0.08490061087
0.08490061087
0.08490061087
0.08490061087
0.08490061087
0.08490061087
0.08490061087
0.08490061087
0.08490061087
0.08490061087
0.08490061087
0.08490061087
0.08490061087
0.08490061087
0.08490061087
0.08490061087
0.08490061087
0.08490061087
0.08490061087
0.08490061087
0.08490061087
0.08490061087
0.08490061087
0.08490061087
0.08490061087
0.08490061087
0.08490061087
0.08490061087
0.08490061087
0.08490061087
0.08490061087
0.08490061087
0.08490061087
0.08490061087
0.08490061087
0.08490061087
0.08490061087
0.08490061087
0.08490061087
0.08490061087
0.08490061087
0.08490061087
0.08490061087
0.08490061087
0.08490061087
0.08490061087
0.08490061087
0.08490061087
0.08490061087
0.08490061087
0.08490061087
0.08490061087
0.08490061087
0.08490061087
0.08490061087
0.08490061087
0.08490061087
0.08490061087
0.08490061087
0.08490061087
0.08490061087
0.08490061087
0.08490061087
0.08490061087
0.08490061087
0.08490061087
0.08490061087
0.08490061087
0.08490061087
0.08490061087
0.08490061087
0.08490061087
0.08490061087
0.08490061087
0.08490061087
0.08490061087
0.08490061087
0.08490061087
0.08490061087
0.08490061087
0.08490061087
0.08490061087
0.08490061087
0.08490061087
0.08490061087
0.08490061087
0.08490061087
0.08490061087
0.08490061087
0.08490061087
0.08490061087
0.08490061087
0.08490061087
0.08490061087
0.08490061087
0.08490061087
0.08490061087
0.08490061087
0.08490061087
0.08490061087
0.08490061087
0.08490061087
0.08490061087
0.08490061087
0.08490061087
0.08490061087
0.08490061087
0.08490061087
0.08490061087
0.08490061087
0.08490061087
0.08490061087
0.08490061087
0.08490061087
0.08490061087
0.08490061087
0.08490061087
0.08490061087
0.08490061087
0.08490061087
0.08490061087
0.08490061087
0.08490061087
0.08490061087
0.08490061087
0.08490061087
0.08490061087
0.08490061087
0.08490061087
0.08490061087
0.08490061087
0.08490061087
0.08490061087
0.08490061087
0.08490061087
0.08490061087
0.08490061087
0.08490061087
0.08490061087
0.08490061087
0.08490061087
0.08490061087
0.08490061087
0.08490061087
0.08490061087
0.08490061087
0.08490061087
0.08490061087
0.08490061087
0.08490061087
0.08490061087
0.08490061087
0.08490061087
0.08490061087
0.08490061087
0.08490061087
0.08490061087
0.08490061087
0.08490061087
0.08490061087
0.08490061087
0.08490061087
0.08490061087
0.08490061087
0.08490061087
0.08490061087
0.08490061087
0.08490061087
0.08490061087
0.08490061087
0.08490061087
0.08490061087
0.08490061087
0.08490061087
0.08490061087
0.08490061087
0.08490061087
0.08490061087
0.08490061087
0.08490061087
0.08490061087
0.08490061087
8.88230219e-15
8.923705551e-15
8.99829953e-15
9.099638432e-15
9.22210502e-15
9.361027057e-15
9.512830753e-15
9.675210612e-15
9.846453062e-15
1.002511188e-14
1.021000928e-14
1.040027109e-14
1.059513735e-14
1.08023233e-14
1.150597283e-14
1.221964838e-14
1.294186667e-14
1.367128531e-14
1.440676273e-14
1.514737162e-14
1.589243593e-14
1.664143687e-14
1.739397421e-14
1.814977103e-14
1.890854572e-14
1.966992058e-14
2.043332003e-14
2.119785046e-14
2.196219571e-14
2.272457831e-14
2.348281658e-14
2.423439549e-14
2.497890731e-14
2.571783105e-14
2.645247805e-14
2.718380366e-14
2.791224357e-14
2.863774584e-14
2.935996526e-14
3.007861575e-14
3.079391193e-14
3.150631869e-14
3.221639372e-14
3.292453068e-14
3.363081472e-14
3.433501169e-14
3.503660048e-14
3.573481135e-14
3.642867054e-14
3.71170716e-14
3.779890536e-14
3.847326085e-14
4.001570384e-14
4.205846261e-14
4.408062132e-14
4.608528067e-14
4.807525706e-14
5.005273803e-14
5.201909743e-14
5.397490213e-14
5.592003678e-14
5.785390555e-14
5.977568961e-14
6.16845838e-14
6.357985021e-14
6.546073461e-14
6.732589958e-14
6.917366524e-14
7.10019142e-14
7.280815547e-14
7.459254835e-14
7.635590747e-14
7.809953421e-14
7.982490632e-14
8.153332378e-14
8.322600936e-14
8.490488414e-14
8.657172987e-14
8.8227503e-14
8.987237495e-14
9.150590735e-14
9.312720913e-14
9.473507904e-14
9.632816156e-14
9.790513157e-14
9.946488665e-14
1.010067005e-13
1.025302938e-13
1.040358698e-13
1.055240442e-13
1.069957455e-13
1.084519958e-13
1.098937262e-13
1.113216475e-13
1.127361924e-13
1.141375213e-13
1.155255775e-13
1.169001748e-13
1.182610761e-13
1.196080137e-13
1.209406639e-13
1.222586481e-13
1.235615749e-13
1.248490973e-13
1.265338254e-13
1.301117849e-13
1.336452581e-13
1.371374235e-13
1.405914206e-13
1.440102566e-13
1.473967182e-13
1.507533492e-13
1.540822829e-13
1.573850462e-13
1.606624917e-13
1.639148339e-13
1.671417409e-13
1.703424481e-13
1.735158856e-13
1.76660811e-13
1.797759497e-13
1.82860157e-13
1.859126496e-13
1.889332868e-13
1.919225032e-13
1.948809728e-13
1.978094716e-13
2.00710388e-13
2.035858545e-13
2.064377537e-13
2.092678783e-13
2.120782244e-13
2.148706047e-13
2.17646544e-13
2.204072901e-13
2.231538597e-13
2.258870971e-13
2.286077348e-13
2.313164698e-13
2.340141751e-13