/*--------------------------------*- C++ -*----------------------------------*\
| =========                 |                                                 |
| \\      /  F ield         | OpenFOAM: The Open Source CFD Toolbox           |
|  \\    /   O peration     | Version:  v2006                                 |
|   \\  /    A nd           | Website:  www.openfoam.com                      |
|    \\/     M anipulation  |                                                 |
\*---------------------------------------------------------------------------*/
FoamFile
{
    version     2.0;
    format      ascii;
    class       volScalarField;
    location    "0.09";
    object      CH3O;
}
// * * * * * * * * * * * * * * * * * * * * * * * * * * * * * * * * * * * * * //

dimensions      [0 0 0 0 0 0 0];


internalField   nonuniform List<scalar> 
72000
(
1.198193982e-08
1.198699732e-08
1.199653215e-08
1.201009844e-08
1.20272514e-08
1.204757369e-08
1.207067874e-08
1.2096213e-08
1.212386374e-08
1.215334823e-08
1.218440313e-08
1.221677842e-08
1.225028597e-08
1.228477976e-08
1.232011714e-08
1.235616613e-08
1.239280582e-08
1.242992797e-08
1.246743805e-08
1.25052549e-08
1.254330811e-08
1.258153709e-08
1.261988881e-08
1.26583143e-08
1.269676739e-08
1.273520205e-08
1.277356982e-08
1.281181834e-08
1.284989154e-08
1.288773241e-08
1.292528847e-08
1.296251929e-08
1.299940259e-08
1.303593311e-08
1.307211479e-08
1.310795285e-08
1.314344912e-08
1.317860145e-08
1.321340675e-08
1.324786553e-08
1.328198506e-08
1.331577882e-08
1.334926294e-08
1.338245146e-08
1.341535231e-08
1.344796509e-08
1.34802806e-08
1.351228161e-08
1.354394457e-08
1.357524203e-08
1.360614922e-08
1.363665321e-08
1.366675302e-08
1.369645198e-08
1.372574986e-08
1.375468471e-08
1.378520018e-08
1.38153609e-08
1.384520362e-08
1.387474786e-08
1.390400267e-08
1.393297055e-08
1.396165019e-08
1.399003819e-08
1.401812957e-08
1.40459172e-08
1.407339651e-08
1.410056135e-08
1.412740573e-08
1.415392644e-08
1.418012569e-08
1.420601214e-08
1.423160027e-08
1.425690876e-08
1.428195845e-08
1.430677067e-08
1.433136562e-08
1.435576015e-08
1.437996594e-08
1.440398878e-08
1.4427829e-08
1.445148249e-08
1.447494235e-08
1.44982006e-08
1.452125004e-08
1.454408594e-08
1.456670715e-08
1.458911671e-08
1.461132178e-08
1.463333285e-08
1.465516218e-08
1.467682331e-08
1.469832892e-08
1.471969005e-08
1.474091553e-08
1.4762012e-08
1.478298432e-08
1.480383641e-08
1.482457068e-08
1.48451904e-08
1.486569835e-08
1.488609785e-08
1.490639314e-08
1.492659003e-08
1.494669644e-08
1.496672273e-08
1.498668182e-08
1.500658861e-08
1.502645947e-08
1.504631149e-08
1.506616172e-08
1.508602651e-08
1.510592079e-08
1.512585762e-08
1.514584776e-08
1.516589969e-08
1.518601972e-08
1.52062123e-08
1.522648035e-08
1.524682545e-08
1.526724773e-08
1.528774511e-08
1.530831133e-08
1.532893442e-08
1.534961357e-08
1.53703468e-08
1.539113257e-08
1.541202038e-08
1.543304233e-08
1.545422221e-08
1.547557974e-08
1.549713235e-08
1.551889598e-08
1.554088548e-08
1.556311476e-08
1.558559694e-08
1.560834456e-08
1.563136971e-08
1.565468424e-08
1.567829986e-08
1.570223081e-08
1.572649063e-08
1.575109124e-08
1.577604065e-08
1.580204004e-08
1.582920988e-08
1.585679105e-08
1.588480916e-08
1.591328502e-08
1.594223667e-08
1.597168038e-08
1.600163127e-08
1.603210361e-08
1.606311102e-08
1.60946667e-08
1.612678364e-08
1.615947485e-08
1.619275364e-08
1.622663384e-08
1.626112998e-08
1.629625732e-08
1.633203176e-08
1.636846978e-08
1.64055883e-08
1.644340461e-08
1.648193639e-08
1.65212017e-08
1.656121908e-08
1.660200747e-08
1.664358619e-08
1.66859749e-08
1.672919347e-08
1.677326182e-08
1.681819979e-08
1.686402683e-08
1.691076151e-08
1.69584206e-08
1.700701712e-08
1.705655737e-08
1.710700825e-08
1.715824735e-08
1.72099113e-08
1.725924064e-08
1.730641145e-08
1.735392506e-08
1.74021493e-08
1.745120327e-08
1.750113308e-08
1.755196211e-08
1.760370716e-08
1.765638397e-08
1.771000924e-08
1.776460104e-08
1.782017726e-08
1.78767531e-08
1.793434149e-08
1.799295448e-08
1.805260473e-08
1.811330215e-08
1.817504713e-08
1.823783324e-08
1.830165096e-08
1.836648079e-08
1.84355452e-08
1.850602957e-08
1.857762491e-08
1.86503446e-08
1.872418666e-08
1.879913086e-08
1.887514984e-08
1.895231072e-08
1.903067352e-08
1.911029347e-08
1.919121711e-08
1.927348372e-08
1.935714848e-08
1.944233881e-08
1.952941501e-08
1.961817039e-08
1.970847462e-08
1.980029604e-08
1.989362505e-08
1.9988461e-08
2.008481022e-08
2.018268412e-08
2.028209769e-08
2.038306462e-08
2.048558927e-08
2.058965473e-08
2.069524491e-08
2.08024371e-08
2.091127187e-08
2.102175324e-08
2.113385312e-08
2.124751009e-08
2.136258346e-08
2.147875808e-08
2.159513213e-08
2.169949937e-08
2.179907651e-08
2.189896689e-08
2.1999846e-08
2.210204496e-08
2.220573311e-08
2.231094663e-08
2.241759073e-08
2.252587842e-08
2.263591911e-08
2.274773915e-08
2.286146941e-08
2.297735892e-08
2.309557187e-08
2.321616711e-08
2.333917104e-08
2.346462359e-08
2.359261935e-08
2.372337858e-08
2.385759089e-08
2.398976873e-08
2.41196283e-08
2.425323654e-08
2.439088556e-08
2.453317554e-08
2.468080349e-08
2.483477801e-08
2.499531245e-08
2.516277413e-08
2.533778456e-08
2.552476287e-08
2.572471862e-08
2.591472703e-08
2.611501982e-08
2.632741439e-08
2.655346708e-08
2.67951839e-08
2.705325769e-08
2.732975647e-08
2.761813722e-08
2.791066224e-08
2.822882988e-08
2.857595791e-08
2.895772232e-08
2.940626543e-08
2.989631922e-08
3.04502208e-08
3.108244069e-08
3.180715943e-08
3.261267659e-08
3.35524596e-08
3.465992094e-08
3.597972559e-08
3.746670365e-08
3.928301162e-08
4.166650009e-08
4.457850016e-08
4.832973596e-08
5.336154588e-08
6.0144793e-08
6.966539633e-08
8.342092753e-08
1.038955738e-07
1.352535104e-07
1.850966182e-07
2.63278526e-07
4.15674652e-07
2.683504448e-06
2.191056078e-05
8.89872372e-06
3.268169078e-06
1.513495967e-06
7.731611604e-07
4.039317828e-07
2.028695261e-07
8.856878912e-08
4.630254665e-08
2.213604788e-08
1.135027714e-08
5.888840934e-09
3.883119661e-09
2.97783016e-09
2.333175948e-09
1.849905672e-09
1.476118593e-09
1.181835725e-09
9.477649482e-10
7.604833973e-10
6.102039642e-10
4.89458638e-10
3.923827566e-10
3.143451246e-10
2.516299053e-10
2.012562952e-10
1.608244229e-10
1.283956964e-10
1.024091138e-10
8.160311706e-11
6.496014675e-11
5.166013659e-11
4.104173063e-11
3.257261085e-11
2.582449184e-11
2.045300188e-11
1.618162068e-11
1.278847987e-11
1.009575224e-11
7.961075135e-12
6.270588246e-12
4.933292979e-12
3.876549444e-12
3.042425187e-12
2.384760115e-12
1.86681902e-12
1.459393639e-12
1.139288359e-12
8.880989989e-13
6.912396724e-13
5.371620062e-13
4.167325007e-13
3.227355323e-13
2.494769077e-13
1.924684175e-13
1.48176466e-13
1.138222179e-13
8.722313735e-14
6.666711146e-14
5.081280364e-14
3.861069431e-14
2.924072797e-14
2.206313507e-14
1.657944095e-14
1.24018902e-14
9.229364296e-15
6.828357751e-15
5.018210764e-15
3.659326382e-15
2.644124028e-15
1.889828572e-15
1.332978618e-15
9.249268569e-16
6.285855672e-16
4.15763715e-16
2.649680049e-16
1.60060278e-16
8.892692074e-17
4.257550399e-17
1.455913721e-17
1.314134984e-18
1.314134984e-18
1.314134984e-18
1.314134984e-18
1.314134984e-18
1.314134984e-18
1.314134984e-18
1.314134984e-18
1.314134984e-18
1.314134984e-18
1.314134984e-18
1.314134984e-18
1.314134984e-18
1.314134984e-18
2.370715381e-18
4.247441002e-18
6.210813765e-18
8.145876077e-18
1.005743213e-17
1.196710083e-17
1.570760319e-17
1.973847412e-17
2.208908786e-17
2.35219505e-17
2.457682383e-17
2.537902641e-17
2.572190324e-17
2.593607571e-17
2.58677918e-17
2.599673002e-17
2.584401296e-17
2.59048235e-17
2.566794005e-17
2.552266953e-17
2.531089332e-17
2.514156085e-17
2.503958093e-17
2.501096432e-17
2.504411217e-17
2.480240095e-17
2.460897503e-17
2.452638038e-17
2.45454989e-17
2.463853487e-17
2.443874403e-17
2.406519582e-17
2.393704786e-17
2.390674936e-17
2.386761294e-17
2.384104977e-17
2.388414762e-17
2.365119637e-17
2.359618575e-17
2.35705025e-17
2.360980275e-17
2.371407238e-17
2.347181492e-17
2.339735295e-17
2.346359824e-17
2.325345126e-17
2.318535507e-17
2.29385044e-17
2.292545428e-17
2.298038004e-17
2.309067539e-17
2.285324812e-17
2.280586492e-17
2.272379052e-17
2.275007368e-17
2.250077445e-17
2.240294236e-17
2.236020985e-17
2.242212386e-17
2.260189129e-17
2.254651309e-17
2.223829773e-17
2.224085024e-17
2.241398359e-17
2.233706755e-17
2.206039992e-17
2.19907036e-17
2.20005734e-17
2.211883932e-17
2.188788643e-17
2.175637453e-17
2.166273432e-17
2.173815122e-17
2.159926695e-17
2.144948513e-17
2.112584199e-17
2.086167135e-17
2.091484363e-17
2.094600655e-17
2.097260688e-17
2.073062099e-17
2.065562226e-17
2.062921259e-17
2.072601227e-17
2.051961954e-17
2.043619849e-17
2.037869921e-17
2.029302872e-17
2.03590064e-17
2.010882329e-17
2.003006084e-17
2.0107055e-17
1.993376676e-17
1.99914166e-17
1.972586147e-17
1.964680233e-17
1.954932045e-17
1.953501731e-17
1.95261472e-17
1.95719879e-17
1.96590052e-17
1.947830759e-17
1.932783309e-17
1.916454527e-17
1.906220808e-17
1.900326458e-17
1.890710972e-17
1.890232376e-17
1.865003214e-17
1.864255049e-17
1.872365547e-17
1.849356442e-17
1.853675916e-17
1.840614456e-17
1.807647569e-17
1.791497456e-17
1.781422253e-17
1.778336524e-17
1.779929312e-17
1.750108059e-17
1.744920261e-17
1.716588127e-17
1.704029442e-17
1.689364111e-17
1.682332697e-17
1.682271946e-17
1.689272296e-17
1.669573245e-17
1.668294683e-17
1.6413676e-17
1.635724715e-17
1.652430762e-17
1.646458023e-17
1.625269473e-17
1.587482642e-17
1.585793169e-17
1.568234305e-17
1.531163698e-17
1.519471096e-17
1.524317197e-17
1.49656103e-17
1.490656217e-17
1.503217223e-17
1.487944207e-17
1.448219951e-17
1.444362841e-17
1.424922515e-17
1.388938841e-17
1.366571288e-17
1.351696533e-17
1.332782353e-17
1.316291526e-17
1.305541505e-17
1.293001475e-17
1.283185928e-17
1.271047378e-17
1.267367749e-17
1.222845903e-17
1.191447401e-17
1.175036701e-17
1.17306735e-17
1.146780235e-17
1.143382446e-17
1.145215925e-17
1.113023826e-17
1.096653585e-17
1.056870781e-17
1.034848827e-17
1.033626952e-17
1.011986172e-17
9.844981786e-18
9.417791796e-18
9.14908714e-18
8.918191189e-18
8.713716777e-18
8.539051415e-18
8.468267613e-18
8.109018058e-18
7.882132948e-18
7.651710776e-18
7.536181129e-18
7.127318546e-18
6.87787319e-18
6.785562568e-18
6.433630309e-18
6.234847929e-18
5.999272895e-18
5.756985821e-18
5.646124244e-18
5.209076323e-18
5.004317088e-18
4.708150408e-18
4.231013698e-18
4.045348546e-18
3.585694771e-18
3.325892575e-18
3.127849336e-18
2.599529406e-18
2.087945518e-18
1.607854973e-18
6.698061137e-09
6.704029098e-09
6.714685533e-09
6.72916955e-09
6.746759217e-09
6.766899394e-09
6.78915016e-09
6.813166063e-09
6.838674191e-09
6.865447352e-09
6.89329331e-09
6.922047825e-09
6.951572533e-09
6.9817463e-09
7.012460659e-09
7.043635039e-09
7.075196912e-09
7.107079518e-09
7.139222624e-09
7.171571872e-09
7.204076774e-09
7.23670375e-09
7.269433594e-09
7.302244427e-09
7.335111761e-09
7.368007109e-09
7.40089587e-09
7.433735505e-09
7.466475227e-09
7.499058589e-09
7.531430305e-09
7.563548201e-09
7.595396732e-09
7.626985411e-09
7.658334413e-09
7.689463033e-09
7.720383812e-09
7.751102078e-09
7.781619456e-09
7.811939098e-09
7.842069278e-09
7.872022164e-09
7.901810252e-09
7.931441991e-09
7.960918494e-09
7.990231985e-09
8.019365669e-09
8.048294529e-09
8.076986682e-09
8.105404655e-09
8.135073921e-09
8.165826481e-09
8.196206656e-09
8.226227523e-09
8.255911725e-09
8.285283792e-09
8.314370214e-09
8.343206603e-09
8.371818762e-09
8.400221339e-09
8.42841973e-09
8.456412477e-09
8.484193311e-09
8.5117521e-09
8.539073907e-09
8.566136508e-09
8.592935643e-09
8.619461725e-09
8.645701546e-09
8.671644869e-09
8.697290931e-09
8.722647412e-09
8.747727826e-09
8.772548954e-09
8.797128918e-09
8.821486519e-09
8.8456408e-09
8.869608041e-09
8.893398673e-09
8.917016177e-09
8.940457598e-09
8.963714869e-09
8.986776536e-09
9.009629682e-09
9.032261921e-09
9.054663231e-09
9.076827358e-09
9.098752598e-09
9.120441895e-09
9.141902283e-09
9.163143317e-09
9.184175885e-09
9.205010196e-09
9.225654702e-09
9.246115388e-09
9.266395662e-09
9.286496686e-09
9.306417923e-09
9.326157626e-09
9.345713395e-09
9.365082359e-09
9.384261587e-09
9.403248623e-09
9.422042169e-09
9.44064305e-09
9.459056198e-09
9.477292716e-09
9.495365941e-09
9.513289865e-09
9.531078338e-09
9.548744466e-09
9.56630007e-09
9.583755128e-09
9.6011173e-09
9.618391682e-09
9.635580834e-09
9.652685004e-09
9.669702486e-09
9.686630016e-09
9.703463128e-09
9.72019634e-09
9.736823024e-09
9.753334497e-09
9.770622711e-09
9.78838897e-09
9.806023936e-09
9.823537382e-09
9.840946956e-09
9.858270065e-09
9.87552168e-09
9.89271476e-09
9.909860931e-09
9.926970544e-09
9.944052623e-09
9.961114915e-09
9.978164013e-09
9.995205468e-09
1.001224381e-08
1.002928245e-08
1.004632419e-08
1.006337961e-08
1.008045805e-08
1.009756701e-08
1.011471185e-08
1.01318958e-08
1.014912665e-08
1.016641855e-08
1.018378613e-08
1.020124094e-08
1.021879265e-08
1.023644919e-08
1.025421653e-08
1.02720998e-08
1.029010368e-08
1.030823247e-08
1.032649018e-08
1.034488074e-08
1.036340823e-08
1.038207708e-08
1.040089224e-08
1.041985926e-08
1.04389842e-08
1.045827356e-08
1.047773433e-08
1.049737402e-08
1.051720074e-08
1.053722272e-08
1.055744801e-08
1.057788439e-08
1.059853977e-08
1.061942198e-08
1.064053906e-08
1.066189835e-08
1.068350731e-08
1.070537341e-08
1.072750259e-08
1.074989979e-08
1.077256728e-08
1.079504596e-08
1.081671702e-08
1.083863803e-08
1.086093368e-08
1.088425519e-08
1.090857472e-08
1.093332614e-08
1.09584231e-08
1.098386155e-08
1.100964815e-08
1.103578979e-08
1.106229312e-08
1.108916554e-08
1.111641614e-08
1.114405633e-08
1.117209788e-08
1.120054736e-08
1.122940827e-08
1.125868385e-08
1.128838164e-08
1.131852989e-08
1.134910808e-08
1.138009174e-08
1.141146716e-08
1.144322153e-08
1.147534348e-08
1.150783714e-08
1.154070817e-08
1.157396016e-08
1.160759186e-08
1.164159644e-08
1.167596683e-08
1.171208213e-08
1.17499244e-08
1.178824155e-08
1.182706649e-08
1.186641071e-08
1.190627907e-08
1.19466752e-08
1.198093688e-08
1.201415015e-08
1.204776193e-08
1.208178355e-08
1.211616653e-08
1.215089624e-08
1.218596766e-08
1.222138099e-08
1.225714102e-08
1.229325372e-08
1.232971322e-08
1.236650629e-08
1.240362442e-08
1.24410804e-08
1.247887912e-08
1.251700777e-08
1.255543526e-08
1.259409737e-08
1.26328794e-08
1.266271215e-08
1.269036122e-08
1.271710384e-08
1.274312432e-08
1.276877982e-08
1.27943717e-08
1.282011896e-08
1.284622248e-08
1.287272298e-08
1.289959901e-08
1.292691611e-08
1.295474217e-08
1.297393933e-08
1.298433325e-08
1.299471812e-08
1.300535194e-08
1.301605874e-08
1.302677043e-08
1.303754608e-08
1.305088202e-08
1.306368831e-08
1.306294342e-08
1.3051427e-08
1.30373924e-08
1.302265379e-08
1.300793831e-08
1.299389421e-08
1.29808452e-08
1.296155209e-08
1.294141709e-08
1.292260094e-08
1.29054244e-08
1.288991628e-08
1.287309517e-08
1.285168947e-08
1.283149305e-08
1.281307388e-08
1.280467374e-08
1.280447267e-08
1.280874664e-08
1.281765258e-08
1.28317898e-08
1.285714511e-08
1.289853119e-08
1.296091385e-08
1.302176948e-08
1.311307897e-08
1.324289987e-08
1.349257844e-08
1.378104715e-08
1.414155411e-08
1.462153188e-08
1.522221362e-08
1.59575783e-08
1.694035863e-08
1.827174964e-08
1.995868302e-08
2.234563657e-08
2.549570397e-08
3.009931673e-08
3.713631656e-08
4.863506884e-08
7.041939355e-08
1.205048707e-07
2.89718137e-07
1.099793406e-06
5.478453803e-06
1.76545569e-05
3.058848649e-05
3.446189417e-05
1.880492963e-05
9.781693174e-06
4.445076651e-06
2.74297256e-06
1.698640791e-06
1.033243378e-06
5.968357978e-07
2.701994563e-07
1.273214618e-07
6.370516223e-08
3.272077994e-08
1.646159026e-08
7.170908608e-09
3.055514927e-09
2.411902179e-09
1.918138317e-09
1.531849286e-09
1.226150578e-09
9.825883759e-10
7.875983261e-10
6.312209422e-10
5.057316623e-10
4.049510817e-10
3.240517533e-10
2.591186242e-10
2.070286442e-10
1.652734028e-10
1.318194757e-10
1.050428909e-10
8.362733049e-11
6.651387508e-11
5.285183745e-11
4.195456071e-11
3.327093759e-11
2.635810057e-11
2.086014329e-11
1.649182424e-11
1.302446003e-11
1.027494647e-11
8.096882029e-12
6.373311347e-12
5.010818592e-12
3.934919691e-12
3.086264922e-12
2.417592569e-12
1.891333618e-12
1.477633966e-12
1.152808654e-12
8.980775218e-13
6.985688334e-13
5.425158389e-13
4.206188018e-13
3.255359154e-13
2.514772987e-13
1.938823756e-13
1.491631259e-13
1.144995106e-13
8.767826545e-14
6.696420152e-14
5.099873966e-14
3.871954045e-14
2.929713149e-14
2.20846704e-14
1.657856898e-14
1.238734258e-14
9.207138704e-15
6.802517172e-15
4.991381378e-15
3.633175417e-15
2.619661395e-15
1.867561801e-15
1.313123382e-15
9.074944814e-16
6.13437931e-16
4.026715892e-16
2.536973564e-16
1.503702107e-16
8.046106603e-17
3.493751553e-17
7.083290433e-18
1.314134984e-18
1.314134984e-18
1.314134984e-18
1.314134984e-18
1.314134984e-18
1.314134984e-18
1.314134984e-18
1.314134984e-18
1.314134984e-18
1.314134984e-18
1.314134984e-18
1.314134984e-18
1.314134984e-18
1.314134984e-18
1.503557647e-18
3.67728565e-18
5.751498124e-18
7.744039232e-18
9.630544828e-18
1.137669921e-17
1.300618022e-17
2.10909347e-17
2.597292746e-17
2.928833509e-17
3.135970465e-17
3.308343039e-17
3.387970857e-17
3.415842862e-17
3.420238405e-17
3.429319949e-17
3.409831802e-17
3.402943297e-17
3.391617121e-17
3.377717579e-17
3.327835345e-17
3.295810937e-17
3.270792851e-17
3.267902536e-17
3.246458325e-17
3.2432295e-17
3.19301946e-17
3.17936171e-17
3.188290037e-17
3.188831068e-17
3.145951387e-17
3.10119379e-17
3.090877036e-17
3.102105392e-17
3.096311701e-17
3.087296258e-17
3.065885106e-17
3.045482102e-17
3.052018793e-17
3.046352367e-17
3.056593192e-17
3.056731797e-17
3.026632458e-17
3.016277997e-17
3.012239449e-17
3.000793495e-17
2.956898351e-17
2.936983803e-17
2.955338586e-17
2.96216216e-17
2.975211606e-17
2.941764197e-17
2.936464229e-17
2.934551843e-17
2.913960102e-17
2.897069431e-17
2.887448352e-17
2.878813377e-17
2.889715253e-17
2.896584707e-17
2.900110894e-17
2.86176042e-17
2.855550294e-17
2.870076658e-17
2.857722198e-17
2.834030549e-17
2.831734236e-17
2.835892751e-17
2.846894114e-17
2.830559498e-17
2.81069398e-17
2.782490437e-17
2.777155447e-17
2.734514014e-17
2.730200319e-17
2.71028121e-17
2.692314086e-17
2.699334433e-17
2.707745116e-17
2.676545627e-17
2.663679977e-17
2.658784637e-17
2.651298928e-17
2.654631267e-17
2.641714849e-17
2.63805527e-17
2.635343074e-17
2.603981213e-17
2.599740075e-17
2.577921625e-17
2.564843232e-17
2.557720987e-17
2.547006762e-17
2.553406982e-17
2.529926424e-17
2.53570361e-17
2.517937097e-17
2.517629443e-17
2.517345005e-17
2.524420749e-17
2.509028318e-17
2.51666115e-17
2.494642159e-17
2.460904409e-17
2.450286523e-17
2.448672514e-17
2.427288759e-17
2.395856856e-17
2.379988892e-17
2.388787442e-17
2.385300388e-17
2.353994888e-17
2.350265818e-17
2.333002165e-17
2.309040327e-17
2.29252391e-17
2.280256272e-17
2.285013193e-17
2.262344252e-17
2.222024566e-17
2.201082594e-17
2.183931888e-17
2.183912388e-17
2.154769413e-17
2.143145272e-17
2.147914705e-17
2.14108139e-17
2.123723757e-17
2.104009906e-17
2.077855787e-17
2.067600814e-17
2.085741597e-17
2.076051026e-17
2.044889328e-17
1.99426626e-17
1.985522846e-17
1.968959843e-17
1.934311952e-17
1.925749875e-17
1.926469505e-17
1.893800824e-17
1.892841498e-17
1.90886061e-17
1.884943241e-17
1.821833476e-17
1.809302894e-17
1.786544479e-17
1.768039885e-17
1.764726869e-17
1.734115805e-17
1.704534608e-17
1.679847028e-17
1.668430208e-17
1.65754363e-17
1.654708195e-17
1.630363773e-17
1.617899223e-17
1.560194438e-17
1.513944434e-17
1.482421801e-17
1.466704729e-17
1.444584459e-17
1.470072689e-17
1.455731394e-17
1.425917387e-17
1.376322774e-17
1.338555854e-17
1.30557205e-17
1.292752624e-17
1.253564511e-17
1.225395626e-17
1.197881182e-17
1.173536775e-17
1.143047795e-17
1.117645969e-17
1.095455501e-17
1.067551848e-17
1.03796948e-17
1.021250334e-17
9.792932688e-18
9.465238605e-18
9.02540121e-18
8.702037546e-18
8.444722302e-18
8.167029317e-18
8.105808302e-18
7.826137433e-18
7.342105072e-18
7.096642165e-18
6.471789999e-18
5.926493795e-18
5.636407057e-18
5.083705442e-18
4.825232511e-18
4.295181663e-18
4.07904542e-18
3.716812088e-18
3.097910097e-18
2.26035518e-18
1.628269875e-18
3.701333098e-09
3.706036466e-09
3.714461695e-09
3.725847979e-09
3.739570127e-09
3.755135678e-09
3.772168857e-09
3.790399679e-09
3.809624978e-09
3.829682139e-09
3.850439156e-09
3.871789281e-09
3.893640343e-09
3.915904551e-09
3.938487221e-09
3.961357847e-09
3.984474268e-09
4.007795135e-09
4.031283195e-09
4.054905049e-09
4.080665111e-09
4.108610731e-09
4.136643498e-09
4.164752732e-09
4.192924738e-09
4.22114148e-09
4.249377958e-09
4.277599419e-09
4.305759685e-09
4.333802207e-09
4.361665844e-09
4.389299634e-09
4.41669105e-09
4.443863871e-09
4.470851085e-09
4.49768049e-09
4.524368674e-09
4.550921299e-09
4.57733803e-09
4.603620029e-09
4.629776021e-09
4.655819471e-09
4.681764194e-09
4.707619097e-09
4.733384765e-09
4.759052377e-09
4.784603993e-09
4.81001352e-09
4.835248233e-09
4.860271023e-09
4.885043745e-09
4.90953873e-09
4.933738472e-09
4.957658415e-09
4.981331103e-09
5.004787273e-09
5.028055673e-09
5.051161766e-09
5.074123385e-09
5.096949934e-09
5.119643419e-09
5.142200285e-09
5.164613374e-09
5.186873071e-09
5.208966199e-09
5.23349018e-09
5.258175302e-09
5.282625786e-09
5.306821458e-09
5.330744439e-09
5.354393328e-09
5.37777654e-09
5.400907968e-09
5.423803869e-09
5.446480536e-09
5.468954795e-09
5.491246315e-09
5.513372718e-09
5.535344496e-09
5.557164011e-09
5.578826544e-09
5.600321922e-09
5.621636323e-09
5.642754216e-09
5.663660451e-09
5.684342274e-09
5.704790901e-09
5.725002441e-09
5.74497813e-09
5.764723824e-09
5.784248546e-09
5.803562475e-09
5.822675133e-09
5.841593936e-09
5.860323479e-09
5.878865446e-09
5.897219027e-09
5.915381576e-09
5.933349231e-09
5.951117283e-09
5.968680331e-09
5.986032592e-09
6.003168412e-09
6.020082784e-09
6.036771516e-09
6.053233965e-09
6.069483762e-09
6.085533726e-09
6.101396377e-09
6.11708364e-09
6.132606437e-09
6.147974293e-09
6.163194782e-09
6.178272993e-09
6.193211305e-09
6.208009473e-09
6.222664929e-09
6.237173195e-09
6.25152836e-09
6.265723556e-09
6.279751417e-09
6.29360453e-09
6.307275942e-09
6.320759996e-09
6.334056219e-09
6.347167582e-09
6.360098867e-09
6.372859479e-09
6.385458895e-09
6.39790526e-09
6.410205804e-09
6.422367548e-09
6.434396661e-09
6.446298075e-09
6.458075485e-09
6.46973149e-09
6.48126775e-09
6.492684974e-09
6.503982343e-09
6.51621494e-09
6.528333958e-09
6.540337743e-09
6.552231432e-09
6.564019343e-09
6.57570557e-09
6.587104324e-09
6.597932812e-09
6.608655937e-09
6.619279044e-09
6.629807665e-09
6.640246418e-09
6.650593827e-09
6.660849941e-09
6.671014749e-09
6.681087881e-09
6.691068636e-09
6.700956146e-09
6.710749591e-09
6.72044845e-09
6.73005269e-09
6.739562842e-09
6.748979859e-09
6.758305072e-09
6.767540171e-09
6.776687523e-09
6.785750283e-09
6.794731742e-09
6.803634317e-09
6.81245965e-09
6.821209732e-09
6.829886262e-09
6.838491374e-09
6.847026133e-09
6.855491974e-09
6.863890326e-09
6.872221359e-09
6.880484863e-09
6.888679753e-09
6.896804373e-09
6.904862778e-09
6.912881157e-09
6.920914734e-09
6.929048475e-09
6.937279551e-09
6.945530545e-09
6.953756013e-09
6.961936787e-09
6.970064304e-09
6.978133908e-09
6.986142687e-09
6.99408907e-09
7.001973362e-09
7.009800081e-09
7.017586293e-09
7.025322461e-09
7.032997068e-09
7.040601311e-09
7.048123562e-09
7.054407974e-09
7.060087413e-09
7.065582689e-09
7.070878436e-09
7.075957822e-09
7.080804365e-09
7.08540461e-09
7.089744247e-09
7.093816782e-09
7.097613751e-09
7.101124216e-09
7.104337522e-09
7.107246805e-09
7.109858208e-09
7.112190523e-09
7.114271706e-09
7.116060832e-09
7.117523429e-09
7.118608624e-09
7.119200823e-09
7.119354436e-09
7.118391091e-09
7.116112162e-09
7.113409288e-09
7.110270118e-09
7.106679655e-09
7.102624116e-09
7.098093677e-09
7.093095415e-09
7.087598889e-09
7.081572513e-09
7.076677947e-09
7.071569022e-09
7.065672069e-09
7.058940394e-09
7.046562155e-09
7.031035336e-09
7.014407666e-09
6.996615936e-09
6.977531498e-09
6.957100261e-09
6.935379901e-09
6.912467746e-09
6.88844204e-09
6.863357834e-09
6.83071887e-09
6.794089229e-09
6.756377563e-09
6.71756728e-09
6.677651231e-09
6.636630067e-09
6.594524063e-09
6.551389262e-09
6.50193432e-09
6.450790394e-09
6.398162304e-09
6.343979639e-09
6.288158281e-09
6.230567869e-09
6.174729817e-09
6.116821256e-09
6.055178973e-09
5.989849161e-09
5.92062722e-09
5.860570812e-09
5.807733787e-09
5.753523379e-09
5.706696075e-09
5.657063646e-09
5.605669795e-09
5.55381746e-09
5.501370809e-09
5.446023697e-09
5.389062889e-09
5.332723797e-09
5.276322209e-09
5.216243326e-09
5.165479094e-09
5.123146926e-09
5.081242838e-09
5.031486342e-09
5.03126602e-09
5.061090147e-09
5.099442501e-09
5.13775293e-09
5.217983962e-09
5.297838068e-09
5.441327471e-09
5.638819258e-09
5.912054672e-09
6.261401934e-09
6.709450672e-09
7.327231662e-09
8.164597789e-09
9.32404108e-09
1.094310518e-08
1.332602144e-08
1.687628942e-08
2.295198395e-08
3.505093994e-08
6.504259295e-08
1.724398065e-07
6.835767167e-07
3.163416512e-06
1.029859478e-05
2.005473452e-05
2.807430385e-05
2.994718478e-05
2.275015107e-05
1.50915628e-05
9.041416482e-06
5.420450228e-06
3.459554249e-06
2.261000717e-06
1.426619474e-06
7.319202421e-07
3.790802008e-07
2.064221165e-07
1.154833808e-07
6.409629319e-08
3.407489438e-08
1.652272041e-08
6.007204683e-09
2.353972828e-09
1.87409896e-09
1.495025405e-09
1.194318684e-09
9.54413974e-10
7.627853906e-10
6.095782568e-10
4.869032909e-10
3.887637801e-10
3.10213597e-10
2.4735835e-10
1.971129649e-10
1.569364581e-10
1.248525501e-10
9.924451522e-11
7.881677072e-11
6.253992041e-11
4.957829766e-11
3.926601822e-11
3.106962215e-11
2.456015881e-11
1.939543031e-11
1.53014258e-11
1.205907965e-11
9.493669736e-12
7.465951035e-12
5.864779326e-12
4.601726273e-12
3.606468872e-12
2.823023048e-12
2.207004074e-12
1.723156613e-12
1.343563664e-12
1.046112311e-12
8.13314686e-13
6.313486523e-13
4.893013031e-13
3.785669202e-13
2.923647029e-13
2.253590768e-13
1.733563499e-13
1.330627003e-13
1.018958165e-13
7.783219691e-14
5.928904023e-14
4.502933237e-14
3.408788439e-14
2.57124929e-14
1.931783139e-14
1.44491513e-14
1.075358464e-14
7.957886634e-15
5.850814819e-15
4.269282798e-15
3.087775239e-15
2.209791245e-15
1.56134205e-15
1.085794911e-15
7.400058991e-16
4.911144717e-16
3.141993667e-16
1.904519775e-16
1.05633176e-16
4.916102994e-17
1.304272644e-17
1.314134984e-18
1.314134984e-18
1.314134984e-18
1.314134984e-18
1.314134984e-18
1.314134984e-18
1.314134984e-18
1.314134984e-18
1.314134984e-18
1.314134984e-18
1.314134984e-18
1.314134984e-18
1.314134984e-18
1.314134984e-18
1.314134984e-18
1.961843818e-18
4.277638818e-18
6.394574338e-18
8.277133628e-18
9.940415597e-18
1.137138028e-17
1.257637608e-17
2.10814948e-17
2.840211644e-17
3.334779553e-17
3.689455162e-17
3.921142772e-17
4.031271216e-17
4.094719267e-17
4.140820459e-17
4.155996756e-17
4.154301813e-17
4.148052554e-17
4.118529561e-17
4.06649062e-17
4.03648139e-17
4.014847651e-17
3.995108124e-17
3.970143233e-17
3.949056342e-17
3.902130852e-17
3.877763267e-17
3.859540566e-17
3.829744871e-17
3.803897856e-17
3.779199401e-17
3.769136073e-17
3.759958655e-17
3.742883413e-17
3.738384666e-17
3.732214518e-17
3.696868561e-17
3.687674536e-17
3.684551962e-17
3.688307104e-17
3.659051959e-17
3.639941146e-17
3.626023429e-17
3.605784053e-17
3.584769974e-17
3.557847367e-17
3.538157127e-17
3.548092105e-17
3.541734012e-17
3.548790396e-17
3.526363231e-17
3.528262726e-17
3.499140128e-17
3.495519271e-17
3.473774409e-17
3.470741721e-17
3.451931092e-17
3.465275371e-17
3.464211033e-17
3.456827084e-17
3.438091145e-17
3.414810097e-17
3.394714437e-17
3.393387069e-17
3.376408716e-17
3.389379618e-17
3.389136344e-17
3.371985071e-17
3.349168076e-17
3.331296964e-17
3.315357375e-17
3.301364419e-17
3.28026369e-17
3.269487684e-17
3.251643177e-17
3.238709292e-17
3.238280121e-17
3.229173227e-17
3.218025014e-17
3.185104543e-17
3.19176874e-17
3.163122156e-17
3.173401392e-17
3.168188314e-17
3.166152278e-17
3.14542028e-17
3.135402283e-17
3.102863294e-17
3.087339899e-17
3.052024248e-17
3.037328129e-17
3.012070074e-17
3.015080113e-17
2.996166228e-17
3.007078893e-17
3.000579132e-17
3.017425194e-17
3.006329867e-17
2.990512655e-17
2.964288717e-17
2.982175196e-17
2.945445356e-17
2.928330136e-17
2.921095891e-17
2.884864024e-17
2.849506898e-17
2.847208933e-17
2.812771721e-17
2.793882944e-17
2.796317568e-17
2.786809435e-17
2.779665471e-17
2.777769932e-17
2.74694005e-17
2.725400773e-17
2.703784363e-17
2.678504348e-17
2.641631583e-17
2.628596953e-17
2.60027e-17
2.573601696e-17
2.567146645e-17
2.547589968e-17
2.527092914e-17
2.551249269e-17
2.547073457e-17
2.525054621e-17
2.490516115e-17
2.441628417e-17
2.406298997e-17
2.414156223e-17
2.415320219e-17
2.369838052e-17
2.308345376e-17
2.292986176e-17
2.264063585e-17
2.264604478e-17
2.268260388e-17
2.238468014e-17
2.210078178e-17
2.216147683e-17
2.227807824e-17
2.209102672e-17
2.163001566e-17
2.132050959e-17
2.103445711e-17
2.073600847e-17
2.085974545e-17
2.065285931e-17
2.027130663e-17
1.975270492e-17
1.980946313e-17
1.960996589e-17
1.927285135e-17
1.924004852e-17
1.894110873e-17
1.844349948e-17
1.776731438e-17
1.728359988e-17
1.718388369e-17
1.708472078e-17
1.710571977e-17
1.659278565e-17
1.63837485e-17
1.601661478e-17
1.571730119e-17
1.509903424e-17
1.463249342e-17
1.442537048e-17
1.420296207e-17
1.406294696e-17
1.393481723e-17
1.347330416e-17
1.317765515e-17
1.2963355e-17
1.247234214e-17
1.202643565e-17
1.159863939e-17
1.14295487e-17
1.110074323e-17
1.035239587e-17
1.003020487e-17
9.699576571e-18
9.214036148e-18
9.046296056e-18
8.734757888e-18
8.260222924e-18
7.829091119e-18
7.316868608e-18
6.854780224e-18
6.430728051e-18
5.96072107e-18
5.529962364e-18
5.041654656e-18
4.582945871e-18
4.065503557e-18
3.516063322e-18
2.639106462e-18
1.799306587e-18
1.843892788e-09
1.847091591e-09
1.852828899e-09
1.860574729e-09
1.869872869e-09
1.880352335e-09
1.891731732e-09
1.90383303e-09
1.916527096e-09
1.929708308e-09
1.943292668e-09
1.957219296e-09
1.971436084e-09
1.985952699e-09
2.004111137e-09
2.022481089e-09
2.04102708e-09
2.059717448e-09
2.078525997e-09
2.097432549e-09
2.116424688e-09
2.135492328e-09
2.154626577e-09
2.173822931e-09
2.193076972e-09
2.21238169e-09
2.231724649e-09
2.251084676e-09
2.270428931e-09
2.289711651e-09
2.308875151e-09
2.327850065e-09
2.346628196e-09