/*--------------------------------*- C++ -*----------------------------------*\
| =========                 |                                                 |
| \\      /  F ield         | OpenFOAM: The Open Source CFD Toolbox           |
|  \\    /   O peration     | Version:  v2006                                 |
|   \\  /    A nd           | Website:  www.openfoam.com                      |
|    \\/     M anipulation  |                                                 |
\*---------------------------------------------------------------------------*/
FoamFile
{
    version     2.0;
    format      ascii;
    class       volScalarField;
    location    "0.09";
    object      CH3OCH2;
}
// * * * * * * * * * * * * * * * * * * * * * * * * * * * * * * * * * * * * * //

dimensions      [0 0 0 0 0 0 0];


internalField   nonuniform List<scalar> 
72000
(
1.230069235e-12
1.233977758e-12
1.241299579e-12
1.251669704e-12
1.264731123e-12
1.28015983e-12
1.297660566e-12
1.316967506e-12
1.337847216e-12
1.360090215e-12
1.383502532e-12
1.407901038e-12
1.433147207e-12
1.45913323e-12
1.48575451e-12
1.512914684e-12
1.540525364e-12
1.568507154e-12
1.596790456e-12
1.62531527e-12
1.654029408e-12
1.682888046e-12
1.711851949e-12
1.740884587e-12
1.769951203e-12
1.799016901e-12
1.82804478e-12
1.856994817e-12
1.885824092e-12
1.914488901e-12
1.942948957e-12
1.971173072e-12
1.999143808e-12
2.02685652e-12
2.054313445e-12
2.081517707e-12
2.108469761e-12
2.135167001e-12
2.161606054e-12
2.187786267e-12
2.213712197e-12
2.239393188e-12
2.264840733e-12
2.290064858e-12
2.315071051e-12
2.339858549e-12
2.364419992e-12
2.388742036e-12
2.41280658e-12
2.43659262e-12
2.460080782e-12
2.483261278e-12
2.506133798e-12
2.528700432e-12
2.550959702e-12
2.573392119e-12
2.617609789e-12
2.66132178e-12
2.704581088e-12
2.747415334e-12
2.789836844e-12
2.831848297e-12
2.873446671e-12
2.914625696e-12
2.955376495e-12
2.995687324e-12
3.035550758e-12
3.074957372e-12
3.113897757e-12
3.152366679e-12
3.190367067e-12
3.227911287e-12
3.26502018e-12
3.301720551e-12
3.338042336e-12
3.374016228e-12
3.409671354e-12
3.445032055e-12
3.480115179e-12
3.514929045e-12
3.549474005e-12
3.583744057e-12
3.617729099e-12
3.651417534e-12
3.684798938e-12
3.717866437e-12
3.750618445e-12
3.783059476e-12
3.81520002e-12
3.847055501e-12
3.878643919e-12
3.909985142e-12
3.941097866e-12
3.971998392e-12
4.002699881e-12
4.033212337e-12
4.063543186e-12
4.093698496e-12
4.123682246e-12
4.153499621e-12
4.183155166e-12
4.212654231e-12
4.242003574e-12
4.271212261e-12
4.300292465e-12
4.329259933e-12
4.358134112e-12
4.386937371e-12
4.415694195e-12
4.444430142e-12
4.473170772e-12
4.501940652e-12
4.530762412e-12
4.559655959e-12
4.588638009e-12
4.617721992e-12
4.646918282e-12
4.67623462e-12
4.705676583e-12
4.735247897e-12
4.76495026e-12
4.794782154e-12
4.824735996e-12
4.854795168e-12
4.884960039e-12
4.915229223e-12
4.945601277e-12
4.976150927e-12
5.006926945e-12
5.037965973e-12
5.069298763e-12
5.100952874e-12
5.132953821e-12
5.16532562e-12
5.198091078e-12
5.23127203e-12
5.264889579e-12
5.298964374e-12
5.33351689e-12
5.368567501e-12
5.404140331e-12
5.440258558e-12
5.476943242e-12
5.514210115e-12
5.566243769e-12
5.635268867e-12
5.705377367e-12
5.776642389e-12
5.849124239e-12
5.922876348e-12
5.997947865e-12
6.07438511e-12
6.15223258e-12
6.231533626e-12
6.312330939e-12
6.394667126e-12
6.478585372e-12
6.564130153e-12
6.651347868e-12
6.740287283e-12
6.830999687e-12
6.92353877e-12
7.017960376e-12
7.11432226e-12
7.212683981e-12
7.31310692e-12
7.415654305e-12
7.520391309e-12
7.62738501e-12
7.73670445e-12
7.848420401e-12
7.962605324e-12
8.079332751e-12
8.198677113e-12
8.320713032e-12
8.445513702e-12
8.573148683e-12
8.703678513e-12
8.837146868e-12
8.973492077e-12
9.112403341e-12
9.252898781e-12
9.394630419e-12
9.537713482e-12
9.68274888e-12
9.830807402e-12
9.98227028e-12
1.013731889e-11
1.029607434e-11
1.045864221e-11
1.062512796e-11
1.079564264e-11
1.097030409e-11
1.114923284e-11
1.133254492e-11
1.152035275e-11
1.171276903e-11
1.190991078e-11
1.211188984e-11
1.231879344e-11
1.25306918e-11
1.274764979e-11
1.296970978e-11
1.332228426e-11
1.369657475e-11
1.407981222e-11
1.447223997e-11
1.487402405e-11
1.528523193e-11
1.570588263e-11
1.613653711e-11
1.657772798e-11
1.702997898e-11
1.749377551e-11
1.796957499e-11
1.845793785e-11
1.89598513e-11
1.947766625e-11
2.001052193e-11
2.055797941e-11
2.112016764e-11
2.169735112e-11
2.228985401e-11
2.289804975e-11
2.352235247e-11
2.416320973e-11
2.482107422e-11
2.549635317e-11
2.618931152e-11
2.690020654e-11
2.763000351e-11
2.837941696e-11
2.91489283e-11
2.993881708e-11
3.074917259e-11
3.157956103e-11
3.242829668e-11
3.32898913e-11
3.4477838e-11
3.572001606e-11
3.698609103e-11
3.828462705e-11
3.962045941e-11
4.099666973e-11
4.241482429e-11
4.387476159e-11
4.538064611e-11
4.693530456e-11
4.854045245e-11
5.019932022e-11
5.191694609e-11
5.369735835e-11
5.554335114e-11
5.745739469e-11
5.94422104e-11
6.15012778e-11
6.364022407e-11
6.587133385e-11
6.829038568e-11
7.091940861e-11
7.368318826e-11
7.659232543e-11
7.966277311e-11
8.291311206e-11
8.636801349e-11
9.004091478e-11
9.394871206e-11
9.811372461e-11
1.033976194e-10
1.098640526e-10
1.16842704e-10
1.24448151e-10
1.327617947e-10
1.418793052e-10
1.519171303e-10
1.629578556e-10
1.751403978e-10
1.885739628e-10
2.032285423e-10
2.194658218e-10
2.375142997e-10
2.577093629e-10
2.89647098e-10
3.303537275e-10
3.784631846e-10
4.348063069e-10
5.010607594e-10
5.880709354e-10
7.275867641e-10
8.976675088e-10
1.123965608e-09
1.51835877e-09
2.036457842e-09
2.961804656e-09
4.515620425e-09
7.285297389e-09
1.266021242e-08
2.395123708e-08
5.020525146e-08
1.20106471e-07
3.156476731e-07
8.907808802e-07
2.549640477e-06
6.463900808e-06
1.480618911e-05
4.670634596e-05
4.439668241e-05
2.201058929e-05
1.329078269e-05
9.200210159e-06
6.350230726e-06
4.157534615e-06
2.546810218e-06
1.454988485e-06
8.998561796e-07
5.54879642e-07
3.657258388e-07
2.474179332e-07
1.801833414e-07
1.381763738e-07
1.082633254e-07
8.583876522e-08
6.849441105e-08
5.483918708e-08
4.397790618e-08
3.52877247e-08
2.831450422e-08
2.271171638e-08
1.82072309e-08
1.458615247e-08
1.167605997e-08
9.338639057e-09
7.462531635e-09
5.957783746e-09
4.751962258e-09
3.786528735e-09
3.014266696e-09
2.397123676e-09
1.904411638e-09
1.511430121e-09
1.198305959e-09
9.49059718e-10
7.508603885e-10
5.934129025e-10
4.684657751e-10
3.694131384e-10
2.909716807e-10
2.289189131e-10
1.798842215e-10
1.411794418e-10
1.106626674e-10
8.662932252e-11
6.772409413e-11
5.287066644e-11
4.121505425e-11
3.208044775e-11
2.493098282e-11
1.934284959e-11
1.498123089e-11
1.158190651e-11
8.936615913e-12
6.881394274e-12
5.287298916e-12
4.053056484e-12
3.099222033e-12
2.363555271e-12
1.797356711e-12
1.362574387e-12
1.029521907e-12
7.75069203e-13
5.812237661e-13
4.340131853e-13
3.22602411e-13
2.386085219e-13
1.755539827e-13
1.284468724e-13
9.344628438e-14
6.760750243e-14
4.867320892e-14
3.492247067e-14
2.504717591e-14
1.804999931e-14
1.318210292e-14
9.881394546e-15
7.730610226e-15
6.430603309e-15
5.81601275e-15
5.81601275e-15
5.81601275e-15
5.81601275e-15
5.81601275e-15
5.81601275e-15
5.81601275e-15
5.81601275e-15
5.81601275e-15
5.81601275e-15
5.81601275e-15
5.81601275e-15
5.81601275e-15
5.81601275e-15
5.865039872e-15
5.952123122e-15
6.043226947e-15
6.133017119e-15
6.221716561e-15
6.310328426e-15
6.412830555e-15
6.511717416e-15
6.581802993e-15
6.630174187e-15
6.665721815e-15
6.692136436e-15
6.707719665e-15
6.71756425e-15
6.720605647e-15
6.724569219e-15
6.723587721e-15
6.724320017e-15
6.720296837e-15
6.7168244e-15
6.712145295e-15
6.708023251e-15
6.705077136e-15
6.703620877e-15
6.70282445e-15
6.698063654e-15
6.693453961e-15
6.690660301e-15
6.689831543e-15
6.689677918e-15
6.684667827e-15
6.676287533e-15
6.671566886e-15
6.66915713e-15
6.66723608e-15
6.665840085e-15
6.665131828e-15
6.660474018e-15
6.65834165e-15
6.657126558e-15
6.657187576e-15
6.657706957e-15
6.653084232e-15
6.650376125e-15
6.64955133e-15
6.64476106e-15
6.641367827e-15
6.635691534e-15
6.633930387e-15
6.633700928e-15
6.634266458e-15
6.629669427e-15
6.627295675e-15
6.624561174e-15
6.623072686e-15
6.617714666e-15
6.614424072e-15
6.612744702e-15
6.613271401e-15
6.615496409e-15
6.613918947e-15
6.608325082e-15
6.607217887e-15
6.608773208e-15
6.6063481e-15
6.600618939e-15
6.597886839e-15
6.596733979e-15
6.597074049e-15
6.592123767e-15
6.588040772e-15
6.584687889e-15
6.583693364e-15
6.579303297e-15
6.573847275e-15
6.565809971e-15
6.559026512e-15
6.557384998e-15
6.556239666e-15
6.554964332e-15
6.549898973e-15
6.547025886e-15
6.545158433e-15
6.545109414e-15
6.540726802e-15
6.537731378e-15
6.535296768e-15
6.532803947e-15
6.532083462e-15
6.526882865e-15
6.523905172e-15
6.523193943e-15
6.519191836e-15
6.517863143e-15
6.512030968e-15
6.508607617e-15
6.505741819e-15
6.504319402e-15
6.503510941e-15
6.503641992e-15
6.50385109e-15
6.499668594e-15
6.495230975e-15
6.490548978e-15
6.486769194e-15
6.483812335e-15
6.48035444e-15
6.478066292e-15
6.472452693e-15
6.470354624e-15
6.469425599e-15
6.464176799e-15
6.462270747e-15
6.457388953e-15
6.4493055e-15
6.443702554e-15
6.439529416e-15
6.436813586e-15
6.434459396e-15
6.427473716e-15
6.4232222e-15
6.415970333e-15
6.410924962e-15
6.406232762e-15
6.403180176e-15
6.401471115e-15
6.400715653e-15
6.396185684e-15
6.393573029e-15
6.387580111e-15
6.384728262e-15
6.385208046e-15
6.381958013e-15
6.37548791e-15
6.365985011e-15
6.361419106e-15
6.354683894e-15
6.34523319e-15
6.33965588e-15
6.336931974e-15
6.330204165e-15
6.326577105e-15
6.325588756e-15
6.320159344e-15
6.310574538e-15
6.305364666e-15
6.297768098e-15
6.287747859e-15
6.279586752e-15
6.27275465e-15
6.265764076e-15
6.25943107e-15
6.254221096e-15
6.248915909e-15
6.243917766e-15
6.238507054e-15
6.23339121e-15
6.222000458e-15
6.212181818e-15
6.205162284e-15
6.200489856e-15
6.192937931e-15
6.188781629e-15
6.185115051e-15
6.176107113e-15
6.168405989e-15
6.157253217e-15
6.148680511e-15
6.143152634e-15
6.134628398e-15
6.12434812e-15
6.111692831e-15
6.101325569e-15
6.092012332e-15
6.083551572e-15
6.07582033e-15
6.06939588e-15
6.05877256e-15
6.049692124e-15
6.04086778e-15
6.03332421e-15
6.021682761e-15
6.012115781e-15
6.004914232e-15
5.994245248e-15
5.985511663e-15
5.976413199e-15
5.967236739e-15
5.959407848e-15
5.946890443e-15
5.936969049e-15
5.925630994e-15
5.9116386e-15
5.901459278e-15
5.887799541e-15
5.876993259e-15
5.866811536e-15
5.85192659e-15
5.836954443e-15
5.822953387e-15
7.543197747e-14
7.596888053e-14
7.692827452e-14
7.823312836e-14
7.981882354e-14
8.163565046e-14
8.364429307e-14
8.581380589e-14
8.8119877e-14
9.054220745e-14
9.306362538e-14
9.566945527e-14
9.834734491e-14
1.01086495e-13
1.038772155e-13
1.067122169e-13
1.095848961e-13
1.124891626e-13
1.15419515e-13
1.183710086e-13
1.213391657e-13
1.243208676e-13
1.273140865e-13
1.303166621e-13
1.333262254e-13
1.363400546e-13
1.393548802e-13
1.423667226e-13
1.453708702e-13
1.483621169e-13
1.513353763e-13
1.542867389e-13
1.572146537e-13
1.601197832e-13
1.630037333e-13
1.658680238e-13
1.687135608e-13
1.715405951e-13
1.743490498e-13
1.771390125e-13
1.79911087e-13
1.8266629e-13
1.854057201e-13
1.881301412e-13
1.90839663e-13
1.935335916e-13
1.962104172e-13
1.988678919e-13
2.015031607e-13
2.041128904e-13
2.088082242e-13
2.153899502e-13
2.21892989e-13
2.283199794e-13
2.346755326e-13
2.409646492e-13
2.471927425e-13
2.533673244e-13
2.594937717e-13
2.655750715e-13
2.716122418e-13
2.776048506e-13
2.835514655e-13
2.894498764e-13
2.952969461e-13
3.010882367e-13
3.068226329e-13
3.124980092e-13
3.181115832e-13
3.236612192e-13
3.291467452e-13
3.345697779e-13
3.399332053e-13
3.452406444e-13
3.504960206e-13
3.557034081e-13
3.608669152e-13
3.659900457e-13
3.710750566e-13
3.761227356e-13
3.811325111e-13
3.861027367e-13
3.910310577e-13
3.959148234e-13
4.007515129e-13
4.055391274e-13
4.102764883e-13
4.149633988e-13
4.196006562e-13
4.241899478e-13
4.287334313e-13
4.332336177e-13
4.376928308e-13
4.421130242e-13
4.464956272e-13
4.508415269e-13
4.551511444e-13
4.594245612e-13
4.636616231e-13
4.678620679e-13
4.720255528e-13
4.761517415e-13
4.802404188e-13
4.842916438e-13
4.883059522e-13
4.922847053e-13
4.962304472e-13
5.001461981e-13
5.040351638e-13
5.079005581e-13
5.117454667e-13
5.155727277e-13
5.193848083e-13
5.23183698e-13
5.269708523e-13
5.307471951e-13
5.345131662e-13
5.382687977e-13
5.420137999e-13
5.457476374e-13
5.494695728e-13
5.531786419e-13
5.568734799e-13
5.633544261e-13
5.71696447e-13
5.799880662e-13
5.882342937e-13
5.964438715e-13
6.046254675e-13
6.12786653e-13
6.209340916e-13
6.290738447e-13
6.372114053e-13
6.453516786e-13
6.534990064e-13
6.616572241e-13
6.698297159e-13
6.780194288e-13
6.862288529e-13
6.944603532e-13
7.027195863e-13
7.110117792e-13
7.193413707e-13
7.277118123e-13
7.361254944e-13
7.445870425e-13
7.531042425e-13
7.61685242e-13
7.703366866e-13
7.790643655e-13
7.878732853e-13
7.967676271e-13
8.057512167e-13
8.148277037e-13
8.240005969e-13
8.33273323e-13
8.426493197e-13
8.521321479e-13
8.617256039e-13
8.714338009e-13
8.812612001e-13
8.912125808e-13
9.012930168e-13
9.115078659e-13
9.218628232e-13
9.323639113e-13
9.430173169e-13
9.538292683e-13
9.648059732e-13
9.759538212e-13
9.872792729e-13
9.987889946e-13
1.010489459e-12
1.022387304e-12
1.034489257e-12
1.046801471e-12
1.059329716e-12
1.072078594e-12
1.085061961e-12
1.098301694e-12
1.111792103e-12
1.125603801e-12
1.140080277e-12
1.155216207e-12
1.17072518e-12
1.186567388e-12
1.202746129e-12
1.219270844e-12
1.236151556e-12
1.253398541e-12
1.271022797e-12
1.289036544e-12
1.307453583e-12
1.326288281e-12
1.345552719e-12
1.365257699e-12
1.385414121e-12
1.406035406e-12
1.427146625e-12
1.448746852e-12
1.470833246e-12
1.493409071e-12
1.516478269e-12
1.540045063e-12
1.564124441e-12
1.58873202e-12
1.613882128e-12
1.639586534e-12
1.665854154e-12
1.69269462e-12
1.731747633e-12
1.782893589e-12
1.835244796e-12
1.888871178e-12
1.943819285e-12
2.000129305e-12
2.057841145e-12
2.118144808e-12
2.180247067e-12
2.244015532e-12
2.309516056e-12
2.376743771e-12
2.445734729e-12
2.516537831e-12
2.589210781e-12
2.663820315e-12
2.740437744e-12
2.819126072e-12
2.899940891e-12
2.98294213e-12
3.068232695e-12
3.15590629e-12
3.246026644e-12
3.338612445e-12
3.433681795e-12
3.531188773e-12
3.644578934e-12
3.7632088e-12
3.884949021e-12
4.010204683e-12
4.139678067e-12
4.274047985e-12
4.413902359e-12
4.55980292e-12
4.712151183e-12
4.871272072e-12
5.037666344e-12
5.2118777e-12
5.385365084e-12
5.558146192e-12
5.739455788e-12
5.930352443e-12
6.131136015e-12
6.342362921e-12
6.568919292e-12
6.922228715e-12
7.29172934e-12
7.643103993e-12
7.986432345e-12
8.34642385e-12
8.73246461e-12
9.150203783e-12
9.605416953e-12
1.010325211e-11
1.066484946e-11
1.128319181e-11
1.196021516e-11
1.270324095e-11
1.351964898e-11
1.440961237e-11
1.537097058e-11
1.643127545e-11
1.760633284e-11
1.991744752e-11
2.274155729e-11
2.59110947e-11
2.947635905e-11
3.348939393e-11
3.809760809e-11
4.349899428e-11
5.261097352e-11
6.169554635e-11
7.246994048e-11
8.562062576e-11
1.133395948e-10
1.429024611e-10
1.876998693e-10
2.575432618e-10
3.562020381e-10
4.934057629e-10
7.423361022e-10
1.190724226e-09
1.949578516e-09
3.479740931e-09
6.274314975e-09
1.227220694e-08
2.734834023e-08
6.532749175e-08
1.731788812e-07
4.976678343e-07
1.690974066e-06
6.044053994e-06
2.08629518e-05
5.105453464e-05
7.95605791e-05
7.883077032e-05
3.723367836e-05
2.624463291e-05
1.665799045e-05
1.321379624e-05
9.601878411e-06
6.559236231e-06
4.153808583e-06
2.132466206e-06
1.160471031e-06
7.022546837e-07
4.48388011e-07
2.955838471e-07
1.985819969e-07
1.417810786e-07
1.11916356e-07
8.900487565e-08
7.108040971e-08
5.689547136e-08
4.559377226e-08
3.654590337e-08
2.928972763e-08
2.346681229e-08
1.879042249e-08
1.50365565e-08
1.202354922e-08
9.606485837e-09
7.668971848e-09
6.11665291e-09
4.874173982e-09
3.88045567e-09
3.086362325e-09
2.452420617e-09
1.946768501e-09
1.543833666e-09
1.223066309e-09
9.679517696e-10
7.652543597e-10
6.043627819e-10
4.767806914e-10
3.757148085e-10
2.957382067e-10
2.32516233e-10
1.825926999e-10
1.432136798e-10
1.12186149e-10
8.776684146e-11
6.857047621e-11
5.349803102e-11
4.167807463e-11
3.242053325e-11
2.517940973e-11
1.952318055e-11
1.511117342e-11
1.167472804e-11
9.002225969e-12
6.927176967e-12
5.318726447e-12
4.0741752e-12
3.113007515e-12
2.372183017e-12
1.802407356e-12
1.365191605e-12
1.030521183e-12
7.750287425e-13
5.805487316e-13
4.329818801e-13
3.214033643e-13
2.373635929e-13
1.743405336e-13
1.273117647e-13
9.241306844e-14
6.668618585e-14
4.786431715e-14
3.421959467e-14
2.443967908e-14
1.752702211e-14
1.273246737e-14
9.488564535e-15
7.376194612e-15
6.083711344e-15
5.81601275e-15
5.81601275e-15
5.81601275e-15
5.81601275e-15
5.81601275e-15
5.81601275e-15
5.81601275e-15
5.81601275e-15
5.81601275e-15
5.81601275e-15
5.81601275e-15
5.81601275e-15
5.81601275e-15
5.81601275e-15
5.824802283e-15
5.925666947e-15
6.021913923e-15
6.114371208e-15
6.201908266e-15
6.28293279e-15
6.358543471e-15
6.46041973e-15
6.530654745e-15
6.581553559e-15
6.616678655e-15
6.644963973e-15
6.662162387e-15
6.671581981e-15
6.676002823e-15
6.679446414e-15
6.679333214e-15
6.679615302e-15
6.678596962e-15
6.67713159e-15
6.671891341e-15
6.667805393e-15
6.664437518e-15
6.663691672e-15
6.661211735e-15
6.659876924e-15
6.654005985e-15
6.651298774e-15
6.65111109e-15
6.650124829e-15
6.644270213e-15
6.637053957e-15
6.633410735e-15
6.632527722e-15
6.63056306e-15
6.628807668e-15
6.625899508e-15
6.622466964e-15
6.621834866e-15
6.620384493e-15
6.620619066e-15
6.620041382e-15
6.615973245e-15
6.61318798e-15
6.611267335e-15
6.608395816e-15
6.602233426e-15
6.59772019e-15
6.59761098e-15
6.597170363e-15
6.597645967e-15
6.59296976e-15
6.590989066e-15
6.589237905e-15
6.585717785e-15
6.58214077e-15
6.579415662e-15
6.577299868e-15
6.577689435e-15
6.578005489e-15
6.577657337e-15
6.572783768e-15
6.571057764e-15
6.571576683e-15
6.569065675e-15
6.564830853e-15
6.562854853e-15
6.561912985e-15
6.56176508e-15
6.558527793e-15
6.554609271e-15
6.549774962e-15
6.547369473e-15
6.540773299e-15
6.537230872e-15
6.532061847e-15
6.527179922e-15
6.525523267e-15
6.524546769e-15
6.520201599e-15
6.516951463e-15
6.514703288e-15
6.512373718e-15
6.511246927e-15
6.508381779e-15
6.506368509e-15
6.504666441e-15
6.500467709e-15
6.498663167e-15
6.494760596e-15
6.491703562e-15
6.489379228e-15
6.486462045e-15
6.485089604e-15
6.480555859e-15
6.478917665e-15
6.475611262e-15
6.474452979e-15
6.473690668e-15
6.473763935e-15
6.471232311e-15
6.470256731e-15
6.466237761e-15
6.46078483e-15
6.457492132e-15
6.455214078e-15
6.451151359e-15
6.446103035e-15
6.442206829e-15
6.440616563e-15
6.438379857e-15
6.433063351e-15
6.430235763e-15
6.425680261e-15
6.420141122e-15
6.415442095e-15
6.41158232e-15
6.409692488e-15
6.405138475e-15
6.398510722e-15
6.39328729e-15
6.38832896e-15
6.38526166e-15
6.379898057e-15
6.376523639e-15
6.375071502e-15
6.372706146e-15
6.369040853e-15
6.365017616e-15
6.360165439e-15
6.356842702e-15
6.356482447e-15
6.352943021e-15
6.346654369e-15
6.337603562e-15
6.332542616e-15
6.326678046e-15
6.31893516e-15
6.314215157e-15
6.310848825e-15
6.304409526e-15
6.301151256e-15
6.299818183e-15
6.294217969e-15
6.284369048e-15
6.278577991e-15
6.271566207e-15
6.264625615e-15
6.25935305e-15
6.251965866e-15
6.244718048e-15
6.238153463e-15
6.233147683e-15
6.228282889e-15
6.224142401e-15
6.217737046e-15
6.212175066e-15
6.201577457e-15
6.191871101e-15
6.183920861e-15
6.178051945e-15
6.171546381e-15
6.169751287e-15
6.164357337e-15
6.156744692e-15
6.147015506e-15
6.137696938e-15
6.128893599e-15
6.12205804e-15
6.112628632e-15
6.103468153e-15
6.094039383e-15
6.085089382e-15
6.076066302e-15
6.067757895e-15
6.06002914e-15
6.051855515e-15
6.043078028e-15
6.035576861e-15
6.025901484e-15
6.017010864e-15
6.00662853e-15
5.997471941e-15
5.989138948e-15
5.980479047e-15
5.973844654e-15
5.965244722e-15
5.954725993e-15
5.946300969e-15
5.933905377e-15
5.921932955e-15
5.91207931e-15
5.899588173e-15
5.890022517e-15
5.877870379e-15
5.868903508e-15
5.858807082e-15
5.846337407e-15
5.832056188e-15
5.820608966e-15
7.876141709e-15
7.914687126e-15
7.984093975e-15
8.078476877e-15
8.192918259e-15
8.323472999e-15
8.467094435e-15
8.621546133e-15
8.78512691e-15
8.956442928e-15
9.134344974e-15
9.317893166e-15
9.506273899e-15
9.698724982e-15
9.894468975e-15
1.009313606e-14
1.029430526e-14
1.049757659e-14
1.070259072e-14
1.090902438e-14
1.135947363e-14
1.206216878e-14
1.2767607e-14
1.347546885e-14
1.4185362e-14
1.489678881e-14
1.560908271e-14
1.63213411e-14
1.703238635e-14
1.774079443e-14
1.844503891e-14
1.914384632e-14
1.983686214e-14
2.052459997e-14
2.120779822e-14
2.188706906e-14
2.256274764e-14
2.32348974e-14
2.390343359e-14
2.456831774e-14
2.522972215e-14
2.588796229e-14
2.654338403e-14
2.719622213e-14
2.784650576e-14
2.849402869e-14
2.913835739e-14
2.97788577e-14
3.041473566e-14
3.104509884e-14
3.166905401e-14
3.228596182e-14
3.289548984e-14
3.349795085e-14
3.409402336e-14
3.468440799e-14
3.526978131e-14
3.585075551e-14
3.642775687e-14
3.700100392e-14
3.757053424e-14
3.813625211e-14
3.869797953e-14
3.925548704e-14
3.980846619e-14
4.134794886e-14
4.301650242e-14
4.466877136e-14
4.630347543e-14
4.791949045e-14
4.951670378e-14
5.109565877e-14
5.265729872e-14
5.420275011e-14
5.573315719e-14
5.724970201e-14
5.875373629e-14
6.024645793e-14
6.172858821e-14
6.320031108e-14
6.466134278e-14
6.611103983e-14
6.75485194e-14
6.897279094e-14
7.038289759e-14
7.177805267e-14
7.315774536e-14
7.452179903e-14
7.587038348e-14
7.720397673e-14
7.852325125e-14
7.982897187e-14
8.112184637e-14
8.240243962e-14
8.367112615e-14
8.492808739e-14
8.617334293e-14
8.740679982e-14
8.862829756e-14
8.983763309e-14
9.103456673e-14
9.221883904e-14
9.339020534e-14
9.454848114e-14
9.569359179e-14
9.682573628e-14
9.794575635e-14
9.905456623e-14
1.001531001e-13
1.012422706e-13
1.023229359e-13
1.033958722e-13
1.044617342e-13
1.055210161e-13
1.065740336e-13
1.076209289e-13
1.0866169e-13
1.096961798e-13
1.107241678e-13
1.117453641e-13
1.12759451e-13
1.137661161e-13
1.14765095e-13
1.1575626e-13
1.167397025e-13
1.17715701e-13
1.186847155e-13
1.196475028e-13
1.206048544e-13
1.215575077e-13
1.225061519e-13
1.234514533e-13
1.243940229e-13
1.253343986e-13
1.262730439e-13
1.272103559e-13
1.281466739e-13
1.290822773e-13
1.300173458e-13
1.322152697e-13
1.344178419e-13
1.366164988e-13
1.388125087e-13
1.410070196e-13
1.432011548e-13
1.453713896e-13
1.474827942e-13
1.495973059e-13
1.517164186e-13
1.538416322e-13
1.55974316e-13
1.581150427e-13
1.602645782e-13
1.624236766e-13
1.645930458e-13
1.667733572e-13
1.689652759e-13
1.711694994e-13
1.733868007e-13
1.756180632e-13
1.778642928e-13
1.801265979e-13
1.82406177e-13
1.847043149e-13
1.870224198e-13
1.893620382e-13
1.917247769e-13
1.941121792e-13
1.965257389e-13
1.989670359e-13
2.014376613e-13
2.039393024e-13
2.064735626e-13
2.090421283e-13
2.116467205e-13
2.142889439e-13
2.169703898e-13
2.196925801e-13
2.224570259e-13
2.252664261e-13
2.281276936e-13
2.310533982e-13
2.340618813e-13
2.371551485e-13
2.403209908e-13
2.435530166e-13
2.468498045e-13
2.502120463e-13
2.536412973e-13
2.571395649e-13
2.607092296e-13
2.643531489e-13
2.68075111e-13
2.718814421e-13
2.757736557e-13
2.797530148e-13
2.838212736e-13
2.879795938e-13
2.921332755e-13
2.963233792e-13
3.005845856e-13
3.049172252e-13
3.093214669e-13
3.137976828e-13
3.183471395e-13
3.229713677e-13
3.276726837e-13
3.324533103e-13
3.373153508e-13
3.422613827e-13
3.472954659e-13
3.524237677e-13
3.576545987e-13
3.62999163e-13
3.684549984e-13
3.740210441e-13
3.796926407e-13
3.854506304e-13
3.913137172e-13
3.979295527e-13
4.055188619e-13
4.132984602e-13
4.212750456e-13
4.294547668e-13
4.378445815e-13
4.464534107e-13
4.552912685e-13
4.64367979e-13
4.736931294e-13
4.889628712e-13
5.06338243e-13
5.240929775e-13
5.422368894e-13
5.609295957e-13
5.801544865e-13
5.99856163e-13
6.200456435e-13
6.406954191e-13
6.6182157e-13
6.835101497e-13
7.058791054e-13
7.290439019e-13
7.53115731e-13
7.750067936e-13
7.966571178e-13
8.195890541e-13
8.439074112e-13
8.697453869e-13
8.972659901e-13
9.2664337e-13
9.580723991e-13
9.85057491e-13
1.013616186e-12
1.044239722e-12
1.077097757e-12
1.112342943e-12
1.150147278e-12
1.181723034e-12
1.210255595e-12
1.238674241e-12
1.267191621e-12
1.295872951e-12
1.3331706e-12
1.37869198e-12
1.430112952e-12
1.566152801e-12
1.702414393e-12
1.823299423e-12
1.951947151e-12
2.088457797e-12
2.211267863e-12
2.320410835e-12
2.430721147e-12
2.512431852e-12
2.532179271e-12
2.830637668e-12
3.029020473e-12
3.098924793e-12
3.023518208e-12
3.018335189e-12
3.333946342e-12
3.424391131e-12
3.094951823e-12
3.331232705e-12
2.846702939e-12
2.935912035e-12
2.682705261e-12
2.742549741e-12
3.491387354e-12
4.71241262e-12
7.305702483e-12
1.283244394e-11
2.539959131e-11
5.384698884e-11
1.28244721e-10
3.195569418e-10
9.107653498e-10
2.923827957e-09
9.920528337e-09
3.560641266e-08
1.238710802e-07
3.81612397e-07
9.639192954e-07
2.249365998e-06
8.502628878e-06
4.82616527e-05
5.447745726e-05
4.313070062e-05
3.158158504e-05
2.359401344e-05
1.727582863e-05
1.237468955e-05
8.336478787e-06
4.463537211e-06
2.446759617e-06
1.447039383e-06
9.050947188e-07
5.773965907e-07
3.714460074e-07
2.399606287e-07
1.533602611e-07
1.092283358e-07
8.696137482e-08
6.937171919e-08
5.541841753e-08
4.428643225e-08
3.539454109e-08
2.828547034e-08
2.259314394e-08
1.803930425e-08
1.439444259e-08
1.147785256e-08
9.146381507e-09
7.282123479e-09
5.793375753e-09
4.605119519e-09
3.657237541e-09
2.901964091e-09
2.300522821e-09
1.822015572e-09
1.441688898e-09
1.139638763e-09
8.999866043e-10
7.100178539e-10
5.595674956e-10
4.405281262e-10
3.464385407e-10
2.721414588e-10
2.135336558e-10
1.67352025e-10
1.309988106e-10
1.024144858e-10
7.996314328e-11
6.234938688e-11
4.854713983e-11
3.774493534e-11
2.930140288e-11
2.271016505e-11
1.757190195e-11
1.357197292e-11
1.046279827e-11
8.049783575e-12
6.180089919e-12
4.733893671e-12
3.617300927e-12
2.756867019e-12
2.095192399e-12
1.587490663e-12
1.198858298e-12
9.021351621e-13
6.762201518e-13
5.047395932e-13
3.750144661e-13
2.772427616e-13
2.038569946e-13
1.490330407e-13
1.082930949e-13
7.820395287e-14
5.613775938e-14
4.009256297e-14
2.854357877e-14
2.033441796e-14
1.45923293e-14
1.065659312e-14
8.036189795e-15
6.360239278e-15
5.81601275e-15
5.81601275e-15
5.81601275e-15
5.81601275e-15
5.81601275e-15
5.81601275e-15
5.81601275e-15
5.81601275e-15
5.81601275e-15
5.81601275e-15
5.81601275e-15
5.81601275e-15
5.81601275e-15
5.81601275e-15
5.81601275e-15
5.846067538e-15
5.953524352e-15
6.051753749e-15
6.139107692e-15
6.216286795e-15
6.282685983e-15
6.33859983e-15
6.421776889e-15
6.490145432e-15
6.538437688e-15
6.574636606e-15
6.600282797e-15
6.614521811e-15
6.623126976e-15
6.629484247e-15
6.633082854e-15
6.634712625e-15
6.635571479e-15
6.63423372e-15
6.630140503e-15
6.627479887e-15
6.625589024e-15
6.62428529e-15
6.622506242e-15
6.620729053e-15
6.616125402e-15
6.613327842e-15
6.61135056e-15
6.607820192e-15
6.604091024e-15
6.599739209e-15
6.597054017e-15
6.595106738e-15
6.59243626e-15
6.59122422e-15
6.590240474e-15
6.586154071e-15
6.584234104e-15
6.583158704e-15
6.582928464e-15
6.579835684e-15
6.576979393e-15
6.574349989e-15
6.571215153e-15
6.567919279e-15
6.563667673e-15
6.559702083e-15
6.559257794e-15
6.557509821e-15
6.557434032e-15
6.554182824e-15
6.553289969e-15
6.549231493e-15
6.547516336e-15
6.543963075e-15
6.542462474e-15
6.539558711e-15
6.540007704e-15
6.539478816e-15
6.538211991e-15
6.535728085e-15
6.532699316e-15
6.529677858e-15
6.52830321e-15
6.525292491e-15
6.525101322e-15
6.524066294e-15
6.521617336e-15
6.518126878e-15
6.514666885e-15
6.511274389e-15
6.508189854e-15
6.5040717e-15
6.500834031e-15
6.49689613e-15
6.493275823e-15
6.491244063e-15
6.488722527e-15
6.486374366e-15
6.481627503e-15
6.480797769e-15
6.476680026e-15
6.476465515e-15
6.474595176e-15
6.473288566e-15
6.47024031e-15
6.468276515e-15
6.46432532e-15
6.46140609e-15
6.456715095e-15
6.454051335e-15
6.449860074e-15
6.44845533e-15
6.4447566e-15
6.44401892e-15
6.441925065e-15
6.44264491e-15
6.441138379e-15
6.43940183e-15
6.435532783e-15
6.435976671e-15
6.431259795e-15
6.427847058e-15
6.4256225e-15
6.420798183e-15
6.415632707e-15
6.413550886e-15
6.408392047e-15
6.404483186e-15
6.402589658e-15
6.399461723e-15
6.396473638e-15
6.393983241e-15
6.388945793e-15
6.384740872e-15
6.380686925e-15
6.376543837e-15
6.371036933e-15
6.367509951e-15
6.362408269e-15
6.35735252e-15
6.354485667e-15
6.350710452e-15
6.346708995e-15
6.346887233e-15
6.344902895e-15
6.341257523e-15
6.336156737e-15
6.329883861e-15
6.324311023e-15
6.322797567e-15
6.320617937e-15
6.313905904e-15
6.304713958e-15
6.299583064e-15
6.293061069e-15
6.289156564e-15
6.286207226e-15
6.280343854e-15
6.274851139e-15
6.272298041e-15
6.270704912e-15
6.266192565e-15
6.258749771e-15
6.252162197e-15
6.245600691e-15
6.238557364e-15
6.235754538e-15
6.230030014e-15
6.222749062e-15
6.214104727e-15
6.211065462e-15
6.205753831e-15
6.199075794e-15
6.195172452e-15
6.188619935e-15
6.179875795e-15
6.16926543e-15
6.160418976e-15
6.155243358e-15
6.15033854e-15
6.146643841e-15
6.13829751e-15
6.132251393e-15
6.124588961e-15
6.117096953e-15
6.106512708e-15
6.097109107e-15
6.089867813e-15
6.082185721e-15
6.075280237e-15
6.068494364e-15
6.058927187e-15
6.050904859e-15
6.043879149e-15
6.034472257e-15
6.025220706e-15
6.016319246e-15
6.009745477e-15
6.001737106e-15
5.989692615e-15
5.981500911e-15
5.973454648e-15
5.963823105e-15
5.957171935e-15
5.949206068e-15
5.939513234e-15
5.930340272e-15
5.920369434e-15
5.910390361e-15
5.900740488e-15
5.890592415e-15
5.88089982e-15
5.870999798e-15
5.861574416e-15
5.851991698e-15
5.842570076e-15
5.830849482e-15
5.820736309e-15
6.426719562e-16
6.463005491e-16
6.528315235e-16
6.61691862e-16
6.723834513e-16
6.844939429e-16
6.977083171e-16
7.118240275e-16
7.26691203e-16
7.42184171e-16
7.582010618e-16
7.746665796e-16
7.915154828e-16
8.097197389e-16
8.886164325e-16
9.68630455e-16
1.049596852e-15
1.131366367e-15
1.213812201e-15
1.296831588e-15
1.380350147e-15
1.464310589e-15
1.548668393e-15
1.633393122e-15
1.718453813e-15
1.803808642e-15
1.88939346e-15
1.975108272e-15
2.060805447e-15
2.146285335e-15
2.231302571e-15
2.315573723e-15
2.399053326e-15
2.481908783e-15
2.564288161e-15
2.64629939e-15