/*--------------------------------*- C++ -*----------------------------------*\
| =========                 |                                                 |
| \\      /  F ield         | OpenFOAM: The Open Source CFD Toolbox           |
|  \\    /   O peration     | Version:  v2006                                 |
|   \\  /    A nd           | Website:  www.openfoam.com                      |
|    \\/     M anipulation  |                                                 |
\*---------------------------------------------------------------------------*/
FoamFile
{
    version     2.0;
    format      ascii;
    class       volScalarField;
    location    "0.09";
    object      CH4;
}
// * * * * * * * * * * * * * * * * * * * * * * * * * * * * * * * * * * * * * //

dimensions      [0 0 0 0 0 0 0];


internalField   nonuniform List<scalar> 
72000
(
5.8580918e-06
5.861569689e-06
5.868123847e-06
5.877446497e-06
5.889231018e-06
5.903190347e-06
5.919058864e-06
5.936593898e-06
5.955580905e-06
5.975825993e-06
5.997148653e-06
6.019377541e-06
6.042383703e-06
6.066067042e-06
6.090329808e-06
6.115081575e-06
6.140239489e-06
6.165729357e-06
6.191486369e-06
6.217454867e-06
6.243586562e-06
6.269839893e-06
6.296178472e-06
6.322568681e-06
6.348978801e-06
6.375377193e-06
6.401730562e-06
6.428002898e-06
6.454155657e-06
6.480149637e-06
6.505948761e-06
6.531525204e-06
6.556863632e-06
6.581960361e-06
6.606818023e-06
6.631440134e-06
6.655827857e-06
6.679979643e-06
6.703893279e-06
6.727569024e-06
6.751011806e-06
6.774230815e-06
6.79723708e-06
6.820040211e-06
6.842645628e-06
6.865053026e-06
6.887256061e-06
6.909242903e-06
6.930997351e-06
6.952500555e-06
6.973735446e-06
6.994693159e-06
7.015373072e-06
7.035777433e-06
7.055905967e-06
7.075813245e-06
7.098106934e-06
7.120141881e-06
7.141944927e-06
7.163530299e-06
7.184904577e-06
7.206069541e-06
7.227024176e-06
7.247765937e-06
7.268291098e-06
7.288594386e-06
7.308672408e-06
7.328520661e-06
7.34813472e-06
7.367512216e-06
7.386654753e-06
7.405568634e-06
7.424264448e-06
7.442755818e-06
7.461057956e-06
7.479186436e-06
7.497156004e-06
7.51497897e-06
7.532663859e-06
7.550214904e-06
7.567632322e-06
7.584913127e-06
7.602052253e-06
7.619043873e-06
7.635882733e-06
7.652565356e-06
7.669090911e-06
7.685461626e-06
7.70168272e-06
7.717761882e-06
7.733708066e-06
7.749531172e-06
7.765240485e-06
7.780844072e-06
7.796348405e-06
7.811758356e-06
7.827077486e-06
7.842308665e-06
7.857453687e-06
7.872514953e-06
7.887494515e-06
7.902394812e-06
7.917218972e-06
7.931971265e-06
7.946657506e-06
7.961285293e-06
7.975864088e-06
7.990404823e-06
8.00491949e-06
8.019420603e-06
8.03392066e-06
8.048431634e-06
8.062964489e-06
8.077528791e-06
8.092132463e-06
8.106781743e-06
8.121481296e-06
8.136234427e-06
8.151043321e-06
8.165909198e-06
8.180832226e-06
8.195810933e-06
8.210840832e-06
8.225913206e-06
8.241027529e-06
8.256182424e-06
8.271376817e-06
8.286646974e-06
8.302016449e-06
8.317502723e-06
8.333120287e-06
8.348881979e-06
8.364799564e-06
8.380883986e-06
8.397145526e-06
8.413593904e-06
8.430238404e-06
8.447087999e-06
8.464151486e-06
8.481437577e-06
8.498956834e-06
8.516719304e-06
8.534733861e-06
8.55300654e-06
8.572507963e-06
8.593396598e-06
8.614602117e-06
8.636144439e-06
8.658039757e-06
8.680302142e-06
8.702944317e-06
8.725978107e-06
8.749414688e-06
8.773264772e-06
8.797538745e-06
8.822246836e-06
8.847399315e-06
8.873006691e-06
8.899079898e-06
8.925630411e-06
8.952670284e-06
8.980212103e-06
9.008268901e-06
9.03685407e-06
9.065981319e-06
9.095664671e-06
9.125918482e-06
9.156757472e-06
9.188196703e-06
9.220251568e-06
9.252937714e-06
9.286271004e-06
9.320267363e-06
9.35494267e-06
9.390312554e-06
9.426391967e-06
9.463194512e-06
9.500730923e-06
9.539006771e-06
9.577997224e-06
9.617608077e-06
9.657558062e-06
9.696844117e-06
9.735529627e-06
9.774558907e-06
9.814220452e-06
9.854609074e-06
9.895763058e-06
9.93770326e-06
9.980445608e-06
1.002400537e-05
1.006839872e-05
1.011364303e-05
1.015975572e-05
1.020675225e-05
1.025464645e-05
1.030345158e-05
1.035318142e-05
1.040384773e-05
1.045545501e-05
1.05080026e-05
1.056148776e-05
1.061590066e-05
1.06756683e-05
1.073691485e-05
1.079920385e-05
1.086255053e-05
1.092695721e-05
1.099240922e-05
1.105888182e-05
1.11264413e-05
1.119514457e-05
1.126504535e-05
1.133618857e-05
1.140861324e-05
1.148237183e-05
1.155757709e-05
1.163453597e-05
1.171308452e-05
1.179312214e-05
1.187463066e-05
1.195761073e-05
1.204207044e-05
1.212802374e-05
1.221548904e-05
1.230448816e-05
1.239504226e-05
1.248716499e-05
1.258084976e-05
1.267608888e-05
1.277296761e-05
1.287153471e-05
1.297180626e-05
1.307377106e-05
1.317739266e-05
1.328256808e-05
1.338903961e-05
1.349607428e-05
1.360266064e-05
1.370820606e-05
1.38147744e-05
1.392299399e-05
1.403318914e-05
1.414554045e-05
1.426010795e-05
1.437681326e-05
1.449592471e-05
1.461759206e-05
1.474187209e-05
1.486893256e-05
1.499906759e-05
1.513248469e-05
1.526929759e-05
1.540959349e-05
1.555347271e-05
1.570108008e-05
1.585270467e-05
1.60090536e-05
1.616948795e-05
1.633416707e-05
1.650449046e-05
1.668086881e-05
1.686400801e-05
1.705472175e-05
1.72541236e-05
1.746260313e-05
1.768071293e-05
1.790926327e-05
1.815611197e-05
1.842285366e-05
1.869980246e-05
1.899274328e-05
1.930356164e-05
1.963430999e-05
1.998744186e-05
2.036414303e-05
2.076717041e-05
2.119821787e-05
2.165828796e-05
2.215814192e-05
2.270269909e-05
2.329947883e-05
2.399079485e-05
2.476531587e-05
2.563739981e-05
2.662048174e-05
2.773365622e-05
2.901155064e-05
3.055188634e-05
3.234005796e-05
3.444614308e-05
3.703382938e-05
4.012562904e-05
4.407094014e-05
4.903500428e-05
5.543651464e-05
6.389950655e-05
7.532288973e-05
9.117647843e-05
0.000113662072
0.0001460564927
0.0001920146322
0.0002555331594
0.0003345284564
0.0004419309089
0.000792448539
0.001196534462
0.0007249641163
0.0004326265899
0.000279571267
0.0001877745393
0.0001288673124
8.844917039e-05
6.146135081e-05
4.53796558e-05
3.317458532e-05
2.281525e-05
1.594802205e-05
1.172881304e-05
8.994460953e-06
7.047336209e-06
5.587658298e-06
4.458665333e-06
3.569808264e-06
2.862816836e-06
2.297148397e-06
1.843241795e-06
1.478540521e-06
1.185330848e-06
9.496246328e-07
7.601984987e-07
6.080491743e-07
4.859280471e-07
3.879797601e-07
3.094894361e-07
2.466466433e-07
1.963779276e-07
1.562063466e-07
1.241343294e-07
9.85540534e-08
7.817191789e-08
6.194777662e-08
4.904642287e-08
3.879772163e-08
3.066456046e-08
2.421694477e-08
1.91109689e-08
1.507177912e-08
1.187997265e-08
9.3605693e-09
7.374146329e-09
5.809748077e-09
4.579153404e-09
3.612301873e-09
2.85360518e-09
2.259007861e-09
1.79362901e-09
1.429881647e-09
1.145971576e-09
9.246999574e-10
7.525105265e-10
6.187303494e-10
5.149661834e-10
4.346258601e-10
3.725380836e-10
3.246514577e-10
2.877959954e-10
2.594947868e-10
2.37815461e-10
2.212524163e-10
2.086344697e-10
1.990521175e-10
1.918000758e-10
1.863326764e-10
1.822282785e-10
1.791619438e-10
1.768836567e-10
1.752017375e-10
1.739692509e-10
1.730741765e-10
1.724313657e-10
1.719758997e-10
1.716590346e-10
1.714441822e-10
1.713041816e-10
1.712195604e-10
1.71179555e-10
1.71179555e-10
1.71179555e-10
1.71179555e-10
1.71179555e-10
1.71179555e-10
1.71179555e-10
1.71179555e-10
1.71179555e-10
1.71179555e-10
1.71179555e-10
1.71179555e-10
1.71179555e-10
1.71179555e-10
1.711827463e-10
1.711884148e-10
1.71194345e-10
1.712001897e-10
1.712059634e-10
1.712117314e-10
1.712179915e-10
1.712239171e-10
1.712282531e-10
1.712312967e-10
1.712335329e-10
1.712351896e-10
1.712362021e-10
1.712368423e-10
1.712370763e-10
1.712373226e-10
1.712372941e-10
1.712373297e-10
1.712371082e-10
1.712369011e-10
1.712366264e-10
1.712363797e-10
1.712361983e-10
1.712361028e-10
1.712360374e-10
1.712357649e-10
1.712354902e-10
1.712353144e-10
1.712352505e-10
1.712352146e-10
1.712349131e-10
1.712344196e-10
1.712341194e-10
1.712339567e-10
1.712338311e-10
1.712337392e-10
1.712336774e-10
1.712334099e-10
1.712332735e-10
1.712331943e-10
1.712331881e-10
1.712331968e-10
1.712329343e-10
1.712327624e-10
1.712326861e-10
1.71232403e-10
1.712321808e-10
1.712318448e-10
1.712317235e-10
1.712316924e-10
1.712317028e-10
1.712314408e-10
1.712312853e-10
1.712311135e-10
1.712310009e-10
1.712306882e-10
1.712304812e-10
1.712303737e-10
1.712303944e-10
1.712305037e-10
1.712304068e-10
1.712300932e-10
1.71230014e-10
1.712300777e-10
1.712299264e-10
1.712295947e-10
1.712294198e-10
1.712293354e-10
1.712293277e-10
1.712290389e-10
1.712287848e-10
1.712285724e-10
1.712284816e-10
1.712282077e-10
1.712278612e-10
1.712273785e-10
1.712269687e-10
1.71226838e-10
1.712267485e-10
1.712266509e-10
1.712263569e-10
1.712261734e-10
1.712260481e-10
1.712260186e-10
1.712257635e-10
1.712255736e-10
1.712254164e-10
1.712252628e-10
1.712251939e-10
1.712248926e-10
1.712247027e-10
1.712246315e-10
1.712243945e-10
1.712242847e-10
1.712239427e-10
1.712237213e-10
1.712235444e-10
1.712234474e-10
1.712233925e-10
1.712233894e-10
1.712233809e-10
1.71223133e-10
1.712228589e-10
1.712225709e-10
1.712223305e-10
1.712221367e-10
1.712219175e-10
1.712217565e-10
1.712214265e-10
1.712212797e-10
1.712211921e-10
1.712208819e-10
1.712207351e-10
1.712204242e-10
1.712199398e-10
1.712195861e-10
1.712193174e-10
1.712191331e-10
1.71218962e-10
1.71218547e-10
1.712182595e-10
1.712178217e-10
1.712174978e-10
1.712172046e-10
1.712170071e-10
1.712168861e-10
1.712168137e-10
1.712165456e-10
1.712163638e-10
1.712160114e-10
1.712158245e-10
1.712158135e-10
1.712155992e-10
1.712151975e-10
1.712146255e-10
1.712143064e-10
1.712138762e-10
1.712133059e-10
1.71212942e-10
1.712127359e-10
1.712123336e-10
1.712120924e-10
1.712119885e-10
1.712116447e-10
1.712110721e-10
1.712107131e-10
1.712102269e-10
1.712096134e-10
1.71209095e-10
1.712086507e-10
1.71208206e-10
1.712078014e-10
1.71207461e-10
1.712071187e-10
1.712067908e-10
1.712064399e-10
1.712060871e-10
1.712053994e-10
1.712047878e-10
1.712043343e-10
1.712040084e-10
1.712035438e-10
1.712032582e-10
1.712029934e-10
1.712024414e-10
1.712019395e-10
1.712012559e-10
1.712007075e-10
1.712003189e-10
1.711997728e-10
1.71199118e-10
1.711983358e-10
1.711976731e-10
1.71197075e-10
1.711965302e-10
1.711960291e-10
1.711955928e-10
1.711949363e-10
1.711943536e-10
1.711937901e-10
1.711932864e-10
1.711925711e-10
1.7119196e-10
1.711914743e-10
1.711908127e-10
1.71190247e-10
1.711896654e-10
1.711890801e-10
1.711885549e-10
1.711877851e-10
1.711871369e-10
1.711864128e-10
1.711855492e-10
1.711848775e-10
1.711840329e-10
1.711833367e-10
1.711826682e-10
1.711817551e-10
1.711808314e-10
1.71179968e-10
3.029124075e-06
3.032756249e-06
3.039271008e-06
3.048163162e-06
3.059004036e-06
3.071458782e-06
3.085259866e-06
3.100192376e-06
3.116087313e-06
3.132801246e-06
3.150212143e-06
3.168215266e-06
3.186722277e-06
3.205656002e-06
3.224947087e-06
3.244542336e-06
3.264393679e-06
3.28445712e-06
3.304693205e-06
3.32506681e-06
3.345546766e-06
3.366110628e-06
3.386742986e-06
3.407428331e-06
3.428150061e-06
3.448889363e-06
3.469623828e-06
3.490326326e-06
3.510964829e-06
3.531504022e-06
3.551909472e-06
3.57215481e-06
3.59222977e-06
3.612139225e-06
3.631894549e-06
3.651506583e-06
3.67098203e-06
3.690323169e-06
3.709530086e-06
3.728604032e-06
3.747549803e-06
3.766375001e-06
3.785087745e-06
3.803693808e-06
3.822194442e-06
3.840585354e-06
3.858856634e-06
3.876993282e-06
3.894976098e-06
3.912782547e-06
3.932129105e-06
3.9528404e-06
3.973298939e-06
3.993512938e-06
4.013496405e-06
4.033264728e-06
4.052834745e-06
4.072230778e-06
4.091470126e-06
4.110562548e-06
4.129511637e-06
4.148316477e-06
4.166973074e-06
4.185475092e-06
4.203813493e-06
4.22197572e-06
4.23995798e-06
4.25775373e-06
4.275354629e-06
4.292754318e-06
4.309952409e-06
4.326954074e-06
4.343768501e-06
4.360407198e-06
4.376882642e-06
4.393207756e-06
4.409395519e-06
4.425456981e-06
4.441399277e-06
4.457224941e-06
4.472932247e-06
4.488516097e-06
4.50396916e-06
4.51928317e-06
4.534450252e-06
4.549464156e-06
4.564321186e-06
4.579020704e-06
4.593565167e-06
4.607959807e-06
4.622211288e-06
4.636327392e-06
4.650315288e-06
4.664180971e-06
4.677928786e-06
4.691561368e-06
4.705079882e-06
4.71848442e-06
4.731774326e-06
4.744948588e-06
4.758005928e-06
4.770945068e-06
4.783765094e-06
4.796465928e-06
4.809048968e-06
4.821518183e-06
4.833881258e-06
4.84614737e-06
4.858326265e-06
4.8704277e-06
4.882461012e-06
4.894434742e-06
4.906356249e-06
4.918231371e-06
4.930064257e-06
4.94185737e-06
4.95361164e-06
4.965326702e-06
4.977001167e-06
4.988632862e-06
5.000218963e-06
5.011755918e-06
5.023238898e-06
5.035770664e-06
5.048984947e-06
5.06212943e-06
5.075211582e-06
5.088244814e-06
5.101242452e-06
5.114216131e-06
5.127176069e-06
5.14013151e-06
5.153090795e-06
5.166061345e-06
5.179049709e-06
5.192061644e-06
5.205102207e-06
5.218175785e-06
5.23128612e-06
5.244437e-06
5.25763643e-06
5.270892007e-06
5.284210162e-06
5.297595774e-06
5.311051922e-06
5.324585179e-06
5.338207147e-06
5.351930031e-06
5.365763518e-06
5.379715886e-06
5.393794178e-06
5.408004191e-06
5.422351125e-06
5.436839857e-06
5.45147499e-06
5.466260959e-06
5.481202172e-06
5.496303181e-06
5.511568855e-06
5.527004497e-06
5.54261589e-06
5.558409243e-06
5.574391148e-06
5.590568552e-06
5.606948825e-06
5.623539739e-06
5.640349245e-06
5.6573853e-06
5.674655775e-06
5.692168728e-06
5.709932243e-06
5.727954607e-06
5.746243755e-06
5.764807746e-06
5.783654654e-06
5.80279163e-06
5.822225149e-06
5.841959878e-06
5.861911502e-06
5.881965642e-06
5.902339513e-06
5.923133779e-06
5.944847737e-06
5.96746552e-06
5.99056116e-06
6.014071396e-06
6.03799612e-06
6.062344077e-06
6.087124677e-06
6.112347493e-06
6.138022913e-06
6.164162825e-06
6.190781106e-06
6.217892132e-06
6.245506736e-06
6.273633661e-06
6.302281514e-06
6.331462165e-06
6.36120345e-06
6.391496464e-06
6.422329594e-06
6.453699664e-06
6.48560431e-06
6.518041425e-06
6.551023512e-06
6.584563569e-06
6.618672487e-06
6.653357374e-06
6.68862123e-06
6.724467801e-06
6.762894278e-06
6.803884638e-06
6.845614894e-06
6.88812359e-06
6.931433088e-06
6.975561006e-06
7.020524198e-06
7.065749581e-06
7.111711037e-06
7.158588912e-06
7.206412088e-06
7.255162971e-06
7.304850077e-06
7.355489603e-06
7.407102861e-06
7.459716406e-06
7.513358963e-06
7.568053882e-06
7.623819018e-06
7.680673623e-06
7.738664591e-06
7.797831361e-06
7.858192568e-06
7.919736008e-06
7.982454881e-06
8.046304439e-06
8.110771981e-06
8.176010332e-06
8.242046906e-06
8.309082137e-06
8.377475643e-06
8.447555885e-06
8.519585146e-06
8.593799984e-06
8.670334112e-06
8.749272249e-06
8.830785627e-06
8.915057329e-06
9.000712391e-06
9.087947423e-06
9.178549572e-06
9.272954322e-06
9.371202325e-06
9.473455856e-06
9.580214261e-06
9.699546034e-06
9.823846116e-06
9.950676251e-06
1.007940699e-05
1.021203389e-05
1.035106695e-05
1.04978741e-05
1.065377995e-05
1.081988426e-05
1.099584335e-05
1.11837496e-05
1.138527021e-05
1.160186919e-05
1.183496871e-05
1.208431168e-05
1.234958547e-05
1.263704672e-05
1.294996882e-05
1.332257367e-05
1.37285477e-05
1.417449318e-05
1.466690295e-05
1.520981913e-05
1.580696322e-05
1.647509943e-05
1.728262732e-05
1.81750825e-05
1.919067873e-05
2.035082115e-05
2.180359437e-05
2.346584751e-05
2.545848591e-05
2.789657285e-05
3.087348647e-05
3.452397853e-05
3.9175454e-05
4.516583742e-05
5.291850407e-05
6.324210138e-05
7.707870923e-05
9.622844779e-05
0.0001234382789
0.0001628145612
0.0002218301676
0.0003114637393
0.0004514039301
0.0006621948205
0.0009442464307
0.001223345353
0.001409663283
0.001416378877
0.001000506624
0.0006552252684
0.0004249434105
0.000282519198
0.0001908830267
0.0001305430179
8.981733348e-05
6.153937387e-05
4.456617555e-05
3.172866216e-05
2.261700773e-05
1.639197087e-05
1.211679026e-05
9.229101368e-06
7.285122279e-06
5.793749361e-06
4.626995284e-06
3.703657612e-06
2.96799812e-06
2.379046797e-06
1.906721839e-06
1.527691845e-06
1.223292435e-06
9.789427022e-07
7.828175548e-07
6.254840771e-07
4.993658232e-07
3.983210023e-07
3.174445422e-07
2.527606126e-07
2.010708356e-07
1.598057806e-07
1.268914572e-07
1.006632916e-07
7.978363894e-08
6.317751357e-08
4.998336708e-08
3.951048018e-08
3.120580183e-08
2.462713827e-08
1.942123553e-08
1.530593882e-08
1.205627515e-08
9.492983596e-09
7.473314043e-09
5.883792395e-09
4.634246802e-09
3.653138805e-09
2.883744483e-09
2.281144986e-09
1.809799819e-09
1.441619898e-09
1.154429901e-09
9.30741973e-10
7.567812702e-10
6.217104742e-10
5.170118902e-10
4.360005369e-10
3.734354195e-10
3.252130621e-10
2.881247562e-10
2.59665149e-10
2.378805066e-10
2.212497826e-10
2.085905298e-10
1.989849869e-10
1.917220264e-10
1.862516405e-10
1.821492917e-10
1.790880564e-10
1.768164018e-10
1.751417664e-10
1.739165978e-10
1.730284243e-10
1.72391822e-10
1.719418577e-10
1.716297666e-10
1.714186118e-10
1.712811116e-10
1.711969803e-10
1.71179555e-10
1.71179555e-10
1.71179555e-10
1.71179555e-10
1.71179555e-10
1.71179555e-10
1.71179555e-10
1.71179555e-10
1.71179555e-10
1.71179555e-10
1.71179555e-10
1.71179555e-10
1.71179555e-10
1.71179555e-10
1.711801271e-10
1.711866927e-10
1.711929577e-10
1.71198976e-10
1.71204674e-10
1.712099481e-10
1.712148699e-10
1.712199166e-10
1.712235821e-10
1.712262983e-10
1.71228231e-10
1.712297724e-10
1.712307774e-10
1.712313702e-10
1.712316717e-10
1.712318914e-10
1.712319358e-10
1.712319744e-10
1.712319327e-10
1.712318662e-10
1.712316289e-10
1.712314254e-10
1.71231254e-10
1.712312089e-10
1.712310908e-10
1.712310048e-10
1.712307237e-10
1.712305686e-10
1.712305312e-10
1.712304599e-10
1.712301602e-10
1.712297691e-10
1.712295385e-10
1.712294457e-10
1.71229322e-10
1.712292219e-10
1.712290733e-10
1.712288849e-10
1.712288225e-10
1.712287349e-10
1.71228724e-10
1.712286826e-10
1.712284752e-10
1.712283056e-10
1.712281804e-10
1.712280076e-10
1.712276888e-10
1.712274225e-10
1.712273653e-10
1.712273157e-10
1.712273143e-10
1.712270728e-10
1.712269467e-10
1.712268277e-10
1.712266336e-10
1.712264254e-10
1.712262581e-10
1.712261314e-10
1.712261296e-10
1.712261336e-10
1.712260994e-10
1.712258571e-10
1.712257514e-10
1.712257491e-10
1.712256044e-10
1.712253679e-10
1.71225234e-10
1.71225156e-10
1.71225116e-10
1.712249304e-10
1.712247061e-10
1.712244393e-10
1.712242831e-10
1.712239302e-10
1.712236907e-10
1.712233778e-10
1.712230801e-10
1.712229438e-10
1.712228519e-10
1.712226278e-10
1.71222432e-10
1.712222858e-10
1.712221408e-10
1.71222052e-10
1.712218836e-10
1.712217507e-10
1.712216374e-10
1.712214241e-10
1.712213076e-10
1.712210896e-10
1.712209081e-10
1.712207625e-10
1.712205845e-10
1.7122047e-10
1.712202118e-10
1.712200801e-10
1.712198935e-10
1.712198122e-10
1.71219759e-10
1.712197451e-10
1.712196071e-10
1.712195174e-10
1.712192917e-10
1.712189959e-10
1.71218791e-10
1.712186339e-10
1.712184034e-10
1.712181301e-10
1.712178966e-10
1.712177602e-10
1.71217611e-10
1.712173183e-10
1.712171279e-10
1.712168514e-10
1.712165232e-10
1.712162345e-10
1.712159939e-10
1.712158472e-10
1.712155853e-10
1.71215224e-10
1.7121491e-10
1.712146046e-10
1.712143873e-10
1.712140854e-10
1.712138775e-10
1.712137617e-10
1.712136124e-10
1.712133993e-10
1.712131671e-10
1.712128935e-10
1.712126856e-10
1.712126112e-10
1.712123864e-10
1.712120244e-10
1.71211519e-10
1.712111837e-10
1.712108125e-10
1.712103569e-10
1.712100453e-10
1.712098047e-10
1.712094361e-10
1.712092077e-10
1.712090701e-10
1.712087375e-10
1.712082091e-10
1.712078322e-10
1.712073964e-10
1.712069542e-10
1.712065893e-10
1.71206148e-10
1.712057138e-10
1.712053148e-10
1.712049907e-10
1.712046751e-10
1.712043892e-10
1.712040006e-10
1.712036399e-10
1.712030438e-10
1.712024802e-10
1.712020014e-10
1.712016276e-10
1.71201226e-10
1.712010301e-10
1.712006863e-10
1.712002269e-10
1.711996706e-10
1.711991116e-10
1.711985763e-10
1.711981262e-10
1.711975632e-10
1.711969896e-10
1.711963952e-10
1.711958262e-10
1.711952686e-10
1.711947479e-10
1.711942597e-10
1.711937554e-10
1.711932127e-10
1.711927259e-10
1.711921529e-10
1.711916108e-10
1.711909932e-10
1.711904311e-10
1.711899095e-10
1.711893704e-10
1.711889165e-10
1.711883821e-10
1.711877666e-10
1.711872354e-10
1.711865248e-10
1.711858228e-10
1.711852023e-10
1.711844655e-10
1.711838569e-10
1.711831381e-10
1.711825605e-10
1.711819423e-10
1.711812248e-10
1.711804377e-10
1.711797963e-10
1.701867599e-06
1.704514453e-06
1.709283227e-06
1.715772232e-06
1.723644812e-06
1.732629841e-06
1.742517118e-06
1.753151588e-06
1.764414798e-06
1.776209345e-06
1.788454718e-06
1.801084929e-06
1.814042819e-06
1.827274884e-06
1.840726573e-06
1.854371829e-06
1.868181219e-06
1.882126897e-06
1.896183948e-06
1.910330055e-06
1.926396994e-06
1.944434815e-06
1.962534957e-06
1.980688625e-06
1.998885336e-06
2.017112076e-06
2.035351682e-06
2.053581139e-06
2.071770588e-06
2.089884058e-06
2.107883105e-06
2.125735729e-06
2.143433045e-06
2.160988035e-06
2.17841943e-06
2.195742823e-06
2.212966832e-06
2.230093227e-06
2.247120069e-06
2.264046678e-06
2.280877849e-06
2.297622107e-06
2.314288802e-06
2.330884455e-06
2.347410325e-06
2.363861653e-06
2.380227871e-06
2.396493298e-06
2.412638176e-06
2.428640237e-06
2.444477201e-06
2.460133155e-06
2.475600001e-06
2.490885687e-06
2.506007402e-06
2.520983037e-06
2.535829923e-06
2.550563778e-06
2.565195609e-06
2.579731155e-06
2.594171564e-06
2.608514603e-06
2.622755945e-06
2.636889946e-06
2.650908943e-06
2.667663226e-06
2.684674949e-06
2.701518554e-06
2.718181612e-06
2.734653204e-06
2.75093223e-06
2.767024248e-06
2.782939014e-06
2.798688222e-06
2.814283778e-06
2.829737949e-06
2.845064629e-06
2.860276086e-06
2.875379735e-06
2.890377542e-06
2.90526672e-06
2.92004082e-06
2.934690952e-06
2.949207126e-06
2.963579691e-06
2.977800726e-06
2.991865114e-06
3.00577113e-06
3.019520558e-06
3.033118294e-06
3.046571168e-06
3.05988696e-06
3.073072836e-06
3.086134495e-06
3.099075684e-06
3.11189818e-06
3.124602107e-06
3.137186451e-06
3.149649512e-06
3.161989159e-06
3.174202885e-06
3.186287967e-06
3.198241826e-06
3.21006249e-06
3.221749137e-06
3.233303735e-06
3.244734519e-06
3.256050584e-06
3.267261257e-06
3.278375649e-06
3.289402315e-06
3.30034897e-06
3.311222079e-06
3.322026465e-06
3.332765121e-06
3.343439259e-06
3.354048512e-06
3.364591229e-06
3.375064802e-06
3.385466007e-06
3.395791333e-06
3.406037317e-06
3.41620098e-06
3.426280723e-06
3.436277157e-06
3.446192791e-06
3.456031978e-06
3.465802085e-06
3.475510814e-06
3.48516531e-06
3.494772208e-06
3.504337896e-06
3.513868188e-06
3.523368138e-06
3.532842031e-06
3.542293466e-06
3.551725437e-06
3.561140321e-06
3.57053947e-06
3.581589191e-06
3.592635179e-06
3.603671375e-06
3.614703797e-06
3.625737871e-06
3.636778888e-06
3.64780424e-06
3.65877809e-06
3.669777675e-06
3.68080978e-06
3.691881079e-06
3.702997574e-06
3.714161826e-06
3.72537711e-06
3.736646569e-06
3.747973079e-06
3.759359308e-06
3.770807867e-06
3.782321495e-06
3.793903266e-06
3.805556745e-06
3.817286043e-06
3.829095713e-06
3.840990681e-06
3.852976212e-06
3.865058055e-06
3.877242497e-06
3.889536041e-06
3.9019449e-06
3.914475046e-06
3.927132754e-06
3.939924298e-06
3.952856275e-06
3.965934885e-06
3.97916658e-06
3.992557858e-06
4.006114657e-06
4.019842761e-06
4.033747579e-06
4.047834417e-06
4.062113973e-06
4.076615942e-06
4.091395332e-06
4.106532431e-06
4.12203274e-06
4.137837594e-06
4.153914929e-06
4.170255225e-06
4.186858482e-06
4.203728523e-06
4.220871095e-06
4.238293474e-06
4.256004876e-06
4.274018385e-06
4.292357821e-06
4.311025936e-06
4.330024311e-06
4.349356433e-06
4.369023039e-06
4.388898148e-06
4.409048059e-06
4.429521405e-06
4.450319042e-06
4.471441165e-06
4.492888866e-06
4.514667138e-06
4.536782284e-06
4.559243229e-06
4.582058578e-06
4.605236557e-06
4.62878751e-06
4.652728252e-06
4.677083745e-06
4.701887219e-06
4.727184102e-06
4.752963204e-06
4.779219175e-06
4.805931735e-06
4.833020724e-06
4.860563053e-06
4.888529606e-06
4.916917067e-06
4.945851727e-06
4.975350196e-06
5.00542648e-06
5.036097318e-06
5.067386549e-06
5.09932273e-06
5.131930363e-06
5.165232413e-06
5.202069029e-06
5.240573511e-06
5.279917081e-06
5.320121704e-06
5.360304732e-06
5.400932969e-06
5.442400319e-06
5.484721471e-06
5.527839825e-06
5.571779321e-06
5.616691212e-06
5.662782588e-06
5.710252925e-06
5.759290934e-06
5.808445265e-06
5.858845105e-06
5.911275827e-06
5.965874303e-06
6.02282318e-06
6.082350656e-06
6.144690012e-06
6.210094652e-06
6.276905362e-06
6.34703692e-06
6.420835175e-06
6.498547981e-06
6.580382001e-06
6.666581519e-06
6.756131639e-06
6.849532222e-06
6.94771538e-06
7.05161703e-06
7.162070214e-06
7.278959897e-06
7.403535368e-06
7.538091791e-06
7.702159961e-06
7.878706723e-06
8.066690767e-06
8.271726057e-06
8.495405323e-06
8.737651951e-06
9.001904231e-06
9.292992161e-06
9.611402359e-06
9.959247635e-06
1.039607728e-05
1.087771009e-05
1.141204103e-05
1.200901612e-05
1.268656645e-05
1.354746685e-05
1.450883264e-05
1.55968982e-05
1.695289328e-05
1.849291615e-05
2.041790811e-05
2.270790144e-05
2.562799611e-05
2.925130142e-05
3.382223775e-05
3.972100831e-05
4.745957469e-05
5.776815733e-05
7.170156546e-05
9.107859826e-05
0.0001181492422
0.000158005928
0.0002181341934
0.0003096514939
0.0004533296026
0.0006688362916
0.0009522545669
0.001233063794
0.001418615748
0.001460604862
0.001310912759
0.0009873373391
0.0007101766362
0.0005021336785
0.0003670653798
0.0002601201313
0.0001818664599
0.0001269266156
8.582400135e-05
6.047628553e-05
4.356564313e-05
3.143264044e-05
2.291920394e-05
1.683472275e-05
1.244478958e-05
9.231712839e-06
7.110151464e-06
5.660732125e-06
4.515771796e-06
3.607512009e-06
2.882899669e-06
2.304101377e-06
1.841351897e-06
1.470822306e-06
1.174400028e-06
9.371456955e-07
7.47296619e-07
5.955345877e-07
4.741847711e-07
3.772779798e-07
2.999310278e-07
2.382307146e-07
1.890678341e-07
1.499183243e-07
1.187709369e-07
9.401440029e-08
7.435310453e-08
5.875346914e-08
4.638786702e-08
3.659462857e-08
2.884602004e-08
2.272146337e-08
1.788525661e-08
1.40703093e-08
1.106421661e-08
8.697883281e-09
6.837248904e-09
5.375827656e-09
4.229298539e-09
3.330871324e-09
2.627725346e-09
2.078111987e-09
1.649069714e-09
1.314605666e-09
1.054238997e-09
8.518540436e-10
6.947841067e-10
5.730804697e-10
4.789434742e-10
4.06261301e-10
3.502532295e-10
3.07182961e-10
2.74135222e-10
2.488380445e-10
2.295234982e-10
2.148180525e-10
2.03655899e-10
1.952117243e-10
1.888474882e-10
1.840706015e-10
1.805019556e-10
1.778500775e-10
1.758914903e-10
1.744551395e-10
1.734107124e-10
1.726589564e-10
1.72124599e-10
1.717508302e-10
1.71494642e-10
1.713240726e-10
1.712149802e-10
1.71179555e-10
1.71179555e-10
1.71179555e-10
1.71179555e-10
1.71179555e-10
1.71179555e-10
1.71179555e-10
1.71179555e-10
1.71179555e-10
1.71179555e-10
1.71179555e-10
1.71179555e-10
1.71179555e-10
1.71179555e-10
1.71179555e-10
1.711815114e-10
1.71188506e-10
1.711949e-10
1.712005862e-10
1.7120561e-10
1.712099321e-10
1.712135717e-10
1.712171797e-10
1.712200567e-10
1.712221495e-10
1.712237613e-10
1.71224956e-10
1.712256691e-10
1.712261085e-10
1.712264351e-10
1.712266494e-10
1.712267695e-10
1.712268472e-10
1.712268318e-10
1.712266816e-10
1.712265737e-10
1.712264979e-10
1.712264586e-10
1.712263997e-10
1.712263304e-10
1.712261303e-10
1.712259975e-10
1.712259064e-10
1.712257363e-10
1.712255415e-10
1.712252994e-10
1.712251362e-10
1.712250228e-10
1.712248794e-10
1.712248056e-10
1.712247525e-10
1.712245579e-10
1.712244465e-10
1.712243787e-10
1.712243523e-10
1.712242117e-10
1.712240607e-10
1.712239117e-10
1.712237439e-10
1.712235668e-10
1.712233379e-10
1.712231097e-10
1.712230515e-10
1.712229447e-10
1.712229203e-10
1.712227502e-10
1.712226818e-10
1.712224724e-10
1.712223606e-10
1.712221672e-10
1.71222069e-10
1.712219137e-10
1.712219097e-10
1.71221875e-10
1.712218051e-10
1.712216794e-10
1.712215273e-10
1.712213672e-10
1.712212733e-10
1.712211056e-10
1.712210571e-10
1.712209844e-10
1.71220857e-10
1.712206709e-10
1.712204737e-10
1.712202761e-10
1.712200951e-10
1.712198599e-10
1.712196594e-10
1.712194282e-10
1.712192064e-10
1.712190635e-10
1.712189093e-10
1.712187728e-10
1.712185249e-10
1.712184481e-10
1.712182333e-10
1.712181904e-10
1.712180718e-10
1.712179847e-10
1.712178244e-10
1.712177121e-10
1.712175196e-10
1.712173544e-10
1.712171169e-10
1.712169676e-10
1.712167384e-10
1.712166307e-10
1.712164194e-10
1.712163377e-10
1.712162068e-10
1.712162125e-10
1.712161355e-10
1.71216055e-10
1.712158513e-10
1.712158346e-10
1.712155991e-10
1.712154032e-10
1.712152649e-10
1.712150204e-10
1.712147494e-10
1.71214608e-10
1.712143349e-10
1.712141086e-10
1.712139679e-10
1.712137717e-10
1.712135791e-10
1.712134076e-10
1.712131335e-10
1.712128933e-10
1.712126641e-10
1.712124384e-10
1.712121472e-10
1.712119323e-10
1.712116468e-10
1.712113602e-10
1.712111743e-10
1.712109593e-10
1.712107308e-10
1.712106784e-10
1.71210549e-10
1.712103498e-10
1.712100811e-10
1.71209768e-10
1.71209468e-10
1.712093396e-10
1.712091819e-10
1.712088285e-10
1.712083423e-10
1.712080199e-10
1.712076353e-10
1.712073571e-10
1.712071382e-10
1.712068027e-10
1.712064897e-10
1.712062923e-10
1.71206148e-10
1.712058785e-10
1.712054749e-10
1.712050912e-10
1.71204703e-10
1.71204284e-10
1.71204052e-10
1.712037018e-10
1.712032883e-10
1.712028151e-10
1.712025843e-10
1.712022615e-10
1.712018788e-10
1.712016109e-10
1.712012268e-10
1.712007408e-10
1.712001706e-10
1.711996736e-10
1.711993335e-10
1.711990125e-10
1.711987449e-10
1.711982912e-10
1.711979188e-10
1.711974744e-10
1.711970238e-10
1.711964399e-10
1.711958988e-10
1.711954412e-10
1.711949564e-10
1.711945045e-10
1.711940579e-10
1.711935039e-10
1.711930147e-10
1.711925743e-10
1.711920396e-10
1.711915037e-10
1.711909878e-10
1.711905672e-10
1.71190088e-10
1.711894355e-10
1.711889415e-10
1.7118846e-10
1.711879079e-10
1.711874815e-10
1.711870006e-10
1.711864411e-10
1.711859069e-10
1.711853378e-10
1.711847547e-10
1.711841848e-10
1.711835918e-10
1.711830206e-10
1.711824501e-10
1.711819054e-10
1.711813653e-10
1.711808452e-10
1.711802503e-10
1.711797593e-10
9.232886743e-07
9.251913515e-07
9.286236424e-07
9.332946948e-07
9.38950034e-07
9.453765146e-07
9.524106337e-07
9.599462573e-07
9.679039213e-07
9.762159842e-07
9.848270091e-07
9.936955854e-07
1.00278558e-06
1.012117241e-06
1.024805599e-06
1.037669647e-06
1.05068114e-06
1.063814629e-06
1.077048505e-06
1.090365194e-06
1.103751738e-06
1.117198378e-06
1.130697773e-06
1.14424478e-06
1.157834252e-06
1.171459428e-06
1.185110117e-06
1.198770552e-06
1.212417529e-06
1.226019707e-06
1.239538621e-06
1.252929932e-06
1.266186698e-06
1.27933556e-06
1.292400264e-06
1.305398262e-06