/*--------------------------------*- C++ -*----------------------------------*\
| =========                 |                                                 |
| \\      /  F ield         | OpenFOAM: The Open Source CFD Toolbox           |
|  \\    /   O peration     | Version:  v2006                                 |
|   \\  /    A nd           | Website:  www.openfoam.com                      |
|    \\/     M anipulation  |                                                 |
\*---------------------------------------------------------------------------*/
FoamFile
{
    version     2.0;
    format      ascii;
    class       volScalarField;
    location    "0.09";
    object      CO;
}
// * * * * * * * * * * * * * * * * * * * * * * * * * * * * * * * * * * * * * //

dimensions      [0 0 0 0 0 0 0];


internalField   nonuniform List<scalar> 
72000
(
0.00737250768
0.007373721492
0.007376013168
0.007379277111
0.007383407501
0.007388304295
0.007393874497
0.007400032781
0.007406703565
0.007413818405
0.007421313477
0.007429128096
0.007437216665
0.007445543832
0.007454074999
0.007462778114
0.007471623809
0.007480585812
0.007489641191
0.007498770278
0.00750795602
0.00751718372
0.007526440504
0.007535714501
0.007544994537
0.007554269489
0.007563527671
0.007572756457
0.007581942342
0.007591071599
0.007600131602
0.007609112619
0.0076180093
0.007626820386
0.007635546839
0.007644189935
0.007652750136
0.007661226954
0.007669619675
0.007677928456
0.007686155092
0.007694302872
0.007702375728
0.007710377083
0.007718308889
0.00772617108
0.007733961467
0.007741675928
0.007749308804
0.007756853501
0.007764304065
0.007771657396
0.007778913267
0.007786072493
0.007793135044
0.007800100241
0.007806998321
0.007813815993
0.007820561567
0.007827239467
0.007833851758
0.007840399023
0.007846880991
0.007853296926
0.007859645743
0.007865925867
0.00787213628
0.007878275609
0.007884342516
0.007890336291
0.007896257444
0.00790210793
0.007907891034
0.007913610981
0.007919272488
0.007924880387
0.007930439246
0.007935952877
0.007941423922
0.007946853697
0.007952242273
0.007957588734
0.007962891517
0.007968148827
0.007973359041
0.007978521087
0.007983634713
0.007988700607
0.007993720385
0.007998696423
0.008003631487
0.008008528633
0.008013390727
0.008018220258
0.008023019217
0.008027789104
0.008032531008
0.00803724581
0.008041934053
0.008046596468
0.00805123368
0.00805584643
0.008060435672
0.008065002712
0.008069549332
0.008074077863
0.008078591209
0.008083092729
0.008087586109
0.008092075199
0.00809656384
0.00810105571
0.008105554175
0.008110062166
0.008114582102
0.008119115879
0.008123664907
0.00812823017
0.008132812304
0.008137411645
0.0081420282
0.00814666147
0.008151310018
0.00815597111
0.008160644538
0.008165329828
0.008170026614
0.008174746043
0.008179495339
0.008184279845
0.008189103975
0.008193971633
0.008198886381
0.008203851528
0.008208870171
0.00821394523
0.008219079486
0.008224275618
0.008229536242
0.008234863949
0.008240261895
0.008245733073
0.008251280109
0.00825690474
0.008262614962
0.00826841493
0.008274302399
0.008280282755
0.008286360364
0.008292539001
0.008298822063
0.008305212698
0.008311713868
0.008318328398
0.008325059015
0.008331908394
0.008338879212
0.008345974206
0.008353196217
0.008360548228
0.008368033369
0.008375654908
0.008383416221
0.008391320771
0.008399372094
0.008407573798
0.008415929568
0.008424443179
0.008433118484
0.008441959412
0.008450969946
0.008460154111
0.008469515933
0.008479059402
0.008488788425
0.0084987067
0.008508817541
0.008519123453
0.008529625505
0.008540316403
0.008551170036
0.008562109497
0.008572802143
0.0085832691
0.008593819152
0.008604530194
0.008615427387
0.008626520487
0.008637814475
0.008649312966
0.008661019359
0.008672937267
0.008685070591
0.008697423205
0.00870999842
0.008722799064
0.008735827777
0.008749087307
0.008762579815
0.008776305474
0.008790263033
0.00880445064
0.008818864479
0.008833534101
0.008848435868
0.00886357227
0.008878945899
0.008894556192
0.00891039841
0.008926465225
0.008942771647
0.008959330147
0.008976152361
0.008993247647
0.009010623865
0.009028291997
0.009046277215
0.009064650532
0.009083371113
0.009102413244
0.00912177075
0.009141441879
0.009161426579
0.009181726112
0.009202342736
0.009223279431
0.009244538959
0.009266122255
0.009288025458
0.009310244424
0.009332796668
0.009355690983
0.009378928471
0.00940250386
0.009426406044
0.009450608635
0.009475049907
0.009499559631
0.009522360848
0.009544625896
0.009567066888
0.009589812009
0.009612926012
0.009636443631
0.009660374559
0.009684699645
0.009709472067
0.009734719764
0.009760451105
0.009786697133
0.009813514426
0.009840941267
0.00986899666
0.009897694081
0.009927049429
0.009957087124
0.009987860469
0.0100195046
0.01005161213
0.0100841839
0.01011776127
0.01015241527
0.01018827331
0.01022548175
0.01026424253
0.0103046147
0.01034668724
0.01039059646
0.01043658752
0.01048494445
0.01053421408
0.0105860433
0.01064074079
0.01069861779
0.01076004329
0.01082516488
0.01089438814
0.01096760937
0.0110446558
0.01112781721
0.01121779362
0.0113156838
0.01142300498
0.01154001481
0.01167019619
0.01181544143
0.01197815553
0.01215984426
0.01236586553
0.0126018169
0.01287282128
0.01318341822
0.01354604618
0.0139757442
0.01448628845
0.01510038927
0.0158478269
0.01676630023
0.01790717243
0.01932807488
0.02110841217
0.02326807298
0.02579599401
0.02849692785
0.03170802408
0.03959694196
0.027693837
0.01422446401
0.007739499665
0.004727925762
0.003045528103
0.002017872851
0.001342387375
0.0009039802458
0.0006519010338
0.0004668401793
0.000320012109
0.0002231556251
0.0001640029759
0.0001257684009
9.854166318e-05
7.813091768e-05
6.234415546e-05
4.991522489e-05
4.002933019e-05
3.211956156e-05
2.5772564e-05
2.067292878e-05
1.6572964e-05
1.327707281e-05
1.062831819e-05
8.500806964e-06
6.793181446e-06
5.4235659e-06
4.326031975e-06
3.44729822e-06
2.744388383e-06
2.182667259e-06
1.73420272e-06
1.376512507e-06
1.091508138e-06
8.64645201e-07
6.842449592e-07
5.409368833e-07
4.272105047e-07
3.370531885e-07
2.656560856e-07
2.091759032e-07
1.645447218e-07
1.293157852e-07
1.015395385e-07
7.96644835e-08
6.245701977e-08
4.893748893e-08
3.832859706e-08
3.001431453e-08
2.350689997e-08
1.842060332e-08
1.445067532e-08
1.135662378e-08
8.948890799e-09
7.078236233e-09
5.627296976e-09
4.503894421e-09
3.635718095e-09
2.966117133e-09
2.450765455e-09
2.055028312e-09
1.751885269e-09
1.520283429e-09
1.343846083e-09
1.209855598e-09
1.108449954e-09
1.03199905e-09
9.746070589e-10
9.317303543e-10
8.998729583e-10
8.763546017e-10
8.59120683e-10
8.466048157e-10
8.376163617e-10
8.312475593e-10
8.268168194e-10
8.238125277e-10
8.218548924e-10
8.206716313e-10
8.201122334e-10
8.201122334e-10
8.201122334e-10
8.201122334e-10
8.201122334e-10
8.201122334e-10
8.201122334e-10
8.201122334e-10
8.201122334e-10
8.201122334e-10
8.201122334e-10
8.201122334e-10
8.201122334e-10
8.201122334e-10
8.201568577e-10
8.202361205e-10
8.203190429e-10
8.204007695e-10
8.204815034e-10
8.205621576e-10
8.206500832e-10
8.207334266e-10
8.207942714e-10
8.208369294e-10
8.208682718e-10
8.208914973e-10
8.209056564e-10
8.209146098e-10
8.209178475e-10
8.209213025e-10
8.209208706e-10
8.209213792e-10
8.20918244e-10
8.209153304e-10
8.209114606e-10
8.209079911e-10
8.209054445e-10
8.209041094e-10
8.20903208e-10
8.208993626e-10
8.208954969e-10
8.208930326e-10
8.208921486e-10
8.208916709e-10
8.208874327e-10
8.208804817e-10
8.208762777e-10
8.208740084e-10
8.20872252e-10
8.20870969e-10
8.208701196e-10
8.208663451e-10
8.20864436e-10
8.208633282e-10
8.208632505e-10
8.208633968e-10
8.208596895e-10
8.208572811e-10
8.208562357e-10
8.208522505e-10
8.208491444e-10
8.208444146e-10
8.208427243e-10
8.208423054e-10
8.208424761e-10
8.208387771e-10
8.208366033e-10
8.208341955e-10
8.20832636e-10
8.208282286e-10
8.208253279e-10
8.208238223e-10
8.208241243e-10
8.208256872e-10
8.208243264e-10
8.208198931e-10
8.208187927e-10
8.208197186e-10
8.208175978e-10
8.208129204e-10
8.208104716e-10
8.208093005e-10
8.20809221e-10
8.208051511e-10
8.208015874e-10
8.207986106e-10
8.207973657e-10
8.207935252e-10
8.207886721e-10
8.207818842e-10
8.207761237e-10
8.20774319e-10
8.207730807e-10
8.207717302e-10
8.207675856e-10
8.207650164e-10
8.207632681e-10
8.207628803e-10
8.207592838e-10
8.207566236e-10
8.207544253e-10
8.207522684e-10
8.207513267e-10
8.207470775e-10
8.207444184e-10
8.207434473e-10
8.207401098e-10
8.207385978e-10
8.2073378e-10
8.207306826e-10
8.207281994e-10
8.207268474e-10
8.207260815e-10
8.2072605e-10
8.207259509e-10
8.207224616e-10
8.207186148e-10
8.207145721e-10
8.20711205e-10
8.207084969e-10
8.207054254e-10
8.207031866e-10
8.206985377e-10
8.206964957e-10
8.206952954e-10
8.206909282e-10
8.206888978e-10
8.206845435e-10
8.206777312e-10
8.206727744e-10
8.20669014e-10
8.20666445e-10
8.206640684e-10
8.20658228e-10
8.206542188e-10
8.206480638e-10
8.206435306e-10
8.206394195e-10
8.206366569e-10
8.206349743e-10
8.20633984e-10
8.206302094e-10
8.206276787e-10
8.206227154e-10
8.20620102e-10
8.206199891e-10
8.206169947e-10
8.206113598e-10
8.206033173e-10
8.205988755e-10
8.205928519e-10
8.205848358e-10
8.205797479e-10
8.205768927e-10
8.205712341e-10
8.205678657e-10
8.205664508e-10
8.205616343e-10
8.20553579e-10
8.205485785e-10
8.205417718e-10
8.20533156e-10
8.205258955e-10
8.205196822e-10
8.205134544e-10
8.205077898e-10
8.20503031e-10
8.20498241e-10
8.204936582e-10
8.204887502e-10
8.204838361e-10
8.204741688e-10
8.20465591e-10
8.204592469e-10
8.2045471e-10
8.204481874e-10
8.204442094e-10
8.204405306e-10
8.204327798e-10
8.204257623e-10
8.204161634e-10
8.20408485e-10
8.204030786e-10
8.203954346e-10
8.203862645e-10
8.203752875e-10
8.2036601e-10
8.20357639e-10
8.203500157e-10
8.20343007e-10
8.203369222e-10
8.203277099e-10
8.203195543e-10
8.203116636e-10
8.203046325e-10
8.202945906e-10
8.202860345e-10
8.202792591e-10
8.202699761e-10
8.202620639e-10
8.20253921e-10
8.202457248e-10
8.202383961e-10
8.202275895e-10
8.202185273e-10
8.202083892e-10
8.201962692e-10
8.201868858e-10
8.201750325e-10
8.20165291e-10
8.201559487e-10
8.201431283e-10
8.201301634e-10
8.201180452e-10
0.006098447663
0.006100372997
0.006103829927
0.006108553016
0.006114316278
0.006120942418
0.006128289375
0.00613624239
0.006144711193
0.006153618831
0.006162899739
0.006172497576
0.006182364798
0.006192459877
0.006202745479
0.006213192828
0.006223775942
0.006234471087
0.00624525702
0.006256114877
0.006267028001
0.006277984299
0.006288975367
0.006299992863
0.00631102791
0.006322070485
0.006333108675
0.006344128078
0.006355111701
0.006366040819
0.006376897181
0.006387666828
0.006398344363
0.006408932437
0.006419437168
0.006429864399
0.006440217781
0.006450498623
0.006460707073
0.006470843905
0.006480911774
0.006490914825
0.006500857463
0.00651074284
0.006520571694
0.006530341809
0.006540047978
0.00654968228
0.006559234555
0.006568692856
0.006578064952
0.006587342269
0.006596505723
0.006605558982
0.00661450826
0.006623360406
0.006632122938
0.006640806836
0.006649419897
0.006657966537
0.006666448415
0.006674865176
0.006683215095
0.006691495412
0.006699702183
0.006707829958
0.006715877004
0.006723840408
0.006731716485
0.006739502432
0.006747198096
0.006754805802
0.006762329679
0.006769774898
0.006777147064
0.006784451977
0.006791695457
0.006798882458
0.006806016179
0.006813097763
0.006820126445
0.006827099952
0.00683401501
0.006840867925
0.006847655177
0.006854373972
0.006861022654
0.006867600936
0.006874109912
0.006880551915
0.006886929914
0.00689324738
0.006899507506
0.006905712959
0.006911865664
0.006917966783
0.006924016818
0.006930015788
0.006935963377
0.00694185911
0.006947702388
0.006953492611
0.006959229339
0.006964912505
0.006970542697
0.006976121654
0.006981652778
0.006987140137
0.006992588056
0.00699800086
0.007003382683
0.007008737302
0.007014067963
0.007019377228
0.007024666899
0.007029938026
0.007035190966
0.007040425497
0.007045640938
0.007050836252
0.007056010111
0.00706116086
0.007066286267
0.007071396453
0.007076487434
0.007081552598
0.007086594771
0.007091619071
0.007096630587
0.007101633762
0.007106632495
0.007111630308
0.007116630374
0.007121635514
0.007126648213
0.007131670654
0.00713670475
0.007141752161
0.007146814305
0.007151892643
0.007156990155
0.007162109692
0.007167253666
0.00717242389
0.007177621473
0.007182848863
0.00718811045
0.007193410857
0.007198753723
0.007204142138
0.007209578717
0.007215065602
0.007220604701
0.007226197792
0.007231846542
0.00723755255
0.007243317399
0.007249142721
0.007255030265
0.007260981941
0.007266999834
0.007273086184
0.007279243372
0.007285473903
0.007291780434
0.007298165764
0.007304632751
0.00731118425
0.007317823075
0.007324552104
0.007331374213
0.007338292343
0.007345309295
0.007352427901
0.007359650986
0.00736698102
0.007374420201
0.007381970037
0.007389582191
0.007397191352
0.007404915946
0.007412793578
0.007421011801
0.007429563831
0.007438288681
0.007447162042
0.007456183377
0.007465355465
0.007474681319
0.007484163987
0.007493806804
0.007503613639
0.007513589075
0.007523737851
0.007534063354
0.007544568159
0.007555254765
0.007566126854
0.00757719401
0.007588452118
0.007599896056
0.007611523823
0.007623333708
0.007635324084
0.007647498701
0.007659861454
0.007672415426
0.00768516227
0.007698102103
0.007711235286
0.00772459285
0.007738185887
0.007752006592
0.00776606636
0.007780371431
0.007794926503
0.007809735978
0.007824554124
0.007839578045
0.007854876845
0.007870458379
0.007886315933
0.007902450905
0.00791886703
0.007935569596
0.007952565478
0.007969862165
0.007987465492
0.008005379517
0.008023608584
0.008042165725
0.008061061493
0.008080299771
0.008099874543
0.008119782234
0.008140007763
0.008160171415
0.0081804989
0.008201033181
0.008221833635
0.008243007292
0.00826465091
0.008286840394
0.008309642983
0.008333094714
0.00835721655
0.008382054925
0.008407659219
0.008433752985
0.00846039974
0.008487997341
0.008516667845
0.008546415981
0.0085772819
0.00860931841
0.008642639327
0.008677246381
0.008712660922
0.008748630709
0.008785556644
0.008824072003
0.00886451093
0.008907190336
0.008952366245
0.008999513086
0.00904942351
0.00910259277
0.009159345324
0.009219990283
0.0092844382
0.00935258009
0.009425849359
0.009504965269
0.009591017213
0.009683674485
0.009784534559
0.009894859984
0.01001557323
0.01014744126
0.01029309189
0.01045494369
0.0106337681
0.01083420235
0.01105849001
0.01131119105
0.01159799512
0.01192426505
0.01229929221
0.01273187449
0.01323504291
0.01382230985
0.01451502037
0.0153336257
0.01631011595
0.01748170948
0.01890150539
0.02063747221
0.02276990779
0.02541978794
0.02869981346
0.0327391604
0.03746472384
0.04222740229
0.0451175914
0.04418351797
0.03743964848
0.02138253068
0.01255103284
0.00756503384
0.004828890223
0.003166673789
0.002113156267
0.001419504319
0.0009370263007
0.0006546987241
0.0004576683644
0.0003227820866
0.0002320182133
0.0001702217221
0.000129049389
0.0001018666371
8.10126988e-05
6.469792116e-05
5.178684667e-05
4.150008508e-05
3.326475078e-05
2.666020847e-05
2.136021408e-05
1.710378267e-05
1.368702877e-05
1.094460152e-05
8.744600038e-06
6.981082507e-06
5.568167981e-06
4.4372686e-06
3.532790143e-06
2.810009537e-06
2.232998315e-06
1.772755769e-06
1.406006084e-06
1.11404491e-06
8.818406712e-07
6.973462946e-07
5.5090342e-07
4.347787084e-07
3.427889436e-07
2.699945586e-07
2.124501694e-07
1.670099681e-07
1.311673406e-07
1.029262054e-07
8.069984871e-08
6.322739338e-08
4.950851368e-08
3.875003636e-08
3.0323859e-08
2.373301716e-08
1.858473984e-08
1.456894849e-08
1.144110957e-08
9.008608811e-09
7.119907459e-09
5.65590219e-09
4.523116592e-09
3.648265586e-09
2.973970074e-09
2.455362532e-09
2.057410494e-09
1.752794806e-09
1.520246602e-09
1.343231669e-09
1.208916908e-09
1.107358586e-09
1.03086592e-09
9.735025823e-10
9.306971838e-10
8.989325292e-10
8.75516023e-10
8.583844329e-10
8.459650607e-10
8.370634205e-10
8.307715476e-10
8.264075629e-10
8.234549754e-10
8.215323047e-10
8.203558916e-10
8.201122334e-10
8.201122334e-10
8.201122334e-10
8.201122334e-10
8.201122334e-10
8.201122334e-10
8.201122334e-10
8.201122334e-10
8.201122334e-10
8.201122334e-10
8.201122334e-10
8.201122334e-10
8.201122334e-10
8.201122334e-10
8.201202336e-10
8.202120402e-10
8.202996438e-10
8.203837981e-10
8.20463474e-10
8.205372222e-10
8.206060427e-10
8.206781149e-10
8.207302287e-10
8.207687757e-10
8.207961365e-10
8.20817974e-10
8.208321351e-10
8.208404432e-10
8.20844647e-10
8.208477232e-10
8.208482951e-10
8.208488148e-10
8.208482081e-10
8.208472511e-10
8.208438349e-10
8.208409302e-10
8.208384877e-10
8.208378538e-10
8.208361612e-10
8.208349586e-10
8.208309322e-10
8.208287425e-10
8.208282443e-10
8.208272531e-10
8.208229857e-10
8.208174418e-10
8.208142122e-10
8.208129479e-10
8.208112144e-10
8.208098002e-10
8.208076843e-10
8.208050162e-10
8.208041638e-10
8.208029328e-10
8.208028049e-10
8.208022305e-10
8.207992759e-10
8.207968934e-10
8.207951417e-10
8.207927125e-10
8.207881772e-10
8.207844266e-10
8.207836752e-10
8.207830015e-10
8.207830127e-10
8.207795761e-10
8.207778094e-10
8.207761502e-10
8.207734024e-10
8.207704686e-10
8.207681197e-10
8.207663368e-10
8.207663385e-10
8.207664091e-10
8.207659423e-10
8.207624831e-10
8.207609994e-10
8.207610015e-10
8.207589595e-10
8.207556158e-10
8.207537484e-10
8.207526741e-10
8.207521424e-10
8.207495241e-10
8.20746358e-10
8.207425816e-10
8.207403975e-10
8.207353906e-10
8.207320499e-10
8.20727653e-10
8.207234706e-10
8.207215913e-10
8.207203337e-10
8.207171445e-10
8.207143919e-10
8.207123473e-10
8.207103134e-10
8.207090858e-10
8.207067144e-10
8.207048581e-10
8.207032754e-10
8.207002363e-10
8.206986062e-10
8.206955243e-10
8.206929694e-10
8.206909279e-10
8.20688428e-10
8.206868506e-10
8.206832049e-10
8.206813873e-10
8.206787511e-10
8.206776201e-10
8.206768786e-10
8.206767026e-10
8.206747468e-10
8.206735174e-10
8.206703279e-10
8.206661358e-10
8.206632623e-10
8.206610732e-10
8.206578183e-10
8.206539441e-10
8.206506599e-10
8.206487836e-10
8.20646701e-10
8.206425581e-10
8.206399015e-10
8.206360162e-10
8.206313963e-10
8.206273433e-10
8.206239687e-10
8.206219389e-10
8.206182447e-10
8.206131253e-10
8.206087106e-10
8.206044243e-10
8.206014013e-10
8.205971361e-10
8.205942174e-10
8.205926186e-10
8.205905265e-10
8.205875222e-10
8.205842475e-10
8.205803817e-10
8.205774658e-10
8.205764745e-10
8.205733252e-10
8.205682189e-10
8.205610723e-10
8.2055639e-10
8.205511897e-10
8.205447721e-10
8.205404195e-10
8.205370758e-10
8.205318739e-10
8.205286956e-10
8.205268196e-10
8.205221379e-10
8.205146424e-10
8.205093732e-10
8.205032593e-10
8.204970664e-10
8.20491985e-10
8.204857765e-10
8.204796692e-10
8.204740638e-10
8.204695297e-10
8.204651159e-10
8.204611337e-10
8.204556732e-10
8.204506275e-10
8.204422044e-10
8.204342582e-10
8.204275266e-10
8.204222924e-10
8.204166551e-10
8.204139916e-10
8.204091774e-10
8.204027186e-10
8.203948672e-10
8.203870057e-10
8.203794844e-10
8.203731956e-10
8.203652747e-10
8.203572325e-10
8.203489028e-10
8.203409339e-10
8.203331084e-10
8.203258091e-10
8.203189685e-10
8.203118897e-10
8.203042746e-10
8.202974665e-10
8.202894002e-10
8.202817853e-10
8.202730933e-10
8.20265201e-10
8.20257889e-10
8.202503261e-10
8.202440008e-10
8.20236504e-10
8.202278325e-10
8.202203882e-10
8.202103604e-10
8.202004707e-10
8.201917746e-10
8.201813995e-10
8.201728764e-10
8.201627561e-10
8.201546748e-10
8.201459924e-10
8.201358707e-10
8.201247301e-10
8.201156625e-10
0.005177602956
0.005179969365
0.005184234423
0.005190040446
0.005197087157
0.00520513224
0.005213987482
0.005223513711
0.005233604399
0.005244171782
0.005255143215
0.005266459094
0.005278067774
0.005289920946
0.00530196944
0.005314189522
0.00532655457
0.005339039451
0.005351621714
0.005364281278
0.005377018297
0.005389821983
0.005402667805
0.005415549333
0.005428458993
0.005441387463
0.005454322534
0.0054672479
0.005480142468
0.005492980869
0.005505736026
0.005518385426
0.005530922806
0.005543357298
0.005555702098
0.005567968212
0.005580161732
0.005592283926
0.005604333458
0.005616309909
0.005628216772
0.005640060211
0.005651846995
0.005663581897
0.005675265962
0.005686895968
0.00569846458
0.005709960842
0.005721370918
0.005732679198
0.005743870074
0.005754932411
0.005765860623
0.005776660302
0.005787343535
0.00579792297
0.005808410882
0.005818818418
0.005829153404
0.005839419942
0.005849618895
0.00585974874
0.005869806473
0.005879788164
0.005889688452
0.005899538978
0.005909303061
0.005918970114
0.005928533153
0.005937986047
0.005947328173
0.005956562718
0.005965695314
0.005974732723
0.00598368184
0.005992549761
0.006001344491
0.006010073082
0.006018739808
0.00602734582
0.006035889548
0.006044367326
0.006052774084
0.006061104123
0.00606935194
0.006077513024
0.006085584475
0.006093565336
0.006101456658
0.006109261273
0.006116983107
0.006124626636
0.006132195975
0.006139694393
0.006147124039
0.006154485928
0.006161780131
0.006169006067
0.006176162764
0.006183249012
0.006190263378
0.00619720431
0.006204070334
0.006210860329
0.00621757385
0.00622421206
0.006230779593
0.006237281631
0.0062437235
0.006250110408
0.006256447245
0.006262738422
0.006268987631
0.006275197622
0.006281370093
0.006287505719
0.006293604266
0.006299664763
0.00630568569
0.00631166517
0.006317601166
0.006323491663
0.00632933493
0.006335130033
0.006340877277
0.006346578043
0.006352234785
0.006357851675
0.006363433086
0.00636898307
0.006374505391
0.006380003661
0.006385481166
0.006390940752
0.006396384823
0.006401815387
0.006407234106
0.006412642287
0.006418040645
0.00642345071
0.00642885537
0.006434257939
0.006439661316
0.006445068114
0.006450480875
0.006455892119
0.006461289398
0.006466701512
0.006472131687
0.006477583076
0.006483058505
0.006488559211
0.006494086745
0.00649964258
0.006505228057
0.006510844413
0.006516492854
0.006522174647
0.006527891213
0.006533644208
0.006539435543
0.006545267338
0.006551141881
0.006557061617
0.006563029204
0.006569047543
0.006575119631
0.006581248328
0.006587436387
0.006593686687
0.006600002102
0.006606385646
0.006612840144
0.006619368523
0.006625973717
0.006632658396
0.006639425144
0.006646276365
0.006653214407
0.006660244174
0.00666737953
0.006674646255
0.006682081948
0.006689688774
0.006697438618
0.006705315956
0.006713315919
0.006721438132
0.006729684016
0.00673805589
0.006746556772
0.006755190572
0.00676396298
0.006772884646
0.006781956392
0.006791178484
0.00680055204
0.006810076865
0.006819631158
0.006829285877
0.006839087948
0.006849037415
0.006859134019
0.006869377912
0.006879771052
0.006890316019
0.00690101649
0.006911875994
0.006922897887
0.006934086503
0.006945449159
0.006956996783
0.006968743955
0.006980710807
0.006992891621
0.007005283349
0.007017876147
0.007030632989
0.007043588322
0.007056670268
0.007069860196
0.007083288259
0.00709696117
0.007110884415
0.007125064676
0.007139511805
0.007154237581
0.007169252192
0.007184565047
0.007200220096
0.007216207329
0.00723252869
0.007249192481
0.007265975423
0.007282995877
0.007300353837
0.007318055025
0.007336078363
0.007354433019
0.007373175715
0.007392383779
0.007412131325
0.007432488121
0.007453233368
0.007474604014
0.007496739919
0.00751968774
0.007543510966
0.007568289523
0.00759410316
0.007621036733
0.007648691251
0.007677576283
0.007707799999
0.007739443624
0.007772571177
0.007807260766
0.007843219225
0.007880696104
0.007920020154
0.007961531721
0.008005536988
0.008052062858
0.008101494048
0.008154367313
0.008211183493
0.008272168919
0.008337589633
0.008408203249
0.008484446736
0.008566599103
0.008655619116
0.008752633941
0.008858336833
0.008973779631
0.009101125886
0.009241189026
0.009395916609
0.009567604657
0.00975874697
0.009973027622
0.01021227705
0.0104815244
0.0107857362
0.01113024989
0.01152241746
0.01197056947
0.01248701914
0.01308396672
0.01377948036
0.01459215584
0.01554840851
0.01667860044
0.01802401481
0.01963684741
0.02158182475
0.02393682258
0.02680114647
0.0302548476
0.03439111208
0.03902176235
0.04344811881
0.045962956
0.04493809038
0.03994559152
0.03123732003
0.02075938856
0.01374823394
0.009183813861
0.006458409313
0.004476820011
0.003085214709
0.002121344027
0.001386877299
0.0009429599693
0.00066002456
0.0004669375886
0.0003350119597
0.0002426321273
0.0001771240228
0.0001298178018
9.942001188e-05
7.915271247e-05
6.314267785e-05
5.044243815e-05
4.031014939e-05
3.221678541e-05
2.574613748e-05
2.056500462e-05
1.642011784e-05
1.310257924e-05
1.044791059e-05
8.325814906e-06
6.62897466e-06
5.273922398e-06
4.192376297e-06
3.329617889e-06
2.642170998e-06
2.094741545e-06
1.659206149e-06
1.313034322e-06
1.03810949e-06
8.19979048e-07
6.470702466e-07
5.101309285e-07
4.017817677e-07
3.161418011e-07
2.485168925e-07
1.951723031e-07
1.531379664e-07
1.200494151e-07
9.403207633e-08
7.359695366e-08
5.75649826e-08
4.50022322e-08
3.517010862e-08
2.748483894e-08
2.148552047e-08
1.680869382e-08
1.316797432e-08
1.033801591e-08
8.141699531e-09
6.439911798e-09
5.123589722e-09
4.107271445e-09
3.324107923e-09
2.721854314e-09
2.259746212e-09
1.906014578e-09
1.63593836e-09
1.430311416e-09
1.274230493e-09
1.156155198e-09
1.067163781e-09
1.000368348e-09
9.504678029e-10
9.133864662e-10
8.859994487e-10
8.659148871e-10
8.513106131e-10
8.407987736e-10
8.333268281e-10
8.281004018e-10
8.245181104e-10
8.221330297e-10
8.206075862e-10
8.201122334e-10
8.201122334e-10
8.201122334e-10
8.201122334e-10
8.201122334e-10
8.201122334e-10
8.201122334e-10
8.201122334e-10
8.201122334e-10
8.201122334e-10
8.201122334e-10
8.201122334e-10
8.201122334e-10
8.201122334e-10
8.201122334e-10
8.201395891e-10
8.202373959e-10
8.203268039e-10
8.204063131e-10
8.204765612e-10
8.205369975e-10
8.205878901e-10
8.206400546e-10
8.206817755e-10
8.207120352e-10
8.207352799e-10
8.207524355e-10
8.207626095e-10
8.20768867e-10
8.20773517e-10
8.207765322e-10
8.207781982e-10
8.207792641e-10
8.207789808e-10
8.207767709e-10
8.207752006e-10
8.207740954e-10
8.207735025e-10
8.207726244e-10
8.20771612e-10
8.207687197e-10
8.207668165e-10
8.207655065e-10
8.207630713e-10
8.207603017e-10
8.20756878e-10
8.207545839e-10
8.207529862e-10
8.207509526e-10
8.207499156e-10
8.207491622e-10
8.207463736e-10
8.207448034e-10
8.207438528e-10
8.207434941e-10
8.207414714e-10
8.20739326e-10
8.207372221e-10
8.207348417e-10
8.207323297e-10
8.207290828e-10
8.207258642e-10
8.207250778e-10
8.207235777e-10
8.207232555e-10
8.207208371e-10
8.207198903e-10
8.207169109e-10
8.207153472e-10
8.207126071e-10
8.207112342e-10
8.207090314e-10
8.20709006e-10
8.20708522e-10
8.207075321e-10
8.207057407e-10
8.207035715e-10
8.207012978e-10
8.206999893e-10
8.206976168e-10
8.206969735e-10
8.206959617e-10
8.206941491e-10
8.206915085e-10
8.206887245e-10
8.206859393e-10
8.206833894e-10
8.206800699e-10
8.206772562e-10
8.206740001e-10
8.206708849e-10
8.206688971e-10
8.206667308e-10
8.206648071e-10
8.206612823e-10
8.206602306e-10
8.206571762e-10
8.206566042e-10
8.206549433e-10
8.206537266e-10
8.206514489e-10
8.206498643e-10
8.206471106e-10
8.206447773e-10
8.206413916e-10
8.206392812e-10
8.206360354e-10
8.20634545e-10
8.206315623e-10
8.206304523e-10
8.206286162e-10
8.20628735e-10
8.20627639e-10
8.206264819e-10
8.206235876e-10
8.206233979e-10
8.206200363e-10
8.206172724e-10
8.206153332e-10
8.206118482e-10
8.206079962e-10
8.206060246e-10
8.206021469e-10
8.205989561e-10
8.205970041e-10
8.205942542e-10
8.205915591e-10
8.205891706e-10
8.205852861e-10
8.205818964e-10
8.205786582e-10
8.205754607e-10
8.205713253e-10
8.205683057e-10
8.2056427e-10
8.205602215e-10
8.205576218e-10
8.205545862e-10
8.205513605e-10
8.20550689e-10
8.205488793e-10
8.20546058e-10
8.205422411e-10
8.205377721e-10
8.205335176e-10
8.205317501e-10
8.205295606e-10
8.205245392e-10
8.205176347e-10
8.205131154e-10
8.205077006e-10
8.205038326e-10
8.20500797e-10
8.204960619e-10
8.20491643e-10
8.204889133e-10
8.204869339e-10
8.204831417e-10
8.204774217e-10
8.204720133e-10
8.204665484e-10
8.204606519e-10
8.20457455e-10
8.204525374e-10
8.204466982e-10
8.204399957e-10
8.204368006e-10
8.204322642e-10
8.204268634e-10
8.204231306e-10
8.204177198e-10
8.204108452e-10
8.204027573e-10
8.203957331e-10
8.203909808e-10
8.203864936e-10
8.203827777e-10
8.203763491e-10
8.203711221e-10
8.203648563e-10
8.203585206e-10
8.203502552e-10
8.203426216e-10
8.203362097e-10
8.203294169e-10
8.203231007e-10
8.203168607e-10
8.203090482e-10
8.203021769e-10
8.202960027e-10
8.202884517e-10
8.202808956e-10
8.202736211e-10
8.202677339e-10
8.202609926e-10
8.20251744e-10
8.202447988e-10
8.202380265e-10
8.202302349e-10
8.202242666e-10
8.202175066e-10
8.20209616e-10
8.202020855e-10
8.20194053e-10
8.201858365e-10
8.201778111e-10
8.201694557e-10
8.201614117e-10
8.201533651e-10
8.201456826e-10
8.201380509e-10
8.201306903e-10
8.201222121e-10
8.201151882e-10
0.004370415884
0.004373179726
0.004378168105
0.004384961658
0.004393192754
0.004402552465
0.004412803393
0.004423790908
0.004435398808
0.004447527823
0.004460096372
0.004473043323
0.004486315269
0.004499861798
0.00451367419
0.004527677853
0.004541841152
0.004556135612
0.004570537033
0.004585025662
0.004599586745
0.004614209286
0.004628885156
0.004643608537
0.004658373643
0.004673172992
0.004687995452
0.004702823932
0.004717633368
0.004732389989
0.004747052428
0.004761573155
0.004775944689
0.004790195607
0.004804351518
0.004818431286
0.004832443857
0.00484638888
0.004860260447
0.004874053874
0.004887774153
0.004901431076
0.004915036149
0.004928597643
0.004942117838
0.004955592837
0.004969013199
0.00498236468
0.004995629083
0.005008785625
0.005021813428
0.005034695403
0.005047442588
0.005060052961
0.005072531632
0.005084897922
0.005097169419
0.005109359873
0.005121478044
0.005133527739
0.00514550858
0.005157417243
0.005169249044
0.005180999392
0.005192664093
0.005204238786
0.005215715687
0.005227084825
0.005238333497
0.005249446793
0.005260425523
0.005271274727
0.005282002517
0.005292618088
0.005303129531
0.005313544435
0.005323874648
0.005334131154
0.005344319857
0.005354441828
0.005364494374
0.005374472
0.005384367289
0.005394171855
0.005403877482
0.0054134773
0.005422966731
0.005432343928
0.005441609987
0.005450768553
0.00545982517
0.005468785963
0.005477656489
0.005486440947
0.005495141819
0.005503759902
0.005512294648
0.005520744688
0.005529108313
0.005537383587
0.00554556821
0.005553659524
0.005561654789
0.005569551532
0.005577352747
0.005585076543
0.005592706021
0.005600247859