/*--------------------------------*- C++ -*----------------------------------*\
| =========                 |                                                 |
| \\      /  F ield         | OpenFOAM: The Open Source CFD Toolbox           |
|  \\    /   O peration     | Version:  v2006                                 |
|   \\  /    A nd           | Website:  www.openfoam.com                      |
|    \\/     M anipulation  |                                                 |
\*---------------------------------------------------------------------------*/
FoamFile
{
    version     2.0;
    format      ascii;
    class       volScalarField;
    location    "0.09";
    object      CO2;
}
// * * * * * * * * * * * * * * * * * * * * * * * * * * * * * * * * * * * * * //

dimensions      [0 0 0 0 0 0 0];


internalField   nonuniform List<scalar> 
72000
(
0.1496470401
0.1496444584
0.1496395831
0.1496326384
0.149623849
0.1496134277
0.1496015724
0.1495884646
0.1495742653
0.1495591202
0.1495431652
0.1495265297
0.1495093107
0.1494915835
0.1494734218
0.1494548939
0.1494360623
0.1494169831
0.149397705
0.14937827
0.1493587144
0.1493390695
0.1493193627
0.1492996193
0.1492798632
0.149260118
0.1492404087
0.149220762
0.1492012067
0.1491817721
0.149162485
0.1491433662
0.149124427
0.1491056701
0.1490870934
0.1490686944
0.1490504719
0.1490324271
0.1490145614
0.1489968746
0.1489793627
0.1489620189
0.1489448347
0.1489278028
0.148910919
0.1488941836
0.1488776011
0.1488611802
0.1488449331
0.1488288738
0.1488130149
0.148797363
0.1487819186
0.14876668
0.1487516472
0.1487368231
0.1487222028
0.1487077531
0.1486934562
0.1486793029
0.1486652888
0.1486514125
0.1486376747
0.148624077
0.1486106215
0.1485973117
0.1485841497
0.1485711383
0.1485582805
0.1485455776
0.1485330287
0.1485206296
0.1485083733
0.1484962509
0.1484842524
0.1484723674
0.1484605864
0.1484489012
0.1484373063
0.1484257989
0.1484143787
0.1484030478
0.1483918095
0.1483806675
0.1483696252
0.1483586851
0.1483478475
0.148337111
0.1483264723
0.1483159262
0.1483054668
0.1482950878
0.148284783
0.1482745472
0.148264376
0.1482542665
0.1482442161
0.1482342232
0.1482242864
0.1482144043
0.1482045755
0.1481947985
0.1481850712
0.1481753909
0.1481657538
0.1481561548
0.1481465879
0.148137046
0.1481275212
0.1481180054
0.1481084905
0.1480989685
0.1480894325
0.1480798762
0.1480702944
0.1480606831
0.1480510394
0.1480413611
0.1480316469
0.1480218961
0.1480121087
0.1480022857
0.1479924301
0.1479825478
0.1479726392
0.1479627054
0.147952747
0.1479427405
0.1479326706
0.1479225258
0.1479122969
0.1479019756
0.1478915542
0.1478810259
0.1478703841
0.1478596225
0.1478487352
0.1478377167
0.1478265612
0.1478152634
0.1478038166
0.1477922143
0.1477804512
0.1477685233
0.147756433
0.1477441742
0.1477317302
0.1477190898
0.1477062436
0.1476931838
0.1476799031
0.1476663948
0.1476526528
0.1476386711
0.1476244438
0.1476099655
0.1475952303
0.1475802325
0.1475649662
0.147549425
0.1475336024
0.1475174913
0.1475010848
0.1474843754
0.1474673558
0.1474500183
0.1474323551
0.1474143583
0.1473960198
0.1473773312
0.1473582842
0.1473388703
0.1473190809
0.1472989077
0.1472783424
0.1472573772
0.1472360052
0.1472142211
0.1471920226
0.1471694251
0.1471464839
0.1471233612
0.1471007919
0.1470787294
0.147056493
0.1470339183
0.1470109523
0.1469875745
0.1469637743
0.1469395444
0.1469148775
0.1468897661
0.1468642021
0.1468381773
0.1468116849
0.146784719
0.1467572741
0.1467293445
0.1467009257
0.1466720175
0.1466426226
0.1466127451
0.1465823931
0.1465515911
0.1465203128
0.1464885439
0.1464562792
0.1464235198
0.1463902759
0.1463565629
0.1463223494
0.1462876095
0.1462523188
0.1462164578
0.1461800101
0.146142953
0.1461052336
0.1460667032
0.1460274476
0.145987521
0.1459469366
0.1459056982
0.1458638062
0.1458212582
0.1457780496
0.1457341744
0.145689627
0.1456444058
0.1455985191
0.1455519757
0.1455047392
0.1454567916
0.1454081309
0.1453587683
0.1453087276
0.1452580643
0.1452069081
0.1451556165
0.1451080837
0.1450617186
0.1450149947
0.1449676449
0.1449195341
0.1448705904
0.1448207938
0.1447701845
0.1447186524
0.1446661398
0.1446126296
0.1445580576
0.1445023067
0.1444452977
0.1443869916
0.1443273613
0.1442663743
0.1442039804
0.1441400697
0.1440743612
0.1440076433
0.1439399122
0.1438701032
0.1437980695
0.1437235474
0.1436462337
0.1435657098
0.143481855
0.1433944864
0.1433033231
0.1432079952
0.1431079186
0.1430061064
0.1428990455
0.1427861004
0.1426666349
0.1425398944
0.1424055831
0.1422628736
0.1421120747
0.1419536193
0.1417826441
0.1415977216
0.1413966058
0.1411762791
0.1409360315
0.1406687191
0.1403704638
0.1400363243
0.1396636115
0.139242188
0.1387597794
0.1382062826
0.1375745021
0.1368375798
0.1359671461
0.1349358118
0.1336987244
0.1321971951
0.130358521
0.128083538
0.1252633986
0.1217464214
0.1175038906
0.1125813239
0.1073081742
0.1009830612
0.08387421182
0.01740209617
0.006249664992
0.002686547546
0.001404662441
0.0008003593903
0.0004748303442
0.0002845261099
0.0001719501789
0.0001157163114
7.654016299e-05
5.111997949e-05
3.458800277e-05
2.513471744e-05
1.927494923e-05
1.510222409e-05
1.197410673e-05
9.554653465e-06
7.649815963e-06
6.134719966e-06
4.922481807e-06
3.949751378e-06
3.168189653e-06
2.539835781e-06
2.034712906e-06
1.628769119e-06
1.30271024e-06
1.041002356e-06
8.310973254e-07
6.628910772e-07
5.282177842e-07
4.204909761e-07
3.344025186e-07
2.656715794e-07
2.108525642e-07
1.671732625e-07
1.324046211e-07
1.047567761e-07
8.279361556e-08
6.536409741e-08
5.15467351e-08
4.060453228e-08
3.194847222e-08
2.510837061e-08
1.97092416e-08
1.545229962e-08
1.209976459e-08
9.462576944e-09
7.390595836e-09
5.764694478e-09
4.490461183e-09
3.493145507e-09
2.713628031e-09
2.105203381e-09
1.63101412e-09
1.262008914e-09
9.753154656e-10
7.529468962e-10
5.807760644e-10
4.477207855e-10
3.45098841e-10
2.661168885e-10
2.054668635e-10
1.590076583e-10
1.235127404e-10
9.64722423e-11
7.593708041e-11
6.039581785e-11
4.867907779e-11
3.988327545e-11
3.331206208e-11
2.842964984e-11
2.482526511e-11
2.218402301e-11
2.026586173e-11
1.888830602e-11
1.791223383e-11
1.72331859e-11
1.677275309e-11
1.647272911e-11
1.629138445e-11
1.620565205e-11
1.620565205e-11
1.620565205e-11
1.620565205e-11
1.620565205e-11
1.620565205e-11
1.620565205e-11
1.620565205e-11
1.620565205e-11
1.620565205e-11
1.620565205e-11
1.620565205e-11
1.620565205e-11
1.620565205e-11
1.62124911e-11
1.622463879e-11
1.623734733e-11
1.624987262e-11
1.626224576e-11
1.627460669e-11
1.628977152e-11
1.630464035e-11
1.631489221e-11
1.632186059e-11
1.632698267e-11
1.633079914e-11
1.633297691e-11
1.633435132e-11
1.633469988e-11
1.63352774e-11
1.633506606e-11
1.633519369e-11
1.633454752e-11
1.633402329e-11
1.633330783e-11
1.633268729e-11
1.633225455e-11
1.633205297e-11
1.633197034e-11
1.633122754e-11
1.633053129e-11
1.633012893e-11
1.633003424e-11
1.63300673e-11
1.632931648e-11
1.632803833e-11
1.632736489e-11
1.632704097e-11
1.632677428e-11
1.632658154e-11
1.632651575e-11
1.632579102e-11
1.632548844e-11
1.632531923e-11
1.632534922e-11
1.632547432e-11
1.63247488e-11
1.632436192e-11
1.632429439e-11
1.63235657e-11
1.63230952e-11
1.632223295e-11
1.632200137e-11
1.632200323e-11
1.632213761e-11
1.632141809e-11
1.632108909e-11
1.632069455e-11
1.632051993e-11
1.631969681e-11
1.631922256e-11
1.63189846e-11
1.631908667e-11
1.631947161e-11
1.631923947e-11
1.6318353e-11
1.631821349e-11
1.631850943e-11
1.631815719e-11
1.631727134e-11
1.631688411e-11
1.631674293e-11
1.631685312e-11
1.631609228e-11
1.631549811e-11
1.63150183e-11
1.631493436e-11
1.631429692e-11
1.631351762e-11
1.631231136e-11
1.631129837e-11
1.631111947e-11
1.631099129e-11
1.631084398e-11
1.631006226e-11
1.630965408e-11
1.63094014e-11
1.630944991e-11
1.630877524e-11
1.630834672e-11
1.630800426e-11
1.630763845e-11
1.630758405e-11
1.630678047e-11
1.630635685e-11
1.630630986e-11
1.630570235e-11
1.630556581e-11
1.630467313e-11
1.63041926e-11
1.630377263e-11
1.630358346e-11
1.630347552e-11
1.630351814e-11
1.630359398e-11
1.630295931e-11
1.630230927e-11
1.630162086e-11
1.630108179e-11
1.630067203e-11
1.630017743e-11
1.629988343e-11
1.629902608e-11
1.629875476e-11
1.629868237e-11
1.629788402e-11
1.62976658e-11
1.629697044e-11
1.62957549e-11
1.629495027e-11
1.629436202e-11
1.629399882e-11
1.629370813e-11
1.629265014e-11
1.629207955e-11
1.62909961e-11
1.629028276e-11
1.628960246e-11
1.628917408e-11
1.628895617e-11
1.628889959e-11
1.628821148e-11
1.628787164e-11
1.62869564e-11
1.628656143e-11
1.6286717e-11
1.628626947e-11
1.628532594e-11
1.628390244e-11
1.628331162e-11
1.628235487e-11
1.628094206e-11
1.62801659e-11
1.627984655e-11
1.627883306e-11
1.627833792e-11
1.627828315e-11
1.627750557e-11
1.627606068e-11
1.627537562e-11
1.627429857e-11
1.627281941e-11
1.627165394e-11
1.627070004e-11
1.626970311e-11
1.626880361e-11
1.626807955e-11
1.626733324e-11
1.626664143e-11
1.626588396e-11
1.626521187e-11
1.626350994e-11
1.626208237e-11
1.626109592e-11
1.626048996e-11
1.625937987e-11
1.625883154e-11
1.625837513e-11
1.625704628e-11
1.62559733e-11
1.625432846e-11
1.625311255e-11
1.625240191e-11
1.625119432e-11
1.624973011e-11
1.624787739e-11
1.624640559e-11
1.624508937e-11
1.624389661e-11
1.624281359e-11
1.624195568e-11
1.624040007e-11
1.623911575e-11
1.623786203e-11
1.623683635e-11
1.623512306e-11
1.623376404e-11
1.623279503e-11
1.623123775e-11
1.623001348e-11
1.622872195e-11
1.622741669e-11
1.622635733e-11
1.622451659e-11
1.622313772e-11
1.622152681e-11
1.621947561e-11
1.621807472e-11
1.621607576e-11
1.621455311e-11
1.621314491e-11
1.621095114e-11
1.620875573e-11
1.620670177e-11
0.1523886275
0.1523844792
0.1523770309
0.1523668545
0.1523544371
0.1523401605
0.152324331
0.1523071958
0.1522889493
0.1522697575
0.1522497615
0.1522290828
0.1522078238
0.1521860741
0.152163914
0.1521414055
0.1521186046
0.1520955625
0.152072325
0.1520489326
0.1520254212
0.152001817
0.1519781379
0.1519544021
0.1519306285
0.1519068387
0.1518830586
0.1518593189
0.1518356564
0.1518121115
0.1517887233
0.151765522
0.1517425193
0.1517197093
0.1516970789
0.1516746155
0.1516523112
0.1516301632
0.1516081711
0.1515863334
0.1515646441
0.1515430945
0.151521675
0.1515003788
0.1514792044
0.1514581565
0.1514372463
0.1514164909
0.1513959122
0.1513755359
0.1513553922
0.1513354953
0.1513158425
0.1512964261
0.1512772327
0.1512582477
0.1512394548
0.1512208306
0.1512023584
0.1511840285
0.1511658376
0.1511477863
0.1511298783
0.1511121196
0.1510945187
0.1510770871
0.1510598287
0.1510427496
0.1510258579
0.1510091594
0.1509926545
0.1509763383
0.1509602018
0.1509442341
0.150928423
0.1509127561
0.150897221
0.150881807
0.1508665073
0.1508513193
0.1508362449
0.1508212887
0.1508064579
0.1507917604
0.1507772037
0.1507627939
0.1507485344
0.1507344259
0.1507204661
0.15070665
0.1506929711
0.1506794221
0.1506659961
0.1506526873
0.1506394918
0.1506264069
0.1506134316
0.1506005659
0.1505878104
0.1505751662
0.1505626345
0.1505502168
0.1505379138
0.1505257257
0.1505136514
0.150501687
0.1504898254
0.1504780576
0.1504663746
0.150454767
0.150443226
0.1504317434
0.1504203123
0.1504089273
0.1503975844
0.1503862814
0.1503750176
0.1503637935
0.1503526105
0.1503414708
0.1503303773
0.1503193336
0.1503083444
0.1502974179
0.1502865526
0.1502757426
0.1502649817
0.150254259
0.1502435637
0.1502328863
0.1502222185
0.1502115528
0.1502008824
0.1501902012
0.1501795041
0.1501687863
0.1501580438
0.150147273
0.1501364709
0.1501256345
0.1501147572
0.1501038332
0.1500928572
0.1500818254
0.1500707354
0.150059582
0.1500483558
0.150037047
0.1500256479
0.1500141518
0.1500025532
0.1499908475
0.1499790306
0.1499670989
0.1499550487
0.1499428766
0.1499305793
0.1499181533
0.1499055949
0.1498929001
0.1498800643
0.1498670829
0.1498539507
0.1498406625
0.1498272126
0.149813595
0.1497998037
0.1497858326
0.1497716757
0.1497573268
0.14974278
0.1497280289
0.1497130676
0.1496978901
0.1496824903
0.1496668631
0.1496510038
0.1496349091
0.1496186879
0.1496024871
0.1495860415
0.1495692709
0.1495517756
0.1495335699
0.1495149973
0.1494961097
0.1494769082
0.149457387
0.1494375397
0.1494173599
0.1493968405
0.1493759735
0.149354749
0.149333157
0.1493111905
0.149288844
0.1492661123
0.1492429876
0.1492194496
0.1491955072
0.1491711713
0.1491464464
0.1491213362
0.1490958443
0.1490699627
0.1490436834
0.1490169999
0.1489899088
0.1489624099
0.1489345026
0.1489061731
0.1488773963
0.1488481395
0.1488183786
0.1487881005
0.1487572955
0.1487259543
0.1486946444
0.1486629122
0.1486306015
0.1485976958
0.1485642095
0.1485301398
0.1484954789
0.1484602158
0.1484243361
0.1483878241
0.1483506677
0.1483128584
0.1482743873
0.148235227
0.1481953554
0.1481547645
0.1481134673
0.1480714715
0.1480288094
0.1479863479
0.1479435606
0.1479003473
0.1478565827
0.1478120406
0.1477665169
0.1477198514
0.1476719026
0.1476225949
0.1475718849
0.1475196753
0.1474658626
0.1474110588
0.1473551308
0.1472972137
0.1472370511
0.1471746343
0.1471098801
0.1470426841
0.146972951
0.1469005354
0.1468264642
0.1467512668
0.1466740911
0.1465936083
0.1465091192
0.1464199614
0.1463256016
0.1462272371
0.1461231415
0.1460122562
0.1458939059
0.1457674488
0.1456331704
0.1454913638
0.1453388764
0.1451742081
0.1449957065
0.1448040988
0.1445955761
0.1443675142
0.1441181407
0.1438461561
0.1435458788
0.1432138018
0.1428471032
0.1424359398
0.1419757734
0.1414580573
0.1408706721
0.140204124
0.1394396087
0.1385604585
0.137539933
0.1363544405
0.1349636468
0.1333234408
0.1313759559
0.1290463883
0.1262374821
0.1228198362
0.1186450132
0.1135036671
0.1071210782
0.09916278333
0.08920180736
0.07688557048
0.06278077621
0.04738547957
0.03008156893
0.01146937472
0.005263425734
0.002622140831
0.001518610949
0.0009253180388
0.0005790580942
0.0003643060577
0.0002283165949
0.0001462637917
9.601279114e-05
6.381567573e-05
4.265208133e-05
2.831705522e-05
1.977778807e-05
1.561180414e-05
1.241576378e-05
9.915387733e-06
7.936657645e-06
6.360125446e-06
5.097991627e-06
4.085790313e-06
3.27352187e-06
2.621188179e-06
2.097542083e-06
1.677242184e-06
1.340073567e-06
1.069799764e-06
8.53258803e-07
6.799390199e-07
5.41320136e-07
4.305479665e-07
3.421161735e-07
2.715801563e-07
2.153727015e-07
1.706272112e-07
1.350399706e-07
1.067646652e-07
8.432107062e-08
6.65239879e-08
5.242578752e-08
4.126943954e-08
3.245028089e-08
2.548619021e-08
1.999300794e-08
1.566481791e-08
1.225844297e-08
9.580643138e-09
7.478110152e-09
5.829283574e-09
4.53790146e-09
3.527799857e-09
2.738783325e-09
2.123329733e-09
1.643962274e-09
1.271161199e-09
9.817019292e-10
7.573308844e-10
5.837220228e-10
4.496437934e-10
3.463023698e-10
2.668214291e-10
2.058319528e-10
1.591470524e-10
1.235070964e-10
9.637807826e-11
7.579321834e-11
6.022855665e-11
4.850541623e-11
3.971400519e-11
3.315372007e-11
2.828552123e-11
2.469674591e-11
2.207118653e-11
2.016781394e-11
1.880356316e-11
1.783928105e-11
1.717046392e-11
1.671795521e-11
1.642328985e-11
1.624299471e-11
1.620565205e-11
1.620565205e-11
1.620565205e-11
1.620565205e-11
1.620565205e-11
1.620565205e-11
1.620565205e-11
1.620565205e-11
1.620565205e-11
1.620565205e-11
1.620565205e-11
1.620565205e-11
1.620565205e-11
1.620565205e-11
1.620687815e-11
1.622094828e-11
1.623437426e-11
1.624727161e-11
1.62594826e-11
1.627078513e-11
1.628133245e-11
1.629887492e-11
1.631057766e-11
1.631893268e-11
1.632457594e-11
1.632915182e-11
1.633179168e-11
1.63331485e-11
1.633373615e-11
1.633422591e-11
1.633410126e-11
1.633409821e-11
1.63339045e-11
1.633363933e-11
1.633269007e-11
1.633198876e-11
1.63314185e-11
1.63313072e-11
1.633087019e-11
1.6330682e-11
1.632965059e-11
1.63292287e-11
1.632925531e-11
1.632913281e-11
1.632814494e-11
1.632697311e-11
1.632645095e-11
1.632640205e-11
1.632611917e-11
1.63258447e-11
1.632535337e-11
1.632480098e-11
1.632475748e-11
1.632454079e-11
1.632462858e-11
1.632455582e-11
1.632386767e-11
1.632345453e-11
1.632318717e-11
1.632275687e-11
1.632172408e-11
1.632103688e-11
1.63211268e-11
1.63211093e-11
1.632124366e-11
1.632045916e-11
1.632017703e-11
1.631994328e-11
1.631937868e-11
1.631882776e-11
1.631842642e-11
1.631810823e-11
1.631821949e-11
1.631829858e-11
1.63182742e-11
1.631743685e-11
1.631718199e-11
1.631733022e-11
1.631694067e-11
1.631626755e-11
1.631600301e-11
1.631590662e-11
1.631595002e-11
1.63154455e-11
1.631483429e-11
1.631405932e-11
1.631372292e-11
1.631264199e-11
1.631216662e-11
1.631139591e-11
1.631067279e-11
1.63105016e-11
1.631042486e-11
1.630969522e-11
1.630920868e-11
1.630889479e-11
1.630855588e-11
1.630843128e-11
1.630799348e-11
1.630771648e-11
1.630748445e-11
1.630677254e-11
1.630651882e-11
1.630589859e-11
1.630543544e-11
1.630509925e-11
1.630466727e-11
1.630452876e-11
1.630381877e-11
1.63036429e-11
1.630312148e-11
1.630297229e-11
1.630287363e-11
1.630292298e-11
1.630251363e-11
1.630243261e-11
1.630179642e-11
1.63009114e-11
1.630043217e-11
1.630013303e-11
1.629949487e-11
1.62986744e-11
1.629808863e-11
1.629793595e-11
1.629763149e-11
1.629677759e-11
1.629639653e-11
1.629571894e-11
1.629487824e-11
1.629418661e-11
1.629362585e-11
1.629341217e-11
1.62927042e-11
1.629163239e-11
1.629084896e-11
1.629012073e-11
1.628973013e-11
1.628888247e-11
1.628838714e-11
1.628822926e-11
1.628788948e-11
1.628732469e-11
1.6286701e-11
1.628593536e-11
1.628545435e-11
1.62855111e-11
1.62850057e-11
1.628402886e-11
1.62825903e-11
1.628189656e-11
1.628105628e-11
1.627987459e-11
1.627922528e-11
1.62788008e-11
1.627779625e-11
1.627737603e-11
1.627729694e-11
1.627644871e-11
1.627483792e-11
1.627402981e-11
1.627300844e-11
1.62720202e-11
1.627133024e-11
1.627021666e-11
1.626912665e-11
1.626815131e-11
1.626744947e-11
1.626676858e-11
1.626622543e-11
1.62652723e-11
1.626449372e-11
1.626281819e-11
1.626132091e-11
1.62601305e-11
1.625929445e-11
1.625834114e-11
1.625825679e-11
1.625748899e-11
1.625635122e-11
1.625483212e-11
1.625343219e-11
1.625212491e-11
1.62511822e-11
1.624976012e-11
1.624843461e-11
1.624707865e-11
1.624580157e-11
1.624448042e-11
1.624327904e-11
1.624216961e-11
1.624097123e-11
1.623968648e-11
1.623863698e-11
1.623716792e-11
1.623585075e-11
1.623428023e-11
1.623293164e-11
1.623172526e-11
1.623046574e-11
1.622958652e-11
1.622833351e-11
1.622672063e-11
1.622550924e-11
1.622357777e-11
1.622174518e-11
1.622032668e-11
1.621842386e-11
1.62170599e-11
1.621521305e-11
1.621394927e-11
1.621245905e-11
1.621052151e-11
1.620822968e-11
1.620641486e-11
0.1543914515
0.1543863031
0.1543770245
0.1543643942
0.1543490658
0.1543315665
0.1543123059
0.1542915867
0.1542696406
0.1542466584
0.1542227981
0.1541981892
0.1541729439
0.1541471674
0.1541209666
0.1540943929
0.1540675043
0.1540403552
0.1540129944
0.1539854657
0.1539578116
0.1539300572
0.1539022115
0.1538742886
0.1538463048
0.1538182802
0.1537902415
0.1537622238
0.153734273
0.153706444
0.1536787954
0.1536513762
0.1536241999
0.1535972467
0.1535704878
0.1535438996
0.1535174686
0.1534911921
0.1534650731
0.1534391123
0.1534133022
0.1533876295
0.1533620795
0.1533366418
0.1533113141
0.1532861035
0.1532610259
0.153236105
0.1532113709
0.1531868573
0.1531625982
0.1531386177
0.153114928
0.1530915169
0.1530683581
0.1530454243
0.1530226887
0.1530001273
0.152977723
0.152955467
0.1529333574
0.1529113974
0.1528895937
0.1528679547
0.152846492
0.1528252267
0.1528041609
0.1527833044
0.1527626723
0.1527422777
0.1527221221
0.1527021986
0.152682495
0.1526629967
0.1526436889
0.1526245562
0.1526055814
0.1525867493
0.1525680507
0.152549483
0.1525310497
0.1525127587
0.1524946209
0.1524766487
0.1524588539
0.1524412462
0.1524238319
0.1524066131
0.1523895876
0.1523727492
0.1523560894
0.1523395987
0.1523232682
0.1523070907
0.1522910617
0.152275179
0.1522594425
0.1522438534
0.1522284137
0.1522131263
0.152197994
0.1521830204
0.1521682086
0.152153561
0.1521390787
0.152124759
0.1521105922
0.1520965668
0.1520826716
0.1520688952
0.152055227
0.1520416578
0.1520281793
0.1520147858
0.1520014736
0.1519882413
0.1519750893
0.1519620198
0.1519490361
0.1519361422
0.1519233426
0.1519106416
0.1518980431
0.1518855489
0.1518731585
0.151860869
0.1518486749
0.1518365675
0.1518245371
0.1518125751
0.1518006735
0.1517888243
0.1517770206
0.1517652563
0.1517535261
0.1517418258
0.1517301517
0.1517185012
0.1517068727
0.1516952672
0.1516836744
0.1516720867
0.1516604979
0.1516489024
0.1516372949
0.1516256924
0.1516141235
0.1516025236
0.1515908858
0.1515792034
0.1515674704
0.151555684
0.1515438411
0.1515319384
0.1515199731
0.1515079426
0.1514958444
0.1514836757
0.1514714335
0.1514591143
0.151446714
0.1514342282
0.1514216519
0.1514089799
0.1513962065
0.1513833256
0.1513703307
0.1513572158
0.151343975
0.1513306022
0.1513170911
0.1513034355
0.1512896292
0.1512756661
0.1512615399
0.1512472449
0.1512327757
0.151218127
0.151203294
0.1511882662
0.1511730139
0.1511574818
0.1511415895
0.1511253322
0.1511087704
0.1510919375
0.151074844
0.1510574906
0.1510398745
0.1510219908
0.151003833
0.1509853929
0.1509666583
0.1509476064
0.1509282356
0.1509085455
0.1508885337
0.1508682007
0.1508478233
0.1508272403
0.1508063455
0.1507851388
0.1507636208
0.1507417915
0.1507196468
0.1506971812
0.1506743871
0.150651257
0.1506277838
0.1506039585
0.1505797655
0.1505551817
0.1505301758
0.1505047049
0.1504787816
0.1504524124
0.1504256189
0.1503984804
0.1503709234
0.1503431447
0.1503151975
0.1502867499
0.1502577878
0.1502282997
0.1501982717
0.1501676829
0.1501365084
0.1501047269
0.1500723188
0.1500392672
0.1500055418
0.1499711154
0.1499359709
0.1499006402
0.1498648444
0.1498283466
0.1497911352
0.1497532559
0.1497146897
0.1496753168
0.1496349733
0.1495935022
0.1495507563
0.1495072331
0.1494624203
0.1494160106
0.1493679067
0.1493179759
0.1492660508
0.1492119644
0.149155539
0.1490977092
0.1490373177
0.1489741342
0.1489079901
0.1488387533
0.1487662627
0.1486913105
0.1486132599
0.1485313564
0.148444883
0.1483531964
0.1482563876
0.1481535953
0.1480435937
0.1479256131
0.1477990078
0.1476633644
0.1475169224
0.1473587765
0.1471884919
0.1470040571
0.1468030244
0.1465840875
0.1463451725
0.1460825818
0.1457941411
0.1454758109
0.1451226897
0.1447307358
0.144292719
0.1438036918
0.1432529898
0.1426332498
0.1419316126
0.141135682
0.1402276793
0.1391849721
0.1379838217
0.1365901927
0.1349693233
0.1330743567
0.1308396871
0.1281919821
0.1250341466
0.1212481882
0.1167017775
0.1112001748
0.1045021955
0.09636716535
0.08652514456
0.07480190248
0.06161921898
0.04778733679
0.03384486323
0.02096543037
0.01095273765
0.00605464094
0.003525810989
0.002239571944
0.001470179623
0.0009813967567
0.0006550925325
0.0004314569538
0.0002831357612
0.0001891352745
0.0001271909354
8.507558382e-05
5.596476289e-05
3.60073586e-05
2.214783172e-05
1.523683837e-05
1.213070533e-05
9.677033695e-06
7.730615802e-06
6.177757856e-06
4.937382176e-06
3.945701292e-06
3.151649373e-06
2.516410828e-06
2.007970307e-06
1.601120147e-06
1.275891245e-06
1.015836294e-06
8.081632079e-07
6.424072275e-07
5.101822898e-07
4.048253075e-07
3.209271679e-07
2.541777279e-07
2.011240018e-07
1.589894733e-07
1.255591598e-07
9.905944062e-08
7.807234548e-08
6.146693092e-08
4.834189018e-08
3.797780768e-08
2.980230346e-08
2.336019e-08
1.828909294e-08
1.430171829e-08
1.116986493e-08
8.712831356e-09
6.787484848e-09
5.280629724e-09
4.102797905e-09
3.183352203e-09
2.466589426e-09
1.90861873e-09
1.474903949e-09
1.138300105e-09
8.774869102e-10
6.757495492e-10
5.19990278e-10
3.999639219e-10
3.076635222e-10
2.368415929e-10
1.826292633e-10
1.412378253e-10
1.097237773e-10
8.580307122e-11
6.770704529e-11
5.406836681e-11
4.38314083e-11
3.61837327e-11
3.050070788e-11
2.630341854e-11
2.322529159e-11
2.098706453e-11
1.937603726e-11
1.823089915e-11
1.742990563e-11
1.688088953e-11
1.651535598e-11
1.628156901e-11
1.620565205e-11
1.620565205e-11
1.620565205e-11
1.620565205e-11
1.620565205e-11
1.620565205e-11
1.620565205e-11
1.620565205e-11
1.620565205e-11
1.620565205e-11
1.620565205e-11
1.620565205e-11
1.620565205e-11
1.620565205e-11
1.620565205e-11
1.620984455e-11
1.622483425e-11
1.623853678e-11
1.625072223e-11
1.626148834e-11
1.62707507e-11
1.627855041e-11
1.629395015e-11
1.630679469e-11
1.631574004e-11
1.632235455e-11
1.632692997e-11
1.63293656e-11
1.633081997e-11
1.633189006e-11
1.633243402e-11
1.633263191e-11
1.63327059e-11
1.63323686e-11
1.633155316e-11
1.63310447e-11
1.633068161e-11
1.633040399e-11
1.633003629e-11
1.632969077e-11
1.632883927e-11
1.632834529e-11
1.63279905e-11
1.632737253e-11
1.632675158e-11
1.632605787e-11
1.632565911e-11
1.63253593e-11
1.632492275e-11
1.6324743e-11
1.632458286e-11
1.632386271e-11
1.632356629e-11
1.632341172e-11
1.632340365e-11
1.632284444e-11
1.632237272e-11
1.632195926e-11
1.63214457e-11
1.632090725e-11
1.632021371e-11
1.63195975e-11
1.631959713e-11
1.631933864e-11
1.631936891e-11
1.631882816e-11
1.631872524e-11
1.631804384e-11
1.631780501e-11
1.631722967e-11
1.631702148e-11
1.631654541e-11
1.631667805e-11
1.63166047e-11
1.631640166e-11
1.631597947e-11
1.63154622e-11
1.631496389e-11
1.631478138e-11
1.631430206e-11
1.63143511e-11
1.631421796e-11
1.631380918e-11
1.631323576e-11
1.63126942e-11
1.631217215e-11
1.631170033e-11
1.631105671e-11
1.631058358e-11
1.630998133e-11
1.630944729e-11
1.630918621e-11
1.630881369e-11
1.63084517e-11
1.630766119e-11
1.630759326e-11
1.630690701e-11
1.630693784e-11
1.630667025e-11
1.63064924e-11
1.630598707e-11
1.63056804e-11
1.630499334e-11
1.63045339e-11
1.630373695e-11
1.630331471e-11
1.630263827e-11
1.630247647e-11
1.630189862e-11
1.630186643e-11
1.630156311e-11
1.630175004e-11
1.630149549e-11
1.630118495e-11
1.630054407e-11
1.630070175e-11
1.629989351e-11
1.629936224e-11
1.629903812e-11
1.629821902e-11
1.629736143e-11
1.62970834e-11
1.629623187e-11
1.629562741e-11
1.629540012e-11
1.629494814e-11
1.629452733e-11
1.629419957e-11
1.629338389e-11
1.629272674e-11
1.629208838e-11
1.629141795e-11
1.629050833e-11
1.62899856e-11
1.62891759e-11
1.628838143e-11
1.628797995e-11
1.628738872e-11
1.628676338e-11
1.628692271e-11
1.628664647e-11
1.628605785e-11
1.628521313e-11
1.628413803e-11
1.628322874e-11
1.628308051e-11
1.628280962e-11
1.628169788e-11
1.628017986e-11
1.62794398e-11
1.627844592e-11
1.627795191e-11
1.627759713e-11
1.627668217e-11
1.627582233e-11
1.627553164e-11
1.627539479e-11
1.627471454e-11
1.627350626e-11
1.627249256e-11
1.627149545e-11
1.627042998e-11
1.627014316e-11
1.626929737e-11
1.626815465e-11
1.626676084e-11
1.626640603e-11
1.626561699e-11
1.626457615e-11
1.626406068e-11
1.626305742e-11
1.626166278e-11
1.625992954e-11
1.625852973e-11
1.625781445e-11
1.625713395e-11
1.625667547e-11
1.625532281e-11
1.625443486e-11
1.625325173e-11
1.625212866e-11
1.625043151e-11
1.624897049e-11
1.624793148e-11
1.62468277e-11
1.62458694e-11
1.624493305e-11
1.624345405e-11
1.624226553e-11
1.624124991e-11
1.623977462e-11
1.623834463e-11
1.623696945e-11
1.623603693e-11
1.623483144e-11
1.623287481e-11
1.623164972e-11
1.623043838e-11
1.622893759e-11
1.622799598e-11
1.622680567e-11
1.62253033e-11
1.622389167e-11
1.62223326e-11
1.622080083e-11
1.621933249e-11
1.621777473e-11
1.621629716e-11
1.621476063e-11
1.621330127e-11
1.621178865e-11
1.621027844e-11
1.62082903e-11
1.620652782e-11
0.1561577012
0.1561516616
0.1561407613
0.1561259175
0.1561079339
0.1560874858
0.1560650921
0.1560410907
0.1560157353
0.1559892428
0.1559617913
0.1559335142
0.1559045281
0.1558749447
0.1558448801
0.1558143997
0.1557835724
0.1557524599
0.1557211151
0.1556895806
0.1556578887
0.1556260632
0.1555941217
0.1555620769
0.1555299413
0.1554977313
0.1554654709
0.1554331973
0.1554009652
0.1553688481
0.1553369359
0.1553053323
0.1552740535
0.1552430372
0.1552122276
0.1551815835
0.1551510856
0.1551207343
0.1550905427
0.1550605207
0.1550306576
0.1550009321
0.154971319
0.1549418005
0.1549123715
0.1548830407
0.1548538285
0.154824766
0.1547958928
0.1547672542
0.1547388957
0.1547108544
0.1546831513
0.1546557718
0.154628678
0.1546018281
0.1545751839
0.1545487153
0.1545224035
0.1544962402
0.1544702261
0.1544443685
0.1544186776
0.1543931632
0.1543678347
0.1543427013
0.1543177801
0.1542930927
0.1542686668
0.1542445349
0.1542206951
0.1541971365
0.1541738414
0.1541507899
0.1541279645
0.1541053486
0.1540829166
0.1540606447
0.1540385199
0.1540165401
0.1539947109
0.1539730445
0.1539515568
0.1539302662
0.1539091905
0.1538883446
0.1538677385
0.1538473762
0.1538272554
0.1538073681
0.1537877023
0.1537682449
0.1537489836
0.1537299094
0.153711017
0.1536923045
0.1536737733
0.1536554262
0.1536372671
0.1536193001
0.1536015303
0.1535839635
0.1535666056
0.1535494621
0.153532538
0.1535158361
0.1534993386
0.153483031
0.1534668993
0.1534509297
0.1534351096
0.1534194275
0.1534038739
0.1533884421
0.1533731285
0.1533579324
0.153342856
0.1533279031
0.1533130792
0.1532983905
0.1532838435
0.153269444
0.153255196
0.1532411007
0.1532271569
0.1532133619
0.1531997125
0.1531861987
0.1531728113
0.1531595421
0.1531463835
0.1531333271
0.1531203651
0.1531074912
0.1530947005
0.153081989
0.1530693536
0.1530567917
0.1530443009
0.1530318781
0.1530195176
0.153007213
0.1529949575
0.1529827445
0.1529705669
0.1529584166
0.1529462858
0.1529341687
0.1529220597
0.1529099741
0.152897948
0.152885919
0.1528738837
0.1528618396
0.1528497844
0.1528377164
0.1528256339
0.1528135353
0.1528014182
0.1527892799
0.1527771165
0.1527649236
0.1527526964
0.1527404299
0.1527281186
0.1527157557
0.1527033326
0.1526908444
0.1526782859
0.1526656511
0.1526529336
0.1526401269
0.1526272247
0.1526142205
0.1526011079
0.1525878807
0.1525745326
0.1525610571
0.1525474458
0.1525336857
0.1525197553
0.1525056225
0.1524912538
0.1524766429
0.1524618079
0.1524467644
0.1524315201
0.1524160771
0.1524004339
0.1523845868
0.1523685307
0.1523522592
0.152335765
0.1523192327
0.1523025398
0.1522855915
0.1522683822
0.1522509313
0.1522332531
0.152215341
0.1521971862
0.1521787853
0.1521601377
0.1521412427
0.1521220978
0.1521027012
0.1520830419
0.1520631088
0.1520428909
0.1520223765
0.1520015504
0.1519803925
0.15195887
0.1519373387
0.1519154571
0.1518932041
0.1518705847
0.1518476054
0.151824249
0.1518005039
0.1517763502
0.1517517512
0.1517266882
0.1517011529
0.1516751406
0.1516486136
0.1516219226
0.1515947825
0.1515670422
0.1515386692
0.1515096327
0.1514799025
0.1514494452
0.1514182205
0.151386242
0.1513535039
0.1513205384
0.151286807
0.1512521922
0.1512165729
0.1511797934
0.1511417507
0.1511023344
0.1510615507
0.1510195925
0.1509759144
0.1509303827
0.1508828312
0.1508330875
0.1507809805
0.1507268559
0.1506701687
0.1506105673