/*--------------------------------*- C++ -*----------------------------------*\
| =========                 |                                                 |
| \\      /  F ield         | OpenFOAM: The Open Source CFD Toolbox           |
|  \\    /   O peration     | Version:  v2006                                 |
|   \\  /    A nd           | Website:  www.openfoam.com                      |
|    \\/     M anipulation  |                                                 |
\*---------------------------------------------------------------------------*/
FoamFile
{
    version     2.0;
    format      ascii;
    class       volScalarField;
    location    "0.09";
    object      H;
}
// * * * * * * * * * * * * * * * * * * * * * * * * * * * * * * * * * * * * * //

dimensions      [0 0 0 0 0 0 0];


internalField   nonuniform List<scalar> 
72000
(
3.869032338e-07
3.870380826e-07
3.872976266e-07
3.876721766e-07
3.881513637e-07
3.887242876e-07
3.893803899e-07
3.901095932e-07
3.9090285e-07
3.917518237e-07
3.926486139e-07
3.935855403e-07
3.945569794e-07
3.955586723e-07
3.965863229e-07
3.976358557e-07
3.987035124e-07
3.997859401e-07
4.008802299e-07
4.01983913e-07
4.030948594e-07
4.042111752e-07
4.053311413e-07
4.064531856e-07
4.07575859e-07
4.086977476e-07
4.09817393e-07
4.109332472e-07
4.120436793e-07
4.131470512e-07
4.142418648e-07
4.15326956e-07
4.16401647e-07
4.174657132e-07
4.185191796e-07
4.195621085e-07
4.205944706e-07
4.216161321e-07
4.226269442e-07
4.236268801e-07
4.246161344e-07
4.255951075e-07
4.265642992e-07
4.275241639e-07
4.284749859e-07
4.294168117e-07
4.30349436e-07
4.312724265e-07
4.321851699e-07
4.330869316e-07
4.339769776e-07
4.34855011e-07
4.357211283e-07
4.36575398e-07
4.374176633e-07
4.382486091e-07
4.391223797e-07
4.399855287e-07
4.408390842e-07
4.416836005e-07
4.425193417e-07
4.433463933e-07
4.441647448e-07
4.449743462e-07
4.457751279e-07
4.465669546e-07
4.473497284e-07
4.481232961e-07
4.488875233e-07
4.496423539e-07
4.503878671e-07
4.51124317e-07
4.518521288e-07
4.525718533e-07
4.532841072e-07
4.539895203e-07
4.54688684e-07
4.553820901e-07
4.560700833e-07
4.567528441e-07
4.574304005e-07
4.581026593e-07
4.587694495e-07
4.594305725e-07
4.60085855e-07
4.607351947e-07
4.613785935e-07
4.620161728e-07
4.626481686e-07
4.632749119e-07
4.638967731e-07
4.645141651e-07
4.651274711e-07
4.657370262e-07
4.663431029e-07
4.669459128e-07
4.675456186e-07
4.681423637e-07
4.68736244e-07
4.693273957e-07
4.699159378e-07
4.705020089e-07
4.71085777e-07
4.716674575e-07
4.722473248e-07
4.728257115e-07
4.73403003e-07
4.739796388e-07
4.745561051e-07
4.751329147e-07
4.757105852e-07
4.762896178e-07
4.768704777e-07
4.77453578e-07
4.780392694e-07
4.786278377e-07
4.792195084e-07
4.798144551e-07
4.804128085e-07
4.810146626e-07
4.81620071e-07
4.822290195e-07
4.828413533e-07
4.834566402e-07
4.840749052e-07
4.846961229e-07
4.853201772e-07
4.859487072e-07
4.865827163e-07
4.872229405e-07
4.87869993e-07
4.885244204e-07
4.891867272e-07
4.898573878e-07
4.905368529e-07
4.912255538e-07
4.919239074e-07
4.926323227e-07
4.933512067e-07
4.940809556e-07
4.948220311e-07
4.955748691e-07
4.963398676e-07
4.971173321e-07
4.979219482e-07
4.98756369e-07
4.996050533e-07
5.004687712e-07
5.013481734e-07
5.022438336e-07
5.031562794e-07
5.040860113e-07
5.050335079e-07
5.059992301e-07
5.069836271e-07
5.079871424e-07
5.090102223e-07
5.100533238e-07
5.111169208e-07
5.122015092e-07
5.133076082e-07
5.144357581e-07
5.155865165e-07
5.167604544e-07
5.179581529e-07
5.191802039e-07
5.204272138e-07
5.21699807e-07
5.229986271e-07
5.243243319e-07
5.256775928e-07
5.270590898e-07
5.28469513e-07
5.299095495e-07
5.313798757e-07
5.328811525e-07
5.344139902e-07
5.359788929e-07
5.375761385e-07
5.392047061e-07
5.408612393e-07
5.425358477e-07
5.443138213e-07
5.461896043e-07
5.480911178e-07
5.500293337e-07
5.520079659e-07
5.540286773e-07
5.560925274e-07
5.582004233e-07
5.603532704e-07
5.62552026e-07
5.647977088e-07
5.670913571e-07
5.694339583e-07
5.718264533e-07
5.74269765e-07
5.767648371e-07
5.793125429e-07
5.819135142e-07
5.845682217e-07
5.872771091e-07
5.900405046e-07
5.929070456e-07
5.95835564e-07
5.988224298e-07
6.018686766e-07
6.049748062e-07
6.081402475e-07
6.113630639e-07
6.146476575e-07
6.179971899e-07
6.214148511e-07
6.249030899e-07
6.284641299e-07
6.321006998e-07
6.358176753e-07
6.396268914e-07
6.435234517e-07
6.475047324e-07
6.515711208e-07
6.557237699e-07
6.599640701e-07
6.642935973e-07
6.687141164e-07
6.732275747e-07
6.778359599e-07
6.825410357e-07
6.873432702e-07
6.922426843e-07
6.97245873e-07
7.023567603e-07
7.075776315e-07
7.129096982e-07
7.183539001e-07
7.239088669e-07
7.295661275e-07
7.353048464e-07
7.416823488e-07
7.483283584e-07
7.551155092e-07
7.620679781e-07
7.692001045e-07
7.76521402e-07
7.840370262e-07
7.917436876e-07
7.99662427e-07
8.078054013e-07
8.161782234e-07
8.247930783e-07
8.336695971e-07
8.428224248e-07
8.522632138e-07
8.620031236e-07
8.720537631e-07
8.824270605e-07
8.931447122e-07
9.04239346e-07
9.164483984e-07
9.298516412e-07
9.437696355e-07
9.582355639e-07
9.732933339e-07
9.889924468e-07
1.005392638e-06
1.022531316e-06
1.040453805e-06
1.059216198e-06
1.078943238e-06
1.099724725e-06
1.123798643e-06
1.149204804e-06
1.175998786e-06
1.204301187e-06
1.234230238e-06
1.265869675e-06
1.299377447e-06
1.336204477e-06
1.377668148e-06
1.421954012e-06
1.469314356e-06
1.520071624e-06
1.574826082e-06
1.638314345e-06
1.708593095e-06
1.785054623e-06
1.868465168e-06
1.963330669e-06
2.072631825e-06
2.19360827e-06
2.327820874e-06
2.486316803e-06
2.664226445e-06
2.863832854e-06
3.097810545e-06
3.365408968e-06
3.669350158e-06
4.021630297e-06
4.41752985e-06
4.856324323e-06
5.334434215e-06
5.819553872e-06
6.33635446e-06
6.985419335e-06
8.334526062e-06
9.583662842e-06
1.566262701e-07
4.507480433e-08
1.449729389e-08
8.073347284e-09
5.362309276e-09
3.309172716e-09
1.745158253e-09
6.435855968e-10
2.468220657e-10
7.907273942e-11
2.566217483e-11
4.42735284e-12
5.477807938e-13
4.200741443e-13
3.291345836e-13
2.609610018e-13
2.082319075e-13
1.667182492e-13
1.336985415e-13
1.072792586e-13
8.607976072e-14
6.904655639e-14
5.535233421e-14
4.434378445e-14
3.549672445e-14
2.839066062e-14
2.268704985e-14
1.811242041e-14
1.444656613e-14
1.151152255e-14
9.163745431e-15
7.28755032e-15
5.789641588e-15
4.594926626e-15
3.642988414e-15
2.885247399e-15
2.282695639e-15
1.804034787e-15
1.424179256e-15
1.123046347e-15
8.845741052e-16
6.959256145e-16
5.468537694e-16
4.291862011e-16
3.364112349e-16
2.63346738e-16
2.058723829e-16
1.607160293e-16
1.252814511e-16
9.751105833e-17
7.577575433e-17
5.878710194e-17
4.552721337e-17
3.519282477e-17
2.715079703e-17
2.090265573e-17
1.605639834e-17
1.23041407e-17
9.404359809e-18
7.167837095e-18
5.446519772e-18
4.124724914e-18
3.112202025e-18
2.338632683e-18
1.749317323e-18
1.301777995e-18
9.630747398e-19
7.077223838e-19
5.160283773e-19
3.7281663e-19
2.664102867e-19
1.878570262e-19
1.302943094e-19
8.849027522e-20
5.846809374e-20
3.719576607e-20
2.239672743e-20
1.236214433e-20
5.823480038e-21
1.871289794e-21
2.854497676e-24
2.854497676e-24
2.854497676e-24
2.854497676e-24
2.854497676e-24
2.854497676e-24
2.854497676e-24
2.854497676e-24
2.854497676e-24
2.854497676e-24
2.854497676e-24
2.854497676e-24
2.854497676e-24
2.854497676e-24
1.519033293e-22
4.166477463e-22
6.936152326e-22
9.665890427e-22
1.236246892e-21
1.505638495e-21
8.890079753e-21
1.796435316e-20
2.205771541e-20
2.400782844e-20
2.544960335e-20
2.660570104e-20
2.668560549e-20
2.672482842e-20
2.611601602e-20
2.632905103e-20
2.571846439e-20
2.592864648e-20
2.522284217e-20
2.488699148e-20
2.436042831e-20
2.397613217e-20
2.378942564e-20
2.379777783e-20
2.402770946e-20
2.337078033e-20
2.292226639e-20
2.281037627e-20
2.29786361e-20
2.342312481e-20
2.298384949e-20
2.206729904e-20
2.19309624e-20
2.202354816e-20
2.20281638e-20
2.204018449e-20
2.230756063e-20
2.168115046e-20
2.163284427e-20
2.163147376e-20
2.180708568e-20
2.223851748e-20
2.15657434e-20
2.148315749e-20
2.18686793e-20
2.13603664e-20
2.137328582e-20
2.078095579e-20
2.089061634e-20
2.116641867e-20
2.162122606e-20
2.096828009e-20
2.097849004e-20
2.086329448e-20
2.112829861e-20
2.049395089e-20
2.035963827e-20
2.032432689e-20
2.055944276e-20
2.117497161e-20
2.107142595e-20
2.018774365e-20
2.030636289e-20
2.095587049e-20
2.083464494e-20
2.010971305e-20
2.005145124e-20
2.020826988e-20
2.072164182e-20
2.013268072e-20
1.991928265e-20
1.981033948e-20
2.025459527e-20
2.003677837e-20
1.987148551e-20
1.915231597e-20
1.858682589e-20
1.899077653e-20
1.924520626e-20
1.949110841e-20
1.886229748e-20
1.879315117e-20
1.885137091e-20
1.930314823e-20
1.877283937e-20
1.867660057e-20
1.864596375e-20
1.849084117e-20
1.886506246e-20
1.821144333e-20
1.813500842e-20
1.855921372e-20
1.814507632e-20
1.85395221e-20
1.787585054e-20
1.784104605e-20
1.766736311e-20
1.773855347e-20
1.777559563e-20
1.797465575e-20
1.835635014e-20
1.792539964e-20
1.765864407e-20
1.735629263e-20
1.724837515e-20
1.726145943e-20
1.715103525e-20
1.734971127e-20
1.67262042e-20
1.689409045e-20
1.735829537e-20
1.680211791e-20
1.718551432e-20
1.705333483e-20
1.63107897e-20
1.610555019e-20
1.604290744e-20
1.616244505e-20
1.646315556e-20
1.57599625e-20
1.593059611e-20
1.532185848e-20
1.522868169e-20
1.500413744e-20
1.497394542e-20
1.513604372e-20
1.553223219e-20
1.505956357e-20
1.5252606e-20
1.4587284e-20
1.460184929e-20
1.53270871e-20
1.536483891e-20
1.501058082e-20
1.418239689e-20
1.454492759e-20
1.438387819e-20
1.358373528e-20
1.358188246e-20
1.406851305e-20
1.343580982e-20
1.351307718e-20
1.418854286e-20
1.40070662e-20
1.309730975e-20
1.342186802e-20
1.325703821e-20
1.256204617e-20
1.231650011e-20
1.228875904e-20
1.208975684e-20
1.19392243e-20
1.194545883e-20
1.187821274e-20
1.190716478e-20
1.186864198e-20
1.219232435e-20
1.123525407e-20
1.073256604e-20
1.065197575e-20
1.101185909e-20
1.052651804e-20
1.077063226e-20
1.12090882e-20
1.05915266e-20
1.057857006e-20
9.817399686e-21
9.627528768e-21
1.010447316e-20
9.927529003e-21
9.649981575e-21
8.898184529e-21
8.657549118e-21
8.489823941e-21
8.361866865e-21
8.301186424e-21
8.594169872e-21
7.960079659e-21
7.788415169e-21
7.575705716e-21
7.770022216e-21
7.005042678e-21
6.776134345e-21
7.044681787e-21
6.448790971e-21
6.373445632e-21
6.163388113e-21
5.92985819e-21
6.173263145e-21
5.362635303e-21
5.374296492e-21
5.100503868e-21
4.247053647e-21
4.371783606e-21
3.566977042e-21
3.409815754e-21
3.47761196e-21
2.473904189e-21
1.55590188e-21
6.896459149e-22
4.260784208e-07
4.263217932e-07
4.267750737e-07
4.274152316e-07
4.282196478e-07
4.291675001e-07
4.302407873e-07
4.314222398e-07
4.326986296e-07
4.340571761e-07
4.354866211e-07
4.369770342e-07
4.385199723e-07
4.40108142e-07
4.417348622e-07
4.433941302e-07
4.450804516e-07
4.467889456e-07
4.485153712e-07
4.502562037e-07
4.520090453e-07
4.537712725e-07
4.555398725e-07
4.573126483e-07
4.590876061e-07
4.608627286e-07
4.626358325e-07
4.644044782e-07
4.661659645e-07
4.679174517e-07
4.696562507e-07
4.713802669e-07
4.730884492e-07
4.747807271e-07
4.764574822e-07
4.781190712e-07
4.797655585e-07
4.813966982e-07
4.830121283e-07
4.846116856e-07
4.861956552e-07
4.877647221e-07
4.893197549e-07
4.908615123e-07
4.923904112e-07
4.939064215e-07
4.95409063e-07
4.968974622e-07
4.983704445e-07
4.998266324e-07
5.012815083e-07
5.027328812e-07
5.041652362e-07
5.055788968e-07
5.06974287e-07
5.083519846e-07
5.097127377e-07
5.110584565e-07
5.123903579e-07
5.137091164e-07
5.150150047e-07
5.163080293e-07
5.175880533e-07
5.188548931e-07
5.201084173e-07
5.213488732e-07
5.225755876e-07
5.237880814e-07
5.249860368e-07
5.261692645e-07
5.27337804e-07
5.284920251e-07
5.296326182e-07
5.307604852e-07
5.318766258e-07
5.329820622e-07
5.34077772e-07
5.351645672e-07
5.362429968e-07
5.373133209e-07
5.383755352e-07
5.394294271e-07
5.404746495e-07
5.41510807e-07
5.425375467e-07
5.435546392e-07
5.445620392e-07
5.455599095e-07
5.465486129e-07
5.475287123e-07
5.485007548e-07
5.494654612e-07
5.504234385e-07
5.513752183e-07
5.523212189e-07
5.532617489e-07
5.541970328e-07
5.55127247e-07
5.560525426e-07
5.5697308e-07
5.578890197e-07
5.588005377e-07
5.597078501e-07
5.606112546e-07
5.615111665e-07
5.624081007e-07
5.633026495e-07
5.641955042e-07
5.65087448e-07
5.659793061e-07
5.668719066e-07
5.677660488e-07
5.686624713e-07
5.695618231e-07
5.704646468e-07
5.713713763e-07
5.722823462e-07
5.731978087e-07
5.741179526e-07
5.750429217e-07
5.759728263e-07
5.769077432e-07
5.778476994e-07
5.78819301e-07
5.798139848e-07
5.808139453e-07
5.818197745e-07
5.828325436e-07
5.838533524e-07
5.8488322e-07
5.859230878e-07
5.869738287e-07
5.880362622e-07
5.891111643e-07
5.901992727e-07
5.913012909e-07
5.924178946e-07
5.935497438e-07
5.94697522e-07
5.958621112e-07
5.970440767e-07
5.982441602e-07
5.994630885e-07
6.0070149e-07
6.019597733e-07
6.032386356e-07
6.04539264e-07
6.058629754e-07
6.072108122e-07
6.08583693e-07
6.099824749e-07
6.114079921e-07
6.128610448e-07
6.143424063e-07
6.158528329e-07
6.173930752e-07
6.189638917e-07
6.205660623e-07
6.222004011e-07
6.238677655e-07
6.25569058e-07
6.273052227e-07
6.29077238e-07
6.308861093e-07
6.327328625e-07
6.346185429e-07
6.365442259e-07
6.385110261e-07
6.405200995e-07
6.425726277e-07
6.446698231e-07
6.468129154e-07
6.490031675e-07
6.512418458e-07
6.535302101e-07
6.558695309e-07
6.582610418e-07
6.607058997e-07
6.63284342e-07
6.661046473e-07
6.689910013e-07
6.719529135e-07
6.750296508e-07
6.782212666e-07
6.814963529e-07
6.848505558e-07
6.88284548e-07
6.917999097e-07
6.953984292e-07
6.990820102e-07
7.028526913e-07
7.067126799e-07
7.106643812e-07
7.147103031e-07
7.188528035e-07
7.230941588e-07
7.274366275e-07
7.318826919e-07
7.364360413e-07
7.410977856e-07
7.458689311e-07
7.507511828e-07
7.557463385e-07
7.608559125e-07
7.660834338e-07
7.714322068e-07
7.769051695e-07
7.825049398e-07
7.882338691e-07
7.94094668e-07
8.001140953e-07
8.062960031e-07
8.126248999e-07
8.191059591e-07
8.257437349e-07
8.325426543e-07
8.395071304e-07
8.473612987e-07
8.555652524e-07
8.639755932e-07
8.725985904e-07
8.814384148e-07
8.905003151e-07
8.997898997e-07
9.09313276e-07
9.190772369e-07
9.290889797e-07
9.39356578e-07
9.498878803e-07
9.606900542e-07
9.717746968e-07
9.831525936e-07
9.948314993e-07
1.006812884e-06
1.019107815e-06
1.031726252e-06
1.046061569e-06
1.06099797e-06
1.076328856e-06
1.092075786e-06
1.108272469e-06
1.124953744e-06
1.14215038e-06
1.159888009e-06
1.178194069e-06
1.197093661e-06
1.216619448e-06
1.236806506e-06
1.258938236e-06
1.283075279e-06
1.308091613e-06
1.334048806e-06
1.360980288e-06
1.388931966e-06
1.417960753e-06
1.448271412e-06
1.479774469e-06
1.514578071e-06
1.551972106e-06
1.59072425e-06
1.631088524e-06
1.67323745e-06
1.71733951e-06
1.763565143e-06
1.81566847e-06
1.871347938e-06
1.929881468e-06
1.991494864e-06
2.056454722e-06
2.127330437e-06
2.206109197e-06
2.289482114e-06
2.377954567e-06
2.472146683e-06
2.580774999e-06
2.697107298e-06
2.821828891e-06
2.958875482e-06
3.114407628e-06
3.282430177e-06
3.467206158e-06
3.678564667e-06
3.909149698e-06
4.167587131e-06
4.455341352e-06
4.773785898e-06
5.141787679e-06
5.549315152e-06
6.023746558e-06
6.556183818e-06
7.174955203e-06
7.881041393e-06
8.687272335e-06
9.611272181e-06
1.064875457e-05
1.181241467e-05
1.30844458e-05
1.440625512e-05
1.569435121e-05
1.657927309e-05
1.647059148e-05
1.448327267e-05
1.033780436e-05
5.97513543e-06
3.083501055e-06
1.294386747e-06
2.020865894e-07
9.201683359e-08
3.030025945e-08
2.402343037e-08
1.744488312e-08
1.16148798e-08
6.723881615e-09
2.439986263e-09
8.444386617e-10
3.614796986e-10
1.618885416e-10
6.718623691e-11
1.863593049e-11
4.310329163e-13
3.40240272e-13
2.705863896e-13
2.1609368e-13
1.729696211e-13
1.386109847e-13
1.111042856e-13
8.904456683e-14
7.134214626e-14
5.712531256e-14
4.571307132e-14
3.655313701e-14
2.92049497e-14
2.331465497e-14
1.859540334e-14
1.481810567e-14
1.179707266e-14
9.382925527e-15
7.455660216e-15
5.918411966e-15
4.693437619e-15
3.7182631e-15
2.942681695e-15
2.326455185e-15
1.837323845e-15
1.449457684e-15
1.142204244e-15
8.990649647e-16
7.068619351e-16
5.550878963e-16
4.353705495e-16
3.410428171e-16
2.668049436e-16
2.084454946e-16
1.626232993e-16
1.266890933e-16
9.854496252e-17
7.653100448e-17
5.933533152e-17
4.592225556e-17
3.547501431e-17
2.735026014e-17
2.104184108e-17
1.615194213e-17
1.236834434e-17
9.44626947e-18
7.194066567e-18
5.461874392e-18
4.1326816e-18
3.115239954e-18
2.338509678e-18
1.74726513e-18
1.298642694e-18
9.594294817e-19
7.039376375e-19
5.12339334e-19
3.69365755e-19
2.632691757e-19
1.850561039e-19
1.278351731e-19
8.635344069e-20
5.662122429e-20
3.560584732e-20
2.102977682e-20
1.116788996e-20
4.746010439e-21
8.166930677e-22
2.854497676e-24
2.854497676e-24
2.854497676e-24
2.854497676e-24
2.854497676e-24
2.854497676e-24
2.854497676e-24
2.854497676e-24
2.854497676e-24
2.854497676e-24
2.854497676e-24
2.854497676e-24
2.854497676e-24
2.854497676e-24
2.957582117e-23
3.362175308e-22
6.288208639e-22
9.099030467e-22
1.176027097e-21
1.422352196e-21
1.652218509e-21
2.91600011e-20
4.492954952e-20
5.532988847e-20
6.150689214e-20
6.673833756e-20
6.875632829e-20
6.913465616e-20
6.891109616e-20
6.899824158e-20
6.81091477e-20
6.77637995e-20
6.733898315e-20
6.683845484e-20
6.504037727e-20
6.395564695e-20
6.312520253e-20
6.306368507e-20
6.231261655e-20
6.229229385e-20
6.053993124e-20
6.017039224e-20
6.060083624e-20
6.07209849e-20
5.930558357e-20
5.793483679e-20
5.780990801e-20
5.841366453e-20
5.833566231e-20
5.80886787e-20
5.738045537e-20
5.676938782e-20
5.713226017e-20
5.701051264e-20
5.746082858e-20
5.752296939e-20
5.652542554e-20
5.631597274e-20
5.631478078e-20
5.606324224e-20
5.463064054e-20
5.414640515e-20
5.5004617e-20
5.536226265e-20
5.591903192e-20
5.482553654e-20
5.477188264e-20
5.485252944e-20
5.424119564e-20
5.380627706e-20
5.362488948e-20
5.343025137e-20
5.389614145e-20
5.418289633e-20
5.437933784e-20
5.307844841e-20
5.295818646e-20
5.357898444e-20
5.325070369e-20
5.256516771e-20
5.264977803e-20
5.293270866e-20
5.345505298e-20
5.301303486e-20
5.247368102e-20
5.163761669e-20
5.16233331e-20
5.029048614e-20
5.04330696e-20
5.001189933e-20
4.965317539e-20
5.013724173e-20
5.061989056e-20
4.95982692e-20
4.931769727e-20
4.9308539e-20
4.918760389e-20
4.945022234e-20
4.913015907e-20
4.91554061e-20
4.919437864e-20
4.815112896e-20
4.812937821e-20
4.749829348e-20
4.71892645e-20
4.708461001e-20
4.687127087e-20
4.729927481e-20
4.665233006e-20
4.707720255e-20
4.657572433e-20
4.667327649e-20
4.673369424e-20
4.705340219e-20
4.658680879e-20
4.703344571e-20
4.640433064e-20
4.537237097e-20
4.519971373e-20
4.534497928e-20
4.474942237e-20
4.378491333e-20
4.342802434e-20
4.39878072e-20
4.404258083e-20
4.310978588e-20
4.321039549e-20
4.285266392e-20
4.228050085e-20
4.197112705e-20
4.177699583e-20
4.217902978e-20
4.15715234e-20
4.034894805e-20
3.988578886e-20
3.957214145e-20
3.986719872e-20
3.903881938e-20
3.882757547e-20
3.91879548e-20
3.910060206e-20
3.865263569e-20
3.813038997e-20
3.739069776e-20
3.723769919e-20
3.811025077e-20
3.800422578e-20
3.71718724e-20
3.570725425e-20
3.579178005e-20
3.559271576e-20
3.473967662e-20
3.479968011e-20
3.515772533e-20
3.427031104e-20
3.454039069e-20
3.540882301e-20
3.484460661e-20
3.288032695e-20
3.286039785e-20
3.248590475e-20
3.230099567e-20
3.265673098e-20
3.195580259e-20
3.128898906e-20
3.078225259e-20
3.073799026e-20
3.070461243e-20
3.097317178e-20
3.04669194e-20
3.042793673e-20
2.878551321e-20
2.758610791e-20
2.689740893e-20
2.673783141e-20
2.634396552e-20
2.769428721e-20
2.755241835e-20
2.691005452e-20
2.555838868e-20
2.471333867e-20
2.403947263e-20
2.410698573e-20
2.320699583e-20
2.278995572e-20
2.242902642e-20
2.216830262e-20
2.163085673e-20
2.125939231e-20
2.098030772e-20
2.048029722e-20
1.996102442e-20
1.991266108e-20
1.890852638e-20
1.825298322e-20
1.722346398e-20
1.661358281e-20
1.622926424e-20
1.578237832e-20
1.613978232e-20
1.567797577e-20
1.445751252e-20
1.41368112e-20
1.244709807e-20
1.108396545e-20
1.06950239e-20
9.347740781e-21
9.077012953e-21
7.801628064e-21
7.668647053e-21
6.969938095e-21
5.314852671e-21
2.824760164e-21
1.010136119e-21
5.166445051e-07
5.170381337e-07
5.177660985e-07
5.187867483e-07
5.200603203e-07
5.215504595e-07
5.232265675e-07
5.250632344e-07
5.270397951e-07
5.291375294e-07
5.313400199e-07
5.336332451e-07
5.360049413e-07
5.384442048e-07
5.409418642e-07
5.434879966e-07
5.460743254e-07
5.486935903e-07
5.513394066e-07
5.540060875e-07
5.56754479e-07
5.595832809e-07
5.624223307e-07
5.652691045e-07
5.681210009e-07
5.709752153e-07
5.738285241e-07
5.766770719e-07
5.795162687e-07
5.823409249e-07
5.851457572e-07
5.87926418e-07
5.906811783e-07
5.934108236e-07
5.961169323e-07
5.988007321e-07
6.014625305e-07
6.041017024e-07
6.067171545e-07
6.093081606e-07
6.118751701e-07
6.144195731e-07
6.169432023e-07
6.194476253e-07
6.219336464e-07
6.244011565e-07
6.268491871e-07
6.292760497e-07
6.316795304e-07
6.340571872e-07
6.36406907e-07
6.38727331e-07
6.410189356e-07
6.432819257e-07
6.455170084e-07
6.477259821e-07
6.499109361e-07
6.520739778e-07
6.542166008e-07
6.563395796e-07
6.5844308e-07
6.605268527e-07
6.625904437e-07
6.646333286e-07
6.666548101e-07
6.687300291e-07
6.707930829e-07
6.728325386e-07
6.748476563e-07
6.768378322e-07
6.788028854e-07
6.807433897e-07
6.826606361e-07
6.845562987e-07
6.864321648e-07
6.882900569e-07
6.901318309e-07
6.919590382e-07
6.937726718e-07
6.955731343e-07
6.97360311e-07
6.991336856e-07
7.008924781e-07
7.026358059e-07
7.043628624e-07
7.060730808e-07
7.077662654e-07
7.094426346e-07
7.111028163e-07
7.127477811e-07
7.143786136e-07
7.159965846e-07
7.176028128e-07
7.191982277e-07
7.207835206e-07
7.223591553e-07
7.239254262e-07
7.254825431e-07
7.270307014e-07
7.285701103e-07
7.301009738e-07
7.316234902e-07
7.33137895e-07
7.346445675e-07
7.361442854e-07
7.376383115e-07
7.391270726e-07
7.406117352e-07
7.420936892e-07
7.435743832e-07
7.450552554e-07
7.465376937e-07
7.480229761e-07
7.49512207e-07
7.510062837e-07
7.525058971e-07
7.540115557e-07
7.555236222e-07
7.570423564e-07
7.585679607e-07
7.601006254e-07
7.616405802e-07
7.631881829e-07
7.647441678e-07
7.663089429e-07
7.678829413e-07
7.694670748e-07
7.710625428e-07
7.726707064e-07
7.742930106e-07
7.75930889e-07
7.775856969e-07
7.792587239e-07
7.809512038e-07
7.82664312e-07
7.843991655e-07
7.861568258e-07
7.879382941e-07
7.897444573e-07
7.916223354e-07
7.935273108e-07
7.954604804e-07
7.974231953e-07
7.9941675e-07
8.014424329e-07
8.035441591e-07
8.057882308e-07
8.080746284e-07
8.104049881e-07
8.127808234e-07
8.152035816e-07
8.176748323e-07
8.201960316e-07
8.227685789e-07
8.253938423e-07
8.280731803e-07
8.308079665e-07
8.335996172e-07
8.364496183e-07
8.393595458e-07
8.423310692e-07
8.453659398e-07
8.484659713e-07
8.516330268e-07
8.548689932e-07
8.581757752e-07
8.615553299e-07
8.650097221e-07
8.685411171e-07
8.721517091e-07
8.758437653e-07
8.796195655e-07
8.834814987e-07
8.874319486e-07
8.914733077e-07
8.956080524e-07
8.99838679e-07
9.041677457e-07
9.085979112e-07
9.131327321e-07
9.177783606e-07
9.225445025e-07
9.274441319e-07
9.324800264e-07
9.376461434e-07
9.42939856e-07
9.483616339e-07
9.539133796e-07
9.595976576e-07
9.654174148e-07
9.713759053e-07
9.774767257e-07
9.83724033e-07
9.901233374e-07
9.966779275e-07
1.003391095e-06
1.010266211e-06
1.017306158e-06
1.02507029e-06
1.033239206e-06
1.041604046e-06
1.050168947e-06
1.058938154e-06
1.067916219e-06
1.077108629e-06
1.086521733e-06
1.096160676e-06
1.10603101e-06
1.116138822e-06
1.126491078e-06
1.137096615e-06
1.147964052e-06
1.159101922e-06
1.170521581e-06
1.182228559e-06
1.19422917e-06
1.206527726e-06
1.219120341e-06
1.232024869e-06
1.24592554e-06
1.261046706e-06
1.276560705e-06
1.292478566e-06
1.308810833e-06
1.32556894e-06
1.342766437e-06
1.360413366e-06
1.378530394e-06
1.397137681e-06
1.416278831e-06
1.435956842e-06
1.45618399e-06
1.476979623e-06
1.499949069e-06
1.524292928e-06
1.549330494e-06
1.575086065e-06
1.601574934e-06
1.628822321e-06
1.656870282e-06
1.685770362e-06
1.715575794e-06
1.746341567e-06
1.780261519e-06
1.816333117e-06
1.853629007e-06
1.892207912e-06
1.932144452e-06
1.97352928e-06
2.016446537e-06
2.060974479e-06
2.111175809e-06
2.163511831e-06
2.217898771e-06
2.274449965e-06
2.333262537e-06
2.39446581e-06
2.462304304e-06
2.534483025e-06
2.609746775e-06
2.68838829e-06
2.770732452e-06
2.86132526e-06
2.959536913e-06
3.06287617e-06
3.171034597e-06
3.287305933e-06
3.416640308e-06
3.553433253e-06
3.6982773e-06
3.857612603e-06
4.031601666e-06
4.216998385e-06
4.419480585e-06
4.64458961e-06
4.885114929e-06
5.152797055e-06
5.448742537e-06
5.771245924e-06
6.137897104e-06
6.534584462e-06
6.985307953e-06
7.48107967e-06
8.046911703e-06
8.677030552e-06
9.389034745e-06
1.019149063e-05
1.109129356e-05
1.212036786e-05
1.329142811e-05
1.462243595e-05
1.613994877e-05
1.784296362e-05
1.975346346e-05
2.185952806e-05
2.41439141e-05
2.648233337e-05
2.859517789e-05
2.986649867e-05
2.945303319e-05
2.610507026e-05
1.955323351e-05
1.203357891e-05
6.629387516e-06
3.324794441e-06
1.471013461e-06
5.592803827e-07
2.664259955e-07
1.291182398e-07
6.325455682e-08
3.819720048e-08
2.639054076e-08
1.662535312e-08
7.102675588e-09
2.878163098e-09
1.326980074e-09
6.908703233e-10
3.535951718e-10
1.701588027e-10
7.099146017e-11
1.649611757e-11
3.32068341e-13
2.643738811e-13
2.108990385e-13
1.684791852e-13
1.346365009e-13
1.076039944e-13
8.599149394e-14
6.868608075e-14
5.484181535e-14
4.376096145e-14
3.489414813e-14
2.780617264e-14
2.213858558e-14
1.761259871e-14
1.400014509e-14
1.111846049e-14
8.822330894e-15
6.993871145e-15
5.539146822e-15
4.382904228e-15
3.464632502e-15
2.736058746e-15
2.158529017e-15
1.701140344e-15
1.339245166e-15
1.053200579e-15
8.273277796e-16
6.491524296e-16
5.087542609e-16
3.982357571e-16
3.11335689e-16
2.430806854e-16
1.895325733e-16
1.475719457e-16
1.147318379e-16
8.906240019e-17
6.902417925e-17
5.340319059e-17
4.124288569e-17
3.179059005e-17
2.445471129e-17
1.877059921e-17
1.437397437e-17
1.097938708e-17
8.363556005e-18
6.351979032e-18
4.808499669e-18
3.627006693e-18
2.724929738e-18
2.038118701e-18
1.516795482e-18
1.12241421e-18
8.251755014e-19
6.020732173e-19
4.354012614e-19
3.115465231e-19
2.200716149e-19
1.529875144e-19
1.042080288e-19
6.909761355e-20
4.414069614e-20
2.668399919e-20
1.471884888e-20
6.752481703e-21
1.657373982e-21
2.854497676e-24
2.854497676e-24
2.854497676e-24
2.854497676e-24
2.854497676e-24
2.854497676e-24
2.854497676e-24
2.854497676e-24
2.854497676e-24
2.854497676e-24
2.854497676e-24
2.854497676e-24
2.854497676e-24
2.854497676e-24
2.854497676e-24
9.422496525e-23
4.209076675e-22
7.195378209e-22
9.851051772e-22
1.219739697e-21
1.421601869e-21
1.591587245e-21
3.284497659e-20
6.005687672e-20
7.823775968e-20
9.112489357e-20
9.935031482e-20
1.030624551e-19
1.051623654e-19
1.066780448e-19
1.070317055e-19
1.06796175e-19
1.064246979e-19
1.051903225e-19
1.031819674e-19
1.020527762e-19
1.012361162e-19
1.004502852e-19
9.946899463e-20
9.866662139e-20
9.694367031e-20
9.608823914e-20
9.543744872e-20
9.440203978e-20
9.356817345e-20
9.284742887e-20
9.264176559e-20
9.240581626e-20
9.18749037e-20
9.178408661e-20
9.159405183e-20
9.035596723e-20
9.011661565e-20
9.007616983e-20
9.027180805e-20
8.921914119e-20
8.861214905e-20
8.822309661e-20
8.75908606e-20
8.693838502e-20
8.610525394e-20
8.557853642e-20
8.608022969e-20
8.595525389e-20
8.628844986e-20
8.556640421e-20
8.574027799e-20
8.478691056e-20
8.478518155e-20
8.412379113e-20
8.412852323e-20
8.353997499e-20
8.411292806e-20
8.411480546e-20
8.389602774e-20
8.32704177e-20
8.248747478e-20
8.18509364e-20
8.192227197e-20
8.142866325e-20
8.204614072e-20
8.213477348e-20
8.157897555e-20
8.086201137e-20
8.037052209e-20
7.996172328e-20
7.96131107e-20
7.90359735e-20
7.885070414e-20
7.840655607e-20
7.815854993e-20
7.833477012e-20
7.815748672e-20
7.786920103e-20
7.680685849e-20
7.719468882e-20
7.626902356e-20
7.67644448e-20
7.67041558e-20
7.673619823e-20
7.607285779e-20
7.57996818e-20
7.467818468e-20
7.424294232e-20
7.306459319e-20
7.26429069e-20
7.188082691e-20
7.215537975e-20
7.163876763e-20
7.221392188e-20
7.21157769e-20
7.282431806e-20
7.245726752e-20
7.189434129e-20
7.105656442e-20
7.183978132e-20
7.059861823e-20
7.01374785e-20
7.00180244e-20
6.881022585e-20
6.767574305e-20
6.777048754e-20
6.667784844e-20
6.618267101e-20
6.647781141e-20
6.6340508e-20
6.629889443e-20
6.645164678e-20
6.551389138e-20
6.492487275e-20
6.431772486e-20
6.35499825e-20
6.237844702e-20
6.211678343e-20
6.130081801e-20
6.055702162e-20
6.05355266e-20
5.999660843e-20
5.94360907e-20
6.053449989e-20
6.05331143e-20
5.986795856e-20
5.876504006e-20
5.711252901e-20
5.601863129e-20
5.652753004e-20
5.679159477e-20
5.533873386e-20
5.33857456e-20
5.31714853e-20
5.246505485e-20
5.286677276e-20
5.33201886e-20
5.251003989e-20
5.172890037e-20
5.225555023e-20
5.294776553e-20
5.251929753e-20
5.110836205e-20
5.03145999e-20
4.962663756e-20
4.89279163e-20
4.976980686e-20
4.936669779e-20
4.830710717e-20
4.674613655e-20
4.730151427e-20
4.689268986e-20
4.598015273e-20
4.620528599e-20
4.545693923e-20
4.40025475e-20
4.190351181e-20
4.052316196e-20
4.056203033e-20
4.057732492e-20
4.103079829e-20
3.946724835e-20
3.908523512e-20
3.812904354e-20
3.746962e-20
3.563554599e-20
3.4388267e-20
3.413041436e-20
3.384450105e-20
3.386416923e-20
3.392718633e-20
3.271891003e-20
3.212758011e-20
3.181577994e-20
3.045579981e-20
2.928914481e-20
2.817234824e-20
2.802573082e-20
2.727992866e-20
2.498600368e-20
2.428843827e-20
2.353787386e-20
2.222484309e-20
2.209193153e-20
2.142177327e-20
2.016548263e-20
1.90594783e-20
1.765596018e-20
1.64847699e-20
1.545747744e-20
1.426602338e-20
1.321188047e-20
1.191197467e-20
1.070296769e-20
9.237894229e-21
7.609501747e-21
4.690370477e-21
1.787743616e-21
6.019179216e-07
6.025500411e-07
6.037081861e-07
6.053176998e-07
6.073090573e-07
6.096178508e-07
6.121927297e-07
6.149976467e-07
6.180032342e-07
6.21182154e-07
6.245105875e-07
6.279696796e-07
6.315424476e-07
6.352168517e-07
6.392314041e-07
6.433189322e-07
6.474675715e-07
6.516665233e-07
6.559062993e-07
6.601786314e-07
6.644761856e-07
6.687938587e-07
6.731285051e-07
6.774770635e-07
6.818364614e-07
6.862032925e-07
6.905733641e-07
6.949411448e-07
6.992993056e-07
7.036386298e-07
7.07948536e-07
7.122182136e-07
7.164447777e-07