/*--------------------------------*- C++ -*----------------------------------*\
| =========                 |                                                 |
| \\      /  F ield         | OpenFOAM: The Open Source CFD Toolbox           |
|  \\    /   O peration     | Version:  v2006                                 |
|   \\  /    A nd           | Website:  www.openfoam.com                      |
|    \\/     M anipulation  |                                                 |
\*---------------------------------------------------------------------------*/
FoamFile
{
    version     2.0;
    format      ascii;
    class       volScalarField;
    location    "0.09";
    object      H2;
}
// * * * * * * * * * * * * * * * * * * * * * * * * * * * * * * * * * * * * * //

dimensions      [0 0 0 0 0 0 0];


internalField   nonuniform List<scalar> 
72000
(
0.0001166580782
0.0001166717114
0.0001166974123
0.000116733979
0.0001167802121
0.0001168349863
0.0001168972589
0.0001169660758
0.0001170405933
0.000117120048
0.0001172037293
0.0001172909629
0.0001173812408
0.0001174741685
0.0001175693608
0.0001176664616
0.0001177651449
0.000117865119
0.0001179661292
0.0001180679567
0.0001181704119
0.0001182733318
0.0001183765741
0.0001184800074
0.0001185835081
0.0001186869526
0.0001187902109
0.0001188931426
0.0001189955969
0.0001190974206
0.0001191984727
0.0001192986446
0.0001193978769
0.0001194961563
0.0001195934942
0.0001196899058
0.000119785397
0.000119879963
0.0001199735965
0.0001200662997
0.0001201580929
0.0001202490128
0.0001203391031
0.0001204284017
0.0001205169299
0.0001206046867
0.000120691647
0.0001207777645
0.0001208629753
0.0001209472055
0.0001210303889
0.00012111249
0.0001211935055
0.0001212734446
0.0001213523083
0.0001214300566
0.0001215054332
0.0001215799342
0.0001216536509
0.0001217266315
0.0001217988987
0.0001218704587
0.0001219413085
0.0001220114396
0.0001220808398
0.0001221494915
0.0001222173831
0.0001222844997
0.0001223508263
0.0001224163549
0.000122481091
0.0001225450559
0.0001226082854
0.0001226708256
0.0001227327279
0.0001227940449
0.0001228548265
0.0001229151142
0.0001229749369
0.0001230343088
0.0001230932306
0.000123151692
0.0001232096758
0.000123267162
0.0001233241329
0.0001233805763
0.0001234364892
0.0001234918789
0.0001235467627
0.0001236011664
0.0001236551201
0.0001237086569
0.000123761808
0.0001238146004
0.0001238670557
0.0001239191901
0.0001239710152
0.0001240225405
0.0001240737717
0.0001241247163
0.0001241753808
0.0001242257731
0.000124275903
0.0001243257846
0.0001243754367
0.0001244248847
0.0001244741599
0.0001245232991
0.0001245723423
0.0001246213313
0.0001246703079
0.0001247193119
0.0001247683798
0.0001248175432
0.0001248668281
0.000124916255
0.0001249658387
0.0001250155895
0.0001250655141
0.0001251156156
0.0001251658936
0.0001252163423
0.0001252669455
0.0001253176743
0.0001253685257
0.0001254194943
0.0001254705766
0.0001255218925
0.0001255735202
0.0001256255175
0.0001256779322
0.0001257308064
0.0001257841785
0.0001258380841
0.0001258925566
0.0001259476272
0.0001260033258
0.0001260596809
0.0001261167205
0.0001261744721
0.0001262329696
0.0001262922453
0.000126352327
0.0001264132331
0.0001264745326
0.0001265361916
0.0001265987677
0.0001266623182
0.0001267268891
0.0001267925202
0.0001268592473
0.0001269271032
0.000126996119
0.0001270663242
0.000127137747
0.0001272104154
0.0001272843572
0.0001273596009
0.0001274361759
0.0001275141133
0.0001275934457
0.0001276742069
0.0001277564322
0.0001278401576
0.0001279254198
0.0001280122563
0.0001281007055
0.0001281908067
0.0001282825996
0.0001283761252
0.0001284714246
0.0001285685396
0.0001286675116
0.0001287683819
0.0001288711907
0.0001289759759
0.0001290827713
0.0001291916019
0.0001293024778
0.0001294153208
0.0001295298504
0.0001296452412
0.0001297587176
0.0001298704499
0.0001299830503
0.0001300973497
0.0001302136161
0.0001303319522
0.0001304524101
0.000130575027
0.0001306998377
0.0001308268795
0.0001309561923
0.0001310878159
0.000131221784
0.000131358125
0.0001314968654
0.0001316380325
0.0001317816474
0.0001319277101
0.000132076205
0.0001322271104
0.0001323803832
0.0001325345204
0.0001326908722
0.0001328496529
0.0001330108879
0.0001331745693
0.0001333406455
0.0001335090373
0.0001336799003
0.000133853363
0.0001340295449
0.0001342085417
0.0001343904328
0.0001345753306
0.0001347634954
0.0001349556662
0.0001351514128
0.0001353504631
0.0001355527493
0.0001357582496
0.00013596696
0.0001361788901
0.0001363940597
0.000136612496
0.0001368342241
0.0001370592494
0.0001372875277
0.0001375190116
0.0001377538791
0.0001379922173
0.0001382340327
0.0001384792657
0.0001387277958
0.0001389793434
0.0001392332623
0.0001394877791
0.0001397237897
0.0001399543207
0.0001401866606
0.0001404221226
0.0001406613689
0.0001409047537
0.0001411523741
0.0001414040291
0.0001416602669
0.0001419213733
0.0001421874313
0.0001424587571
0.00014273593
0.0001430193396
0.0001433091785
0.0001436055825
0.0001439087121
0.0001442188132
0.0001445364293
0.0001448629344
0.0001451911915
0.0001455210009
0.0001458608489
0.0001462114429
0.0001465740616
0.0001469501738
0.0001473418097
0.0001477495446
0.0001481742555
0.0001486172966
0.0001490803083
0.0001495662244
0.0001500575158
0.0001505740585
0.0001511190033
0.0001516954311
0.0001523070014
0.0001529551406
0.0001536438535
0.0001543717165
0.0001551365435
0.0001559616544
0.00015685391
0.0001578241412
0.0001588806085
0.0001600257199
0.0001612971609
0.0001627139763
0.0001642991185
0.0001660625917
0.0001680514573
0.0001703293979
0.000172945607
0.000175939564
0.0001794374664
0.0001835894815
0.0001885292719
0.0001944843136
0.0002017630703
0.0002107698781
0.0002220925128
0.00023646916
0.0002549852758
0.0002784487531
0.000307830564
0.0003410766435
0.0003834216185
0.0005104186815
0.0009702149136
0.0009585367016
0.0008986829536
0.0008360223348
0.0007748887548
0.0007162702727
0.0006548750395
0.000598320367
0.0005505998957
0.0004702185786
0.0003282342412
0.0002329160305
0.0001730638189
0.0001338533949
0.0001059317577
8.500007518e-05
6.88103924e-05
5.606424213e-05
4.592603285e-05
3.781438568e-05
3.13053957e-05
2.607560409e-05
2.187099721e-05
1.849098602e-05
1.577462806e-05
1.359281704e-05
1.184160833e-05
1.043703652e-05
9.31149058e-06
8.410329181e-06
7.689479196e-06
7.113421441e-06
6.653510883e-06
6.286691454e-06
5.994413009e-06
5.76175992e-06
5.57675538e-06
5.429789697e-06
5.313160715e-06
5.220702342e-06
5.147482994e-06
5.089561285e-06
5.043790996e-06
5.007662923e-06
4.979177752e-06
4.956744386e-06
4.939097742e-06
4.925233156e-06
4.914353497e-06
4.905827012e-06
4.89915351e-06
4.893937398e-06
4.889866147e-06
4.886693127e-06
4.884223942e-06
4.882305543e-06
4.880817572e-06
4.879665497e-06
4.878775163e-06
4.878088472e-06
4.877559967e-06
4.877154129e-06
4.876843249e-06
4.876605736e-06
4.876424796e-06
4.876287386e-06
4.876183392e-06
4.87610499e-06
4.876046133e-06
4.876002162e-06
4.875969491e-06
4.875945373e-06
4.875927699e-06
4.875914864e-06
4.875905646e-06
4.875899115e-06
4.875894571e-06
4.87589149e-06
4.875889482e-06
4.875888269e-06
4.875887695e-06
4.875887695e-06
4.875887695e-06
4.875887695e-06
4.875887695e-06
4.875887695e-06
4.875887695e-06
4.875887695e-06
4.875887695e-06
4.875887695e-06
4.875887695e-06
4.875887695e-06
4.875887695e-06
4.875887695e-06
4.875887741e-06
4.875887822e-06
4.875887907e-06
4.875887991e-06
4.875888074e-06
4.875888156e-06
4.875888244e-06
4.875888326e-06
4.875888387e-06
4.87588843e-06
4.875888462e-06
4.875888485e-06
4.8758885e-06
4.875888509e-06
4.875888512e-06
4.875888516e-06
4.875888516e-06
4.875888516e-06
4.875888513e-06
4.87588851e-06
4.875888507e-06
4.875888503e-06
4.875888501e-06
4.875888499e-06
4.875888498e-06
4.875888494e-06
4.875888491e-06
4.875888488e-06
4.875888487e-06
4.875888487e-06
4.875888482e-06
4.875888476e-06
4.875888471e-06
4.875888469e-06
4.875888467e-06
4.875888466e-06
4.875888465e-06
4.875888461e-06
4.875888459e-06
4.875888458e-06
4.875888458e-06
4.875888458e-06
4.875888454e-06
4.875888452e-06
4.875888451e-06
4.875888447e-06
4.875888444e-06
4.875888439e-06
4.875888437e-06
4.875888437e-06
4.875888437e-06
4.875888433e-06
4.875888431e-06
4.875888429e-06
4.875888427e-06
4.875888423e-06
4.87588842e-06
4.875888418e-06
4.875888418e-06
4.87588842e-06
4.875888418e-06
4.875888414e-06
4.875888413e-06
4.875888414e-06
4.875888411e-06
4.875888407e-06
4.875888404e-06
4.875888403e-06
4.875888403e-06
4.875888399e-06
4.875888395e-06
4.875888392e-06
4.875888391e-06
4.875888387e-06
4.875888382e-06
4.875888375e-06
4.87588837e-06
4.875888368e-06
4.875888366e-06
4.875888365e-06
4.875888361e-06
4.875888358e-06
4.875888356e-06
4.875888356e-06
4.875888352e-06
4.87588835e-06
4.875888347e-06
4.875888345e-06
4.875888344e-06
4.87588834e-06
4.875888337e-06
4.875888336e-06
4.875888333e-06
4.875888331e-06
4.875888327e-06
4.875888323e-06
4.875888321e-06
4.875888319e-06
4.875888319e-06
4.875888319e-06
4.875888318e-06
4.875888315e-06
4.875888311e-06
4.875888307e-06
4.875888304e-06
4.875888301e-06
4.875888298e-06
4.875888295e-06
4.875888291e-06
4.875888289e-06
4.875888287e-06
4.875888283e-06
4.875888281e-06
4.875888276e-06
4.87588827e-06
4.875888265e-06
4.875888261e-06
4.875888258e-06
4.875888255e-06
4.87588825e-06
4.875888246e-06
4.875888239e-06
4.875888235e-06
4.875888231e-06
4.875888228e-06
4.875888226e-06
4.875888225e-06
4.875888221e-06
4.875888219e-06
4.875888214e-06
4.875888211e-06
4.875888211e-06
4.875888208e-06
4.875888202e-06
4.875888194e-06
4.875888189e-06
4.875888183e-06
4.875888175e-06
4.87588817e-06
4.875888167e-06
4.875888161e-06
4.875888158e-06
4.875888156e-06
4.875888151e-06
4.875888143e-06
4.875888138e-06
4.875888131e-06
4.875888123e-06
4.875888115e-06
4.875888109e-06
4.875888102e-06
4.875888097e-06
4.875888092e-06
4.875888087e-06
4.875888082e-06
4.875888077e-06
4.875888072e-06
4.875888062e-06
4.875888054e-06
4.875888047e-06
4.875888043e-06
4.875888036e-06
4.875888032e-06
4.875888028e-06
4.87588802e-06
4.875888013e-06
4.875888003e-06
4.875887996e-06
4.87588799e-06
4.875887982e-06
4.875887973e-06
4.875887962e-06
4.875887952e-06
4.875887944e-06
4.875887936e-06
4.875887929e-06
4.875887922e-06
4.875887913e-06
4.875887905e-06
4.875887897e-06
4.87588789e-06
4.87588788e-06
4.875887871e-06
4.875887864e-06
4.875887855e-06
4.875887846e-06
4.875887838e-06
4.87588783e-06
4.875887822e-06
4.875887811e-06
4.875887802e-06
4.875887792e-06
4.87588778e-06
4.87588777e-06
4.875887758e-06
4.875887748e-06
4.875887739e-06
4.875887726e-06
4.875887713e-06
4.875887701e-06
0.0001017961147
0.0001018192099
0.0001018606757
0.0001019173271
0.0001019864527
0.0001020659251
0.0001021540398
0.0001022494201
0.0001023509825
0.0001024578039
0.0001025690974
0.000102684187
0.0001028025024
0.0001029235452
0.0001030468673
0.0001031721239
0.0001032990033
0.000103427221
0.0001035565225
0.0001036866815
0.0001038174981
0.0001039488275
0.0001040805695
0.0001042126243
0.0001043448859
0.0001044772344
0.0001046095271
0.0001047415916
0.0001048732244
0.0001050042011
0.000105134303
0.0001052633629
0.0001053913163
0.0001055181955
0.0001056440743
0.0001057690231
0.0001058930863
0.0001060162799
0.0001061386062
0.0001062600749
0.0001063807182
0.0001065005857
0.0001066197306
0.0001067381905
0.0001068559743
0.0001069730554
0.0001070893714
0.0001072048271
0.0001073193008
0.000107432649
0.0001075431599
0.0001076508996
0.0001077573163
0.0001078624526
0.000107966381
0.0001080691811
0.0001081709404
0.0001082717865
0.0001083718101
0.0001084710625
0.0001085695631
0.000108667308
0.000108764277
0.0001088604382
0.0001089557457
0.000109050136
0.0001091435892
0.0001092360714
0.0001093275399
0.000109417962
0.0001095073359
0.0001095956888
0.0001096830685
0.000109769535
0.0001098551535
0.0001099399913
0.0001100241158
0.0001101075847
0.0001101904351
0.0001102726802
0.0001103543111
0.0001104353013
0.0001105156128
0.0001105952025
0.0001106740295
0.0001107520613
0.0001108292785
0.0001109056776
0.0001109812713
0.0001110560864
0.0001111301575
0.0001112035247
0.0001112762249
0.0001113482891
0.0001114197394
0.0001114905893
0.0001115608446
0.0001116305051
0.0001116995673
0.0001117680252
0.0001118358719
0.0001119031001
0.0001119697045
0.0001120356841
0.0001121010455
0.0001121658086
0.0001122300128
0.0001122937053
0.0001123569361
0.0001124197553
0.0001124822107
0.000112544346
0.0001126061986
0.0001126677979
0.0001127291648
0.0001127903111
0.0001128512407
0.0001129119507
0.000112972433
0.0001130326752
0.0001130926615
0.0001131523725
0.0001132117818
0.000113270089
0.0001133275517
0.0001133847198
0.0001134416252
0.0001134983254
0.0001135548777
0.0001136113322
0.0001136677328
0.0001137241189
0.0001137805262
0.0001138369864
0.0001138935274
0.0001139501735
0.0001140069461
0.0001140638637
0.0001141209422
0.0001141781976
0.0001142356635
0.0001142933717
0.0001143513493
0.0001144096164
0.0001144681853
0.0001145270834
0.0001145863599
0.0001146460666
0.0001147062443
0.0001147669274
0.0001148281451
0.0001148899213
0.000114952277
0.0001150152319
0.0001150788044
0.0001151430121
0.0001152078725
0.0001152734035
0.0001153396243
0.000115406556
0.0001154742216
0.0001155426459
0.0001156118552
0.0001156818771
0.000115752741
0.000115824478
0.0001158971195
0.0001159706972
0.000116045242
0.0001161207858
0.0001161973601
0.0001162749974
0.0001163537284
0.0001164335843
0.0001165145959
0.0001165967902
0.0001166801911
0.0001167648146
0.0001168501022
0.0001169353001
0.0001170217703
0.0001171099346
0.0001172019002
0.0001172975888
0.0001173951888
0.0001174944255
0.0001175952918
0.0001176978175
0.0001178020349
0.0001179079769
0.0001180156792
0.0001181251836
0.0001182365398
0.0001183497994
0.0001184649982
0.0001185821634
0.0001187013207
0.0001188225096
0.0001189458352
0.0001190712492
0.0001191986916
0.0001193281378
0.000119459566
0.0001195929555
0.0001197283458
0.0001198657776
0.0001200052828
0.0001201468771
0.000120290559
0.0001204363295
0.0001205832917
0.0001207316035
0.0001208823497
0.000121035652
0.0001211915754
0.0001213501684
0.0001215114757
0.0001216721206
0.0001218347802
0.0001220003503
0.0001221689123
0.0001223403887
0.0001225147904
0.0001226921536
0.0001228725315
0.000123055994
0.0001232426178
0.0001234324609
0.0001236255618
0.0001238219622
0.0001240217976
0.000124225176
0.0001244321333
0.000124642599
0.0001248565267
0.0001250737449
0.0001252891588
0.0001255059827
0.0001257248278
0.0001259463302
0.0001261716401
0.0001264017932
0.0001266375979
0.0001268797681
0.0001271286765
0.0001273845316
0.0001276478156
0.0001279190401
0.0001281948731
0.0001284759747
0.0001287669189
0.0001290689891
0.0001293822047
0.0001297069632
0.0001300436443
0.0001303894813
0.0001307484238
0.0001311147876
0.0001314860804
0.0001318668712
0.0001322637399
0.0001326801223
0.000133119262
0.0001335837516
0.0001340667978
0.0001345774398
0.0001351210493
0.0001357008769
0.000136319987
0.0001369766921
0.0001376693155
0.0001384135497
0.0001392166126
0.0001400802989
0.0001410059087
0.0001420131222
0.0001431146113
0.0001443193068
0.0001456344501
0.0001470866418
0.0001486885407
0.0001504543175
0.000152428646
0.0001546289629
0.000157067947
0.0001598306146
0.0001629583157
0.000166536932
0.000170649505
0.0001754182528
0.0001809910624
0.0001875825516
0.0001953686048
0.0002047033813
0.0002159783033
0.0002298695795
0.0002472951109
0.0002695926325
0.000299389957
0.000339199028
0.0003944206425
0.0004693346487
0.0005693951892
0.0006898078408
0.000812262494
0.0009255650743
0.0009808702941
0.0009503448316
0.0008963523684
0.0008270637
0.0007571694101
0.0006879741132
0.0006245693434
0.0005650987912
0.000528654241
0.0004088557078
0.000303483606
0.0002280852787
0.0001750895152
0.0001372181226
0.0001093415939
8.79554071e-05
7.122423252e-05
5.798363273e-05
4.743432535e-05
3.898880321e-05
3.221569524e-05
2.678043076e-05
2.241536379e-05
1.891140515e-05
1.60989838e-05
1.384283237e-05
1.203430513e-05
1.058532923e-05
9.425566263e-06
8.498003087e-06
7.756775179e-06
7.16503708e-06
6.693047908e-06
6.316937787e-06
6.01752498e-06
5.779394265e-06
5.590191096e-06
5.440010606e-06
5.32092208e-06
5.226584489e-06
5.151932196e-06
5.09291912e-06
5.046319162e-06
5.009561735e-06
4.98059981e-06
4.957806177e-06
4.939887778e-06
4.925818755e-06
4.914785693e-06
4.906144457e-06
4.899385399e-06
4.894105724e-06
4.889987438e-06
4.886779769e-06
4.884285184e-06
4.882348278e-06
4.880846907e-06
4.87968521e-06
4.87878803e-06
4.878096525e-06
4.877564681e-06
4.877156572e-06
4.876844182e-06
4.876605699e-06
4.876424166e-06
4.876286423e-06
4.876182273e-06
4.876103828e-06
4.876045e-06
4.876001102e-06
4.875968527e-06
4.875944513e-06
4.875926944e-06
4.875914208e-06
4.875905079e-06
4.875898626e-06
4.875894151e-06
4.875891123e-06
4.875889151e-06
4.875887945e-06
4.875887695e-06
4.875887695e-06
4.875887695e-06
4.875887695e-06
4.875887695e-06
4.875887695e-06
4.875887695e-06
4.875887695e-06
4.875887695e-06
4.875887695e-06
4.875887695e-06
4.875887695e-06
4.875887695e-06
4.875887695e-06
4.875887703e-06
4.875887797e-06
4.875887887e-06
4.875887973e-06
4.875888055e-06
4.875888131e-06
4.875888201e-06
4.875888265e-06
4.875888313e-06
4.875888348e-06
4.875888374e-06
4.875888395e-06
4.875888409e-06
4.875888417e-06
4.875888421e-06
4.875888424e-06
4.875888425e-06
4.875888426e-06
4.875888426e-06
4.875888425e-06
4.875888422e-06
4.875888419e-06
4.875888417e-06
4.875888417e-06
4.875888415e-06
4.875888414e-06
4.87588841e-06
4.875888408e-06
4.875888408e-06
4.875888407e-06
4.875888403e-06
4.875888397e-06
4.875888394e-06
4.875888393e-06
4.875888391e-06
4.87588839e-06
4.875888388e-06
4.875888385e-06
4.875888384e-06
4.875888383e-06
4.875888383e-06
4.875888382e-06
4.875888379e-06
4.875888377e-06
4.875888375e-06
4.875888373e-06
4.875888369e-06
4.875888365e-06
4.875888364e-06
4.875888363e-06
4.875888363e-06
4.87588836e-06
4.875888358e-06
4.875888356e-06
4.875888354e-06
4.875888351e-06
4.875888348e-06
4.875888347e-06
4.875888347e-06
4.875888346e-06
4.875888346e-06
4.875888343e-06
4.875888341e-06
4.875888341e-06
4.875888339e-06
4.875888336e-06
4.875888334e-06
4.875888333e-06
4.875888332e-06
4.87588833e-06
4.875888327e-06
4.875888323e-06
4.875888321e-06
4.875888316e-06
4.875888313e-06
4.875888308e-06
4.875888304e-06
4.875888302e-06
4.8758883e-06
4.875888298e-06
4.875888295e-06
4.875888293e-06
4.875888291e-06
4.875888289e-06
4.875888287e-06
4.875888285e-06
4.875888284e-06
4.875888281e-06
4.875888279e-06
4.875888276e-06
4.875888274e-06
4.875888272e-06
4.875888269e-06
4.875888267e-06
4.875888264e-06
4.875888262e-06
4.875888259e-06
4.875888258e-06
4.875888257e-06
4.875888257e-06
4.875888255e-06
4.875888254e-06
4.875888251e-06
4.875888247e-06
4.875888244e-06
4.875888242e-06
4.875888238e-06
4.875888235e-06
4.875888232e-06
4.87588823e-06
4.875888227e-06
4.875888223e-06
4.875888221e-06
4.875888217e-06
4.875888212e-06
4.875888208e-06
4.875888205e-06
4.875888203e-06
4.875888199e-06
4.875888194e-06
4.87588819e-06
4.875888186e-06
4.875888182e-06
4.875888178e-06
4.875888175e-06
4.875888174e-06
4.875888172e-06
4.875888169e-06
4.875888165e-06
4.875888162e-06
4.875888159e-06
4.875888157e-06
4.875888154e-06
4.875888149e-06
4.875888143e-06
4.875888138e-06
4.875888132e-06
4.875888126e-06
4.875888122e-06
4.875888118e-06
4.875888113e-06
4.87588811e-06
4.875888107e-06
4.875888103e-06
4.875888096e-06
4.875888091e-06
4.875888084e-06
4.875888078e-06
4.875888073e-06
4.875888067e-06
4.875888061e-06
4.875888055e-06
4.87588805e-06
4.875888046e-06
4.875888042e-06
4.875888036e-06
4.875888031e-06
4.875888023e-06
4.875888015e-06
4.875888009e-06
4.875888003e-06
4.875887998e-06
4.875887995e-06
4.87588799e-06
4.875887983e-06
4.875887976e-06
4.875887968e-06
4.87588796e-06
4.875887954e-06
4.875887946e-06
4.875887938e-06
4.87588793e-06
4.875887922e-06
4.875887914e-06
4.875887906e-06
4.875887899e-06
4.875887892e-06
4.875887885e-06
4.875887878e-06
4.87588787e-06
4.875887862e-06
4.875887854e-06
4.875887846e-06
4.875887839e-06
4.875887831e-06
4.875887824e-06
4.875887817e-06
4.875887808e-06
4.875887801e-06
4.875887791e-06
4.875887781e-06
4.875887773e-06
4.875887763e-06
4.875887754e-06
4.875887744e-06
4.875887736e-06
4.875887727e-06
4.875887717e-06
4.875887707e-06
4.875887698e-06
9.007582921e-05
9.010706701e-05
9.016336195e-05
9.023998656e-05
9.033297336e-05
9.043912178e-05
9.055594621e-05
9.068160932e-05
9.08147049e-05
9.095407489e-05
9.109876097e-05
9.124797701e-05
9.140104184e-05
9.155731812e-05
9.171615627e-05
9.187724511e-05
9.204023447e-05
9.220479364e-05
9.237062721e-05
9.253747106e-05
9.270164483e-05
9.286288296e-05
9.302464584e-05
9.318685256e-05
9.334940783e-05
9.351219443e-05
9.367505879e-05
9.38377958e-05
9.400014002e-05
9.416177221e-05
9.432235161e-05
9.448159488e-05
9.463942347e-05
9.479595274e-05
9.495134932e-05
9.510575221e-05
9.525923858e-05
9.54118249e-05
9.556349482e-05
9.571424356e-05
9.586411549e-05
9.60131885e-05
9.616154803e-05
9.63092543e-05
9.645632057e-05
9.660270636e-05
9.674831941e-05
9.689302186e-05
9.703663951e-05
9.71789758e-05
9.731983404e-05
9.745907389e-05
9.759662457e-05
9.773255687e-05
9.78670237e-05
9.800018469e-05
9.813219465e-05
9.826319414e-05
9.839328182e-05
9.852250951e-05
9.865088822e-05
9.877839886e-05
9.890500371e-05
9.903065327e-05
9.915528001e-05
9.927528391e-05
9.939366014e-05
9.951086017e-05
9.962679939e-05
9.974140343e-05
9.985466478e-05
9.996662216e-05
0.0001000773438
0.0001001869118
0.0001002954097
0.0001004029234
0.0001005095501
0.0001006153753
0.0001007204506
0.0001008247902
0.0001009283749
0.0001010311602
0.0001011330846
0.0001012340789
0.0001013340764
0.0001014330222
0.0001015308811
0.0001016276414
0.0001017233156
0.000101817938
0.0001019115561
0.0001020042239
0.0001020959914
0.0001021868979
0.0001022769694
0.0001023662181
0.0001024546447
0.000102542242
0.0001026289981
0.0001027148979
0.0001027999241
0.0001028840575
0.00010296728
0.0001030495777
0.0001031309449
0.0001032113953
0.0001032909851
0.0001033697769
0.0001034478352
0.0001035252228
0.0001036019989
0.0001036782166
0.0001037539204
0.0001038291433
0.0001039039056
0.0001039782152
0.0001040520689
0.0001041254546
0.0001041983535
0.0001042707426
0.0001043425967
0.000104413891
0.0001044846042
0.0001045547245
0.0001046242551
0.0001046932128
0.0001047616269
0.0001048295477
0.0001048970279
0.0001049641162
0.0001050308578
0.0001050972962
0.0001051634706
0.0001052294152
0.0001052951587
0.0001053607249
0.0001054261334
0.0001054913997
0.0001055565319
0.0001056198253
0.0001056830329
0.0001057462088
0.0001058093868
0.000105872597
0.0001059358689
0.0001059990989
0.0001060621172
0.000106125298
0.0001061886787
0.0001062522958
0.0001063161819
0.000106380351
0.0001064448207
0.0001065096078
0.0001065747275
0.0001066401937
0.0001067060199
0.0001067722205
0.0001068388116
0.0001069058118
0.000106973243
0.0001070411294
0.0001071094969
0.0001071783735
0.0001072477897
0.0001073177787
0.0001073883747
0.0001074596105
0.0001075315173
0.0001076041281
0.0001076774755
0.0001077515938
0.0001078265152
0.0001079022728
0.0001079788999
0.0001080564266
0.0001081348822
0.0001082142933
0.0001082946864
0.0001083761174
0.0001084587465
0.0001085428728
0.0001086289327
0.0001087169497
0.0001088065946
0.0001088976852
0.000108990163
0.0001090840223
0.0001091792779
0.0001092759551
0.0001093740873
0.0001094737181
0.0001095749117
0.0001096777902
0.0001097823607
0.0001098886243
0.0001099965914
0.0001101062578
0.0001102160081
0.0001103267816
0.0001104391968
0.0001105532516
0.0001106689405
0.0001107862622
0.0001109052366
0.0001110258905
0.0001111482637
0.0001112723939
0.000111398317
0.0001115260797
0.0001116557629
0.0001117874895
0.000111921425
0.0001120577982
0.0001121965385
0.000112337606
0.0001124808824
0.0001126259351
0.0001127731578
0.00011292141
0.0001130703809
0.0001132219539
0.0001133762009
0.0001135331796
0.0001136929612
0.0001138556529
0.0001140213851
0.0001141902664
0.0001143623961
0.0001145359809
0.0001147124507
0.0001148925193
0.0001150762728
0.0001152608616
0.0001154477787
0.0001156382869
0.0001158324416
0.00011603
0.0001162310558
0.0001164362318
0.0001166463778
0.0001168623063
0.000117084779
0.0001173111322
0.0001175440726
0.0001177852225
0.0001180350786
0.0001182943213
0.0001185638089
0.0001188443963
0.000119136993
0.0001194368555
0.0001197498788
0.000120077235
0.0001204197795
0.0001207781764
0.0001211532377
0.0001215412243
0.0001219451362
0.0001223687024
0.0001228155959
0.0001232890963
0.0001237890953
0.0001243197232
0.0001248865021
0.000125482661
0.0001261215071
0.0001268054245
0.0001275426552
0.0001283375493
0.0001291931996
0.0001301193051
0.0001311269896
0.0001322240667
0.0001334214783
0.0001347201258
0.000136149057
0.0001377275386
0.0001394773882
0.0001414229776
0.0001435672702
0.0001459558688
0.0001486303896
0.0001516107557
0.0001549740636
0.0001587707883
0.0001630879747
0.0001680084123
0.0001736752444
0.0001802531812
0.0001879337982
0.0001970132462
0.0002077244331
0.0002205916878
0.0002362810128
0.0002557333948
0.0002807222315
0.0003135202572
0.0003565175276
0.0004162444106
0.0004961397227
0.0005999427175
0.0007193027418
0.0008318943877
0.0009244913194
0.0009821570621
0.0009904479276
0.0009621712004
0.0009159547251
0.0008664214138
0.0007920699551
0.000708213642
0.0006356718472
0.0005664157009
0.0005282299918
0.0004494857026
0.0003515482638
0.0002747649136
0.0002153439729
0.0001693612599
0.0001338262199
0.0001068325242
8.604794893e-05
6.962929522e-05
5.660491129e-05
4.621401932e-05
3.791409095e-05
3.12782947e-05
2.596492542e-05
2.171425e-05
1.83120389e-05
1.558961598e-05
1.341335871e-05
1.167321055e-05
1.028357371e-05
9.174423651e-06
8.289645331e-06
7.584652949e-06
7.023251626e-06
6.576600197e-06
6.221593135e-06
5.939651483e-06
5.715953767e-06
5.538631868e-06
5.398197491e-06
5.287082969e-06
5.19925724e-06
5.129906362e-06
5.075200276e-06
5.03209311e-06
4.99816005e-06
4.971478679e-06
4.950521997e-06
4.934080847e-06
4.921197461e-06
4.911114396e-06
4.903232977e-06
4.89708054e-06
4.892284348e-06
4.888550708e-06
4.885648521e-06
4.883396149e-06
4.881650927e-06
4.880301009e-06
4.879258751e-06
4.878455599e-06
4.877837975e-06
4.877364072e-06
4.877001312e-06
4.876724343e-06
4.876513468e-06
4.876353404e-06
4.876232315e-06
4.876141052e-06
4.876072552e-06
4.876021378e-06
4.87598335e-06
4.875955264e-06
4.875934667e-06
4.87591969e-06
4.87590891e-06
4.875901247e-06
4.875895887e-06
4.875892213e-06
4.875889767e-06
4.875888203e-06
4.875887695e-06
4.875887695e-06
4.875887695e-06
4.875887695e-06
4.875887695e-06
4.875887695e-06
4.875887695e-06
4.875887695e-06
4.875887695e-06
4.875887695e-06
4.875887695e-06
4.875887695e-06
4.875887695e-06
4.875887695e-06
4.875887695e-06
4.875887723e-06
4.875887823e-06
4.875887915e-06
4.875887997e-06
4.875888069e-06
4.875888131e-06
4.875888183e-06
4.875888225e-06
4.875888257e-06
4.875888282e-06
4.875888301e-06
4.875888315e-06
4.875888324e-06
4.87588833e-06
4.875888334e-06
4.875888337e-06
4.875888339e-06
4.87588834e-06
4.87588834e-06
4.875888339e-06
4.875888338e-06
4.875888337e-06
4.875888337e-06
4.875888336e-06
4.875888335e-06
4.875888333e-06
4.875888331e-06
4.87588833e-06
4.875888328e-06
4.875888326e-06
4.875888322e-06
4.87588832e-06
4.875888318e-06
4.875888317e-06
4.875888316e-06
4.875888315e-06
4.875888312e-06
4.875888311e-06
4.87588831e-06
4.875888309e-06
4.875888308e-06
4.875888306e-06
4.875888304e-06
4.875888302e-06
4.875888299e-06
4.875888296e-06
4.875888293e-06
4.875888292e-06
4.875888291e-06
4.87588829e-06
4.875888288e-06
4.875888287e-06
4.875888284e-06
4.875888283e-06
4.87588828e-06
4.875888279e-06
4.875888277e-06
4.875888276e-06
4.875888276e-06
4.875888275e-06
4.875888273e-06
4.875888271e-06
4.875888269e-06
4.875888268e-06
4.875888266e-06
4.875888265e-06
4.875888264e-06
4.875888262e-06
4.87588826e-06
4.875888257e-06
4.875888254e-06
4.875888252e-06
4.875888249e-06
4.875888246e-06
4.875888243e-06
4.875888239e-06
4.875888237e-06
4.875888235e-06
4.875888233e-06
4.87588823e-06
4.875888229e-06
4.875888226e-06
4.875888225e-06
4.875888224e-06
4.875888222e-06
4.87588822e-06
4.875888219e-06
4.875888216e-06
4.875888214e-06
4.875888211e-06
4.875888209e-06
4.875888206e-06
4.875888204e-06
4.875888202e-06
4.8758882e-06
4.875888198e-06
4.875888198e-06
4.875888197e-06
4.875888196e-06
4.875888194e-06
4.875888193e-06
4.87588819e-06
4.875888187e-06
4.875888185e-06
4.875888182e-06
4.875888179e-06
4.875888177e-06
4.875888173e-06
4.87588817e-06
4.875888168e-06
4.875888165e-06
4.875888162e-06
4.87588816e-06
4.875888156e-06
4.875888153e-06
4.87588815e-06
4.875888147e-06
4.875888143e-06
4.87588814e-06
4.875888136e-06
4.875888132e-06
4.87588813e-06
4.875888127e-06
4.875888124e-06
4.875888123e-06
4.875888121e-06
4.875888118e-06
4.875888115e-06
4.875888111e-06
4.875888107e-06
4.875888105e-06
4.875888102e-06
4.875888098e-06
4.875888091e-06
4.875888087e-06
4.875888081e-06
4.875888077e-06
4.875888074e-06
4.87588807e-06
4.875888065e-06
4.875888062e-06
4.87588806e-06
4.875888056e-06
4.875888051e-06
4.875888046e-06
4.87588804e-06
4.875888034e-06
4.875888031e-06
4.875888026e-06
4.87588802e-06
4.875888014e-06
4.875888011e-06
4.875888006e-06
4.875888001e-06
4.875887997e-06
4.875887992e-06
4.875887985e-06
4.875887978e-06
4.875887971e-06
4.875887966e-06
4.875887961e-06
4.875887957e-06
4.875887951e-06
4.875887946e-06
4.87588794e-06
4.875887934e-06
4.875887926e-06
4.875887919e-06
4.875887912e-06
4.875887905e-06
4.875887899e-06
4.875887892e-06
4.875887885e-06
4.875887878e-06
4.875887872e-06
4.875887865e-06
4.875887857e-06
4.87588785e-06
4.875887844e-06
4.875887838e-06
4.875887829e-06
4.875887822e-06
4.875887815e-06
4.875887808e-06
4.875887802e-06
4.875887795e-06
4.875887787e-06
4.87588778e-06
4.875887772e-06
4.875887764e-06
4.875887757e-06
4.875887748e-06
4.875887741e-06
4.875887733e-06
4.875887725e-06
4.875887718e-06
4.875887711e-06
4.875887703e-06
4.875887697e-06
7.903857253e-05
7.907797678e-05
7.91490925e-05
7.924593583e-05
7.936326162e-05
7.949666331e-05
7.964275462e-05
7.979933008e-05
7.996473257e-05
8.01375469e-05
8.031661026e-05
8.050105151e-05
8.069010966e-05
8.088291667e-05
8.107074251e-05
8.126116229e-05
8.145374529e-05
8.164810389e-05
8.184390873e-05
8.20408911e-05
8.223885041e-05
8.243763721e-05
8.263714102e-05
8.283728288e-05
8.303798434e-05
8.323914393e-05
8.344061058e-05
8.364215224e-05
8.384342849e-05
8.404398049e-05
8.424324603e-05
8.444057895e-05
8.463587796e-05