/*--------------------------------*- C++ -*----------------------------------*\
| =========                 |                                                 |
| \\      /  F ield         | OpenFOAM: The Open Source CFD Toolbox           |
|  \\    /   O peration     | Version:  v2006                                 |
|   \\  /    A nd           | Website:  www.openfoam.com                      |
|    \\/     M anipulation  |                                                 |
\*---------------------------------------------------------------------------*/
FoamFile
{
    version     2.0;
    format      ascii;
    class       volScalarField;
    location    "0.09";
    object      H2O;
}
// * * * * * * * * * * * * * * * * * * * * * * * * * * * * * * * * * * * * * //

dimensions      [0 0 0 0 0 0 0];


internalField   nonuniform List<scalar> 
72000
(
0.110357849
0.110357985
0.1103582421
0.1103586088
0.1103590733
0.1103596244
0.1103602517
0.1103609455
0.1103616973
0.1103624994
0.1103633444
0.1103642255
0.1103651376
0.1103660766
0.1103670386
0.11036802
0.1103690174
0.1103700278
0.1103710486
0.1103720777
0.110373113
0.1103741529
0.110375196
0.1103762409
0.1103772863
0.1103783311
0.1103793738
0.1103804131
0.1103814474
0.1103824752
0.1103834952
0.1103845061
0.1103855075
0.1103864991
0.1103874811
0.1103884537
0.1103894168
0.1103903706
0.1103913148
0.1103922495
0.110393175
0.1103940915
0.1103949996
0.1103958997
0.110396792
0.1103976764
0.1103985527
0.1103994205
0.1104002792
0.1104011279
0.1104019661
0.1104027933
0.1104036096
0.110404415
0.1104052096
0.1104059909
0.1104066536
0.1104073086
0.1104079566
0.1104085981
0.1104092332
0.1104098621
0.1104104847
0.110411101
0.1104117108
0.110412314
0.1104129105
0.1104135002
0.1104140829
0.1104146586
0.1104152274
0.1104157894
0.1104163449
0.1104168944
0.1104174383
0.110417977
0.1104185111
0.1104190408
0.1104195664
0.1104200881
0.1104206059
0.1104211196
0.1104216292
0.1104221344
0.1104226351
0.1104231312
0.1104236227
0.1104241095
0.110424592
0.1104250703
0.1104255447
0.1104260154
0.1104264827
0.110426947
0.1104274083
0.1104278668
0.1104283227
0.1104287759
0.1104292266
0.1104296748
0.1104301206
0.110430564
0.1104310051
0.1104314441
0.1104318811
0.1104323164
0.1104327501
0.1104331827
0.1104336145
0.1104340458
0.110434477
0.1104349085
0.1104353406
0.1104357736
0.1104362076
0.1104366429
0.1104370796
0.1104375177
0.1104379574
0.1104383987
0.1104388415
0.1104392858
0.1104397315
0.1104401782
0.110440626
0.1104410749
0.1104415247
0.1104419765
0.110442431
0.1104428888
0.1104433501
0.1104438155
0.1104442852
0.1104447595
0.1104452388
0.1104457232
0.110446213
0.1104467086
0.11044721
0.1104477176
0.1104482316
0.1104487524
0.11044928
0.1104498148
0.110450322
0.1104507965
0.1104512781
0.1104517671
0.110452264
0.110452769
0.1104532823
0.1104538043
0.1104543351
0.1104548749
0.1104554239
0.1104559824
0.1104565506
0.1104571285
0.1104577165
0.1104583148
0.1104589235
0.110459543
0.1104601734
0.110460815
0.1104614681
0.1104621329
0.1104628097
0.1104634987
0.1104642003
0.1104649146
0.110465642
0.1104663828
0.1104671372
0.1104679055
0.1104686879
0.1104694848
0.1104702962
0.1104711224
0.1104719634
0.1104728185
0.1104736856
0.1104745585
0.1104753856
0.1104761704
0.1104769593
0.1104777584
0.1104785695
0.1104793934
0.1104802304
0.1104810805
0.110481944
0.1104828209
0.1104837116
0.110484616
0.1104855343
0.1104864667
0.110487413
0.1104883735
0.110489348
0.1104903365
0.1104913386
0.1104923539
0.1104933821
0.1104942826
0.1104951793
0.110496087
0.1104970056
0.1104979351
0.1104988749
0.1104998246
0.1105007847
0.1105017558
0.1105027384
0.1105037328
0.1105047392
0.1105057582
0.1105067908
0.1105078412
0.1105089066
0.1105099851
0.1105110759
0.1105121787
0.1105132931
0.1105144188
0.1105155556
0.1105167034
0.1105178618
0.1105190307
0.1105202093
0.1105213971
0.1105225946
0.1105238018
0.1105250183
0.1105262432
0.1105274754
0.1105287129
0.1105299518
0.1105311817
0.1105320484
0.1105328204
0.1105335869
0.1105343531
0.1105351212
0.1105358921
0.1105366655
0.1105374405
0.110538218
0.1105389983
0.1105397809
0.1105405664
0.1105413558
0.1105421495
0.1105429472
0.1105437483
0.1105445521
0.1105453585
0.1105461679
0.1105469842
0.1105477297
0.1105483977
0.1105490666
0.1105497365
0.1105504093
0.110551087
0.1105517734
0.1105524667
0.1105531659
0.110553871
0.1105544362
0.1105548652
0.1105550717
0.1105552491
0.1105553994
0.1105555191
0.1105556052
0.1105556493
0.110555645
0.1105554833
0.1105550631
0.1105545582
0.1105539542
0.1105532381
0.1105518679
0.1105499592
0.1105477391
0.1105452278
0.1105423716
0.1105384959
0.1105324115
0.1105252848
0.1105165713
0.1105036559
0.1104880268
0.1104662143
0.1104368229
0.1103970684
0.1103424673
0.1102656261
0.1101556723
0.1099963291
0.1097641723
0.1094333719
0.1089694747
0.1083832604
0.1075313601
0.1043312265
0.05485400066
0.03147892898
0.01896771171
0.01244149411
0.008474677152
0.005895952634
0.004101266373
0.002890342862
0.002156488268
0.001589258951
0.001093900599
0.0007649440888
0.0005626090377
0.0004314481903
0.0003380489047
0.0002680313701
0.000213876064
0.0001712395481
0.0001373267263
0.0001101928571
8.841995713e-05
7.092604023e-05
5.686141799e-05
4.555510997e-05
3.646875551e-05
2.917048751e-05
2.3312606e-05
1.861424239e-05
1.484923442e-05
1.183480405e-05
9.423524469e-06
7.496582204e-06
5.958158173e-06
4.73112867e-06
3.75344252e-06
2.975206195e-06
2.356356669e-06
1.864749042e-06
1.474619214e-06
1.165341289e-06
9.204188723e-07
7.266678344e-07
5.735639077e-07
4.527136777e-07
3.574293427e-07
2.82388604e-07
2.233596877e-07
1.769819492e-07
1.405889398e-07
1.120674159e-07
8.974421741e-08
7.22960575e-08
5.867751667e-08
4.806360447e-08
3.98040567e-08
3.338691624e-08
2.840957773e-08
2.455582936e-08
2.157761546e-08
1.928059949e-08
1.751272413e-08
1.615517749e-08
1.511526797e-08
1.432077519e-08
1.371552009e-08
1.325587576e-08
1.290801129e-08
1.264575218e-08
1.244887325e-08
1.230178793e-08
1.219250352e-08
1.211182555e-08
1.205270589e-08
1.200977114e-08
1.197893692e-08
1.195708922e-08
1.19418899e-08
1.19315839e-08
1.192486838e-08
1.192080929e-08
1.191889032e-08
1.191889032e-08
1.191889032e-08
1.191889032e-08
1.191889032e-08
1.191889032e-08
1.191889032e-08
1.191889032e-08
1.191889032e-08
1.191889032e-08
1.191889032e-08
1.191889032e-08
1.191889032e-08
1.191889032e-08
1.19190434e-08
1.191931531e-08
1.191959976e-08
1.191988012e-08
1.192015707e-08
1.192043375e-08
1.192073423e-08
1.192101871e-08
1.19212268e-08
1.192137284e-08
1.192148015e-08
1.192155964e-08
1.192160821e-08
1.192163892e-08
1.192165013e-08
1.192166195e-08
1.192166057e-08
1.192166228e-08
1.192165163e-08
1.192164169e-08
1.19216285e-08
1.192161666e-08
1.192160795e-08
1.192160337e-08
1.192160024e-08
1.192158715e-08
1.192157396e-08
1.192156553e-08
1.192156247e-08
1.192156075e-08
1.192154628e-08
1.192152258e-08
1.192150818e-08
1.192150038e-08
1.192149435e-08
1.192148995e-08
1.192148699e-08
1.192147414e-08
1.19214676e-08
1.19214638e-08
1.192146351e-08
1.192146394e-08
1.192145133e-08
1.192144308e-08
1.192143943e-08
1.192142584e-08
1.192141518e-08
1.192139905e-08
1.192139323e-08
1.192139175e-08
1.192139226e-08
1.192137967e-08
1.192137221e-08
1.192136397e-08
1.192135858e-08
1.192134356e-08
1.192133363e-08
1.192132847e-08
1.192132947e-08
1.192133473e-08
1.192133008e-08
1.192131501e-08
1.192131122e-08
1.192131429e-08
1.192130703e-08
1.19212911e-08
1.192128271e-08
1.192127866e-08
1.192127831e-08
1.192126444e-08
1.192125225e-08
1.192124205e-08
1.192123771e-08
1.192122457e-08
1.192120794e-08
1.192118477e-08
1.19211651e-08
1.192115884e-08
1.192115455e-08
1.192114988e-08
1.192113576e-08
1.192112696e-08
1.192112095e-08
1.192111954e-08
1.192110729e-08
1.192109818e-08
1.192109064e-08
1.192108327e-08
1.192107998e-08
1.19210655e-08
1.192105639e-08
1.192105299e-08
1.192104161e-08
1.192103636e-08
1.192101993e-08
1.192100931e-08
1.192100082e-08
1.192099617e-08
1.192099354e-08
1.19209934e-08
1.192099299e-08
1.192098109e-08
1.192096794e-08
1.192095412e-08
1.192094258e-08
1.192093329e-08
1.192092277e-08
1.192091505e-08
1.19208992e-08
1.192089217e-08
1.192088798e-08
1.192087308e-08
1.192086606e-08
1.192085114e-08
1.192082789e-08
1.192081091e-08
1.192079802e-08
1.192078919e-08
1.192078098e-08
1.192076106e-08
1.192074728e-08
1.192072626e-08
1.192071072e-08
1.192069665e-08
1.192068718e-08
1.192068138e-08
1.192067792e-08
1.192066504e-08
1.192065633e-08
1.192063941e-08
1.192063044e-08
1.192062993e-08
1.192061965e-08
1.192060038e-08
1.192057292e-08
1.192055762e-08
1.192053698e-08
1.192050961e-08
1.192049215e-08
1.192048227e-08
1.192046296e-08
1.192045139e-08
1.192044643e-08
1.192042993e-08
1.192040244e-08
1.192038523e-08
1.192036191e-08
1.192033246e-08
1.192030759e-08
1.192028628e-08
1.192026494e-08
1.192024553e-08
1.19202292e-08
1.192021278e-08
1.192019705e-08
1.192018022e-08
1.19201633e-08
1.192013029e-08
1.192010094e-08
1.192007919e-08
1.192006356e-08
1.192004126e-08
1.192002758e-08
1.192001488e-08
1.191998839e-08
1.191996432e-08
1.191993151e-08
1.191990519e-08
1.191988657e-08
1.191986037e-08
1.191982895e-08
1.191979141e-08
1.191975962e-08
1.191973093e-08
1.191970479e-08
1.191968075e-08
1.191965983e-08
1.191962833e-08
1.191960037e-08
1.191957333e-08
1.191954918e-08
1.191951485e-08
1.191948553e-08
1.191946224e-08
1.191943049e-08
1.191940335e-08
1.191937545e-08
1.191934737e-08
1.191932218e-08
1.191928524e-08
1.191925414e-08
1.19192194e-08
1.191917796e-08
1.191914574e-08
1.19191052e-08
1.191907181e-08
1.191903974e-08
1.191899592e-08
1.191895159e-08
1.191891015e-08
0.1101516283
0.1101519561
0.110152544
0.1101533463
0.1101543244
0.110155448
0.1101566929
0.1101580396
0.1101594728
0.1101609795
0.1101625485
0.1101641704
0.1101658371
0.1101675417
0.1101692778
0.1101710406
0.1101728258
0.1101746295
0.110176448
0.1101782782
0.1101801172
0.1101819632
0.1101838146
0.1101856703
0.1101875286
0.1101893881
0.1101912466
0.1101931018
0.1101949508
0.1101967905
0.1101986177
0.1102004302
0.1102022271
0.1102040088
0.1102057764
0.110207531
0.1102092732
0.1102110033
0.1102127214
0.1102144276
0.1102161224
0.1102178066
0.1102194808
0.1102211456
0.1102228011
0.110224447
0.1102260822
0.1102277055
0.1102293152
0.1102309091
0.1102323676
0.1102337005
0.110235017
0.1102363177
0.1102376034
0.1102388754
0.1102401345
0.1102413825
0.1102426203
0.1102438488
0.110245068
0.1102462781
0.1102474786
0.1102486692
0.1102498494
0.1102510183
0.1102521756
0.110253321
0.1102544539
0.1102555739
0.110256681
0.1102577754
0.1102588579
0.1102599291
0.1102609898
0.1102620409
0.1102630832
0.1102641174
0.110265144
0.1102661631
0.1102671746
0.1102681781
0.1102691732
0.1102701594
0.1102711361
0.1102721029
0.1102730596
0.1102740061
0.1102749425
0.1102758692
0.1102767866
0.1102776951
0.1102785953
0.1102794874
0.1102803718
0.1102812486
0.1102821179
0.1102829796
0.1102838338
0.1102846802
0.1102855188
0.1102863496
0.1102871723
0.110287987
0.1102887937
0.1102895927
0.1102903844
0.1102911694
0.1102919483
0.1102927218
0.1102934903
0.1102942545
0.1102950147
0.1102957713
0.1102965246
0.1102972746
0.1102980214
0.1102987649
0.110299505
0.1103002416
0.1103009743
0.110301703
0.1103024272
0.1103030832
0.1103036919
0.110304297
0.1103048988
0.1103054978
0.1103060947
0.11030669
0.1103072842
0.1103078776
0.1103084705
0.1103090634
0.1103096565
0.1103102501
0.1103108442
0.1103114392
0.1103120351
0.1103126321
0.1103132305
0.1103138306
0.1103144327
0.110315037
0.1103156436
0.1103162527
0.1103168649
0.1103174806
0.1103181003
0.1103187243
0.1103193528
0.1103199861
0.1103206244
0.1103212678
0.1103219165
0.1103225706
0.1103232302
0.1103238956
0.1103245668
0.1103252441
0.1103259277
0.1103266176
0.1103273143
0.1103280178
0.1103287285
0.1103294467
0.1103301726
0.1103309064
0.1103316485
0.1103323991
0.1103331585
0.110333927
0.1103347047
0.110335492
0.110336289
0.110337096
0.1103379132
0.1103387406
0.1103395653
0.1103403697
0.110341184
0.1103420124
0.1103428765
0.1103437752
0.1103446899
0.1103456174
0.1103465578
0.1103475111
0.1103484775
0.1103494574
0.1103504508
0.1103514581
0.1103524795
0.1103535156
0.1103545663
0.1103556319
0.1103567125
0.1103578081
0.1103589198
0.1103600467
0.1103611881
0.1103623435
0.1103635124
0.1103646944
0.1103658897
0.1103670983
0.1103683205
0.110369556
0.1103708046
0.110372066
0.1103732605
0.1103743916
0.1103755368
0.1103766967
0.1103778717
0.1103790618
0.1103802671
0.110381382
0.1103824875
0.1103836068
0.1103847404
0.110385887
0.1103870464
0.1103882184
0.1103894031
0.1103906004
0.1103918107
0.1103930337
0.1103942693
0.1103955172
0.1103967779
0.1103980515
0.1103993378
0.1104006357
0.110401944
0.1104032603
0.110404422
0.1104055505
0.1104066688
0.1104077811
0.1104088961
0.1104100209
0.1104111607
0.1104123202
0.1104135006
0.1104147018
0.1104159256
0.1104171739
0.1104183602
0.1104194869
0.1104206422
0.1104218331
0.1104230567
0.110424313
0.1104255919
0.1104266235
0.1104276762
0.1104286404
0.110429518
0.1104303774
0.1104312515
0.1104321534
0.1104330943
0.1104340798
0.1104348669
0.1104356406
0.110436472
0.1104373672
0.110438328
0.1104391899
0.1104398355
0.1104405668
0.110441401
0.1104415591
0.1104409956
0.1104404037
0.1104398106
0.1104390543
0.1104378291
0.1104365125
0.1104333652
0.1104293885
0.1104249791
0.1104197577
0.1104115862
0.1104022622
0.1103896394
0.1103733222
0.1103512078
0.1103231662
0.1102849396
0.1102340748
0.1101670632
0.1100752815
0.1099536183
0.109785971
0.1095534103
0.1092276189
0.1087542372
0.108069872
0.1070257249
0.1053653776
0.1023650481
0.09678435977
0.08742515137
0.07170810798
0.04392067228
0.02823465046
0.01853889638
0.01242941768
0.008474735736
0.005854748028
0.004081574406
0.002863972772
0.002111450984
0.001513238749
0.001081859653
0.0007853999755
0.0005810698924
0.0004427033742
0.0003494549788
0.0002779171045
0.0002219504811
0.0001776600065
0.0001423720409
0.000114121343
9.146495504e-05
7.328372101e-05
5.86823517e-05
4.696143319e-05
3.755374181e-05
3.00068014e-05
2.395718652e-05
1.911028901e-05
1.523082333e-05
1.212807769e-05
9.648632928e-06
7.669239121e-06
6.09041152e-06
4.83230418e-06
3.830753229e-06
3.034193968e-06
2.40129982e-06
1.898938501e-06
1.50058137e-06
1.185017368e-06
9.353016793e-07
7.378999597e-07
5.820207505e-07
4.590652998e-07
3.621861995e-07
2.859403468e-07
2.260023967e-07
1.789408069e-07
1.420346558e-07
1.131292851e-07
9.05198955e-08
7.285911555e-08
5.908324393e-08
4.835342665e-08
4.000891487e-08
3.352986626e-08
2.850770578e-08
2.462176958e-08
2.162065869e-08
1.930753841e-08
1.752849406e-08
1.616334938e-08
1.511838807e-08
1.432064886e-08
1.371341239e-08
1.325265565e-08
1.290426743e-08
1.264186507e-08
1.244508443e-08
1.229824371e-08
1.218927744e-08
1.210894887e-08
1.205018024e-08
1.200757651e-08
1.19770401e-08
1.19554563e-08
1.194048598e-08
1.193035735e-08
1.192376177e-08
1.191972617e-08
1.191889032e-08
1.191889032e-08
1.191889032e-08
1.191889032e-08
1.191889032e-08
1.191889032e-08
1.191889032e-08
1.191889032e-08
1.191889032e-08
1.191889032e-08
1.191889032e-08
1.191889032e-08
1.191889032e-08
1.191889032e-08
1.191891776e-08
1.19192327e-08
1.191953322e-08
1.19198219e-08
1.192009522e-08
1.192034821e-08
1.19205843e-08
1.192082712e-08
1.192100337e-08
1.192113394e-08
1.192122682e-08
1.19213009e-08
1.192134916e-08
1.19213776e-08
1.192139206e-08
1.19214026e-08
1.19214047e-08
1.192140654e-08
1.192140453e-08
1.192140133e-08
1.19213899e-08
1.192138011e-08
1.192137186e-08
1.19213697e-08
1.192136401e-08
1.192135989e-08
1.192134636e-08
1.19213389e-08
1.192133713e-08
1.192133371e-08
1.192131929e-08
1.192130049e-08
1.192128943e-08
1.1921285e-08
1.192127906e-08
1.192127425e-08
1.192126711e-08
1.192125805e-08
1.192125507e-08
1.192125086e-08
1.192125035e-08
1.192124837e-08
1.19212384e-08
1.192123026e-08
1.192122425e-08
1.192121595e-08
1.192120062e-08
1.192118783e-08
1.192118512e-08
1.192118275e-08
1.19211827e-08
1.192117108e-08
1.192116503e-08
1.192115932e-08
1.192114999e-08
1.192114e-08
1.192113197e-08
1.192112588e-08
1.192112581e-08
1.192112601e-08
1.192112438e-08
1.192111272e-08
1.192110765e-08
1.192110755e-08
1.19211006e-08
1.192108924e-08
1.192108282e-08
1.192107909e-08
1.192107718e-08
1.192106827e-08
1.192105749e-08
1.192104467e-08
1.192103718e-08
1.192102022e-08
1.192100873e-08
1.192099371e-08
1.192097942e-08
1.19209729e-08
1.19209685e-08
1.192095773e-08
1.192094833e-08
1.192094131e-08
1.192093436e-08
1.19209301e-08
1.192092202e-08
1.192091564e-08
1.192091021e-08
1.192089995e-08
1.192089436e-08
1.192088389e-08
1.192087517e-08
1.192086818e-08
1.192085964e-08
1.192085416e-08
1.192084176e-08
1.192083545e-08
1.192082649e-08
1.192082259e-08
1.192082004e-08
1.192081938e-08
1.192081275e-08
1.192080846e-08
1.192079762e-08
1.19207834e-08
1.192077357e-08
1.192076604e-08
1.192075496e-08
1.192074183e-08
1.192073062e-08
1.192072409e-08
1.192071694e-08
1.192070287e-08
1.192069374e-08
1.192068047e-08
1.192066471e-08
1.192065086e-08
1.192063931e-08
1.192063228e-08
1.19206197e-08
1.192060234e-08
1.192058726e-08
1.192057261e-08
1.192056219e-08
1.192054769e-08
1.192053771e-08
1.192053217e-08
1.1920525e-08
1.192051477e-08
1.192050362e-08
1.192049047e-08
1.192048049e-08
1.192047695e-08
1.192046616e-08
1.192044878e-08
1.192042449e-08
1.192040842e-08
1.192039061e-08
1.192036873e-08
1.192035378e-08
1.192034225e-08
1.192032455e-08
1.19203136e-08
1.192030702e-08
1.192029105e-08
1.192026565e-08
1.192024758e-08
1.192022666e-08
1.192020544e-08
1.192018795e-08
1.192016676e-08
1.192014592e-08
1.192012677e-08
1.192011122e-08
1.192009608e-08
1.192008237e-08
1.192006372e-08
1.192004642e-08
1.192001778e-08
1.191999071e-08
1.191996773e-08
1.19199498e-08
1.191993052e-08
1.191992116e-08
1.191990467e-08
1.191988261e-08
1.191985589e-08
1.191982906e-08
1.191980336e-08
1.191978177e-08
1.191975474e-08
1.191972722e-08
1.19196987e-08
1.19196714e-08
1.191964464e-08
1.191961965e-08
1.191959623e-08
1.191957202e-08
1.191954598e-08
1.191952263e-08
1.191949511e-08
1.191946909e-08
1.191943944e-08
1.191941246e-08
1.191938743e-08
1.191936156e-08
1.19193398e-08
1.191931415e-08
1.19192846e-08
1.191925911e-08
1.191922498e-08
1.191919127e-08
1.191916149e-08
1.191912611e-08
1.191909692e-08
1.19190624e-08
1.191903469e-08
1.191900502e-08
1.191897056e-08
1.191893274e-08
1.191890192e-08
0.1099381677
0.1099387577
0.1099398197
0.1099412633
0.1099430129
0.1099450078
0.109947201
0.1099495578
0.1099520519
0.1099546616
0.1099573692
0.1099601598
0.109963021
0.1099659409
0.1099689071
0.1099719142
0.1099749559
0.1099780261
0.1099811194
0.109984231
0.10998712
0.1099897759
0.1099924401
0.1099951113
0.1099977881
0.1100004684
0.11000315
0.1100058292
0.110008502
0.1100111628
0.1100138062
0.1100164274
0.1100190251
0.1100216014
0.1100241591
0.1100267005
0.110029227
0.1100317389
0.110034236
0.1100367182
0.1100391865
0.1100416419
0.1100440861
0.1100465198
0.1100489433
0.110051356
0.1100537562
0.1100561417
0.1100585096
0.1100608566
0.1100631793
0.1100654754
0.1100677437
0.1100699853
0.1100722029
0.1100743993
0.1100765769
0.1100787382
0.1100808847
0.1100830174
0.1100851364
0.1100872415
0.1100893319
0.1100914069
0.1100934654
0.1100952357
0.1100969507
0.1100986489
0.1101003288
0.1101019896
0.1101036309
0.1101052535
0.1101068583
0.1101084464
0.1101100191
0.1101115776
0.1101131233
0.1101146574
0.1101161807
0.1101176933
0.1101191951
0.1101206852
0.1101221629
0.1101236271
0.1101250768
0.1101265111
0.1101279297
0.1101293321
0.1101307187
0.1101320899
0.1101334463
0.1101347888
0.1101361179
0.1101374344
0.1101387384
0.1101400303
0.11014131
0.1101425772
0.110143832
0.1101450739
0.1101463028
0.1101475183
0.11014872
0.1101499078
0.1101510815
0.1101522413
0.1101533879
0.1101545224
0.1101556455
0.1101567581
0.1101578612
0.1101589554
0.1101600414
0.1101611195
0.11016219
0.110163253
0.1101643085
0.1101653561
0.1101663956
0.1101674266
0.1101684486
0.1101694614
0.1101704644
0.1101714575
0.1101724406
0.1101734141
0.1101743782
0.1101753338
0.1101762814
0.1101772218
0.1101781556
0.1101790833
0.1101800055
0.1101809226
0.110181835
0.110182743
0.1101836467
0.1101845463
0.110185442
0.1101862104
0.1101869752
0.1101877379
0.1101884989
0.1101892584
0.1101900168
0.1101907714
0.1101915179
0.1101922641
0.1101930105
0.1101937575
0.1101945054
0.1101952543
0.1101960044
0.1101967558
0.1101975087
0.110198263
0.110199019
0.1101997767
0.1102005363
0.1102012978
0.1102020615
0.1102028277
0.1102035964
0.110204368
0.1102051428
0.1102059211
0.1102067033
0.1102074895
0.1102082802
0.1102090756
0.1102098761
0.1102106818
0.1102114931
0.1102123104
0.1102131337
0.1102139635
0.1102147999
0.1102156431
0.1102164933
0.110217351
0.1102182179
0.1102190976
0.1102199952
0.1102209107
0.1102218399
0.1102227806
0.1102237317
0.1102246931
0.1102256648
0.1102266467
0.1102276392
0.1102286426
0.1102296574
0.1102306848
0.1102317247
0.1102327769
0.1102338411
0.1102349171
0.1102359439
0.1102369572
0.1102379802
0.1102390125
0.1102400538
0.1102411037
0.110242162
0.1102432288
0.1102443042
0.1102453883
0.1102464811
0.1102475829
0.1102486942
0.1102498159
0.1102509497
0.1102520979
0.1102532592
0.1102544325
0.1102556159
0.110256804
0.1102580006
0.1102591376
0.1102601937
0.1102612586
0.1102623326
0.1102634158
0.1102645082
0.1102656103
0.1102667232
0.1102678468
0.1102689813
0.1102699821
0.1102709483
0.1102719245
0.1102729106
0.1102737854
0.1102746078
0.1102754292
0.1102762487
0.1102770625
0.1102778699
0.1102786755
0.1102794857
0.1102803064
0.1102811426
0.1102818943
0.1102826178
0.110283358
0.1102841162
0.1102848946
0.1102856967
0.1102865258
0.110287386
0.1102880572
0.1102887504
0.1102894789
0.1102902443
0.1102910469
0.1102918865
0.110292476
0.1102929973
0.1102935669
0.1102942083
0.1102949395
0.1102954542
0.1102958388
0.1102963046
0.1102961995
0.1102960493
0.1102956351
0.1102952575
0.1102949128
0.1102943474
0.110293631
0.1102929709
0.1102921624
0.110291052
0.1102885725
0.1102854476
0.1102818177
0.1102779811
0.1102725117
0.1102644054
0.1102548045
0.1102443469
0.1102288408
0.1102112291
0.1101879451
0.1101600578
0.1101231508
0.1100766238
0.110017211
0.1099406827
0.1098411139
0.1097131952
0.1095461302
0.109324835
0.1090303249
0.1086293063
0.1080721363
0.1073035055
0.106149611
0.1043664711
0.1012936658
0.09588360135
0.08737779486
0.07534808716
0.05977219829
0.04224730714
0.03000738649
0.02137712824
0.01580697291
0.01129114735
0.007946833858
0.005605066411
0.003902882914
0.002815174942
0.002055421845
0.001492944783
0.001093449094
0.000805471532
0.000596424385
0.000442779375
0.0003410620141
0.0002715365606
0.0002166153353
0.0001730481137
0.0001382900556
0.0001105263763
8.832930291e-05
7.055581448e-05
5.633709065e-05
4.495652283e-05
3.584988075e-05
2.857019035e-05
2.274930691e-05
1.810090156e-05
1.439073862e-05
1.143111048e-05
9.072875383e-06
7.194959621e-06
5.700888048e-06
4.513371509e-06
3.570262453e-06
2.8219823e-06
2.2288316e-06
1.759071521e-06
1.387387835e-06
1.09360634e-06
8.616241533e-07
6.786295327e-07
5.344338871e-07
4.209260889e-07
3.316755557e-07
2.61574397e-07
2.065779204e-07
1.634823456e-07
1.297539816e-07
1.033902393e-07
8.281002634e-08
6.676652261e-08
5.427730689e-08
4.456934642e-08
3.703504748e-08
3.119719205e-08
2.66816477e-08
2.319524393e-08
2.050866009e-08
1.844267417e-08
1.685744692e-08
1.564399703e-08
1.471752078e-08
1.401213294e-08
1.347670902e-08
1.307166056e-08
1.276638216e-08
1.253724543e-08
1.236606534e-08
1.223886059e-08
1.214491148e-08
1.20760129e-08
1.202591403e-08
1.198985395e-08
1.1964222e-08
1.194629313e-08
1.193400435e-08
1.192582251e-08
1.192058959e-08
1.191889032e-08
1.191889032e-08
1.191889032e-08
1.191889032e-08
1.191889032e-08
1.191889032e-08
1.191889032e-08
1.191889032e-08
1.191889032e-08
1.191889032e-08
1.191889032e-08
1.191889032e-08
1.191889032e-08
1.191889032e-08
1.191889032e-08
1.191898416e-08
1.191931968e-08
1.191962639e-08
1.191989914e-08
1.192014012e-08
1.192034744e-08
1.192052202e-08
1.192069594e-08
1.192083468e-08
1.192093556e-08
1.192101323e-08
1.192107076e-08
1.192110507e-08
1.19211262e-08
1.19211419e-08
1.192115219e-08
1.192115795e-08
1.192116166e-08
1.192116089e-08
1.192115363e-08
1.192114843e-08
1.192114477e-08
1.192114286e-08
1.192114001e-08
1.192113666e-08
1.192112702e-08
1.192112063e-08
1.192111624e-08
1.192110805e-08
1.192109868e-08
1.192108705e-08
1.192107922e-08
1.192107377e-08
1.192106688e-08
1.192106334e-08
1.192106078e-08
1.192105142e-08
1.192104607e-08
1.192104281e-08
1.192104155e-08
1.192103478e-08
1.192102752e-08
1.192102036e-08
1.19210123e-08
1.192100379e-08
1.192099278e-08
1.192098182e-08
1.192097904e-08
1.192097392e-08
1.192097276e-08
1.192096458e-08
1.19209613e-08
1.192095123e-08
1.192094587e-08
1.192093657e-08
1.192093186e-08
1.19209244e-08
1.192092422e-08
1.192092256e-08
1.19209192e-08
1.192091315e-08
1.192090584e-08
1.192089814e-08
1.192089364e-08
1.192088558e-08
1.192088327e-08
1.192087979e-08
1.192087366e-08
1.192086471e-08
1.192085524e-08
1.192084575e-08
1.192083706e-08
1.192082576e-08
1.192081614e-08
1.192080504e-08
1.192079439e-08
1.192078754e-08
1.192078014e-08
1.192077358e-08
1.192076166e-08
1.192075799e-08
1.192074766e-08
1.192074562e-08
1.192073993e-08
1.192073575e-08
1.192072804e-08
1.192072265e-08
1.192071339e-08
1.192070545e-08
1.192069402e-08
1.192068685e-08
1.192067584e-08
1.192067068e-08
1.192066053e-08
1.192065663e-08
1.192065035e-08
1.192065064e-08
1.192064694e-08
1.192064306e-08
1.192063326e-08
1.192063249e-08
1.192062115e-08
1.192061175e-08
1.192060511e-08
1.192059335e-08
1.192058032e-08
1.192057354e-08
1.192056041e-08
1.192054954e-08
1.19205428e-08
1.192053339e-08
1.192052415e-08
1.192051593e-08
1.192050275e-08
1.192049122e-08
1.19204802e-08
1.192046936e-08
1.192045536e-08
1.192044504e-08
1.192043133e-08
1.192041756e-08
1.192040864e-08
1.192039831e-08
1.192038734e-08
1.192038485e-08
1.192037865e-08
1.192036907e-08
1.192035616e-08
1.192034109e-08
1.192032667e-08
1.192032052e-08
1.192031297e-08
1.192029598e-08
1.19202726e-08
1.192025713e-08
1.192023867e-08
1.192022533e-08
1.192021484e-08
1.192019873e-08
1.192018369e-08
1.192017424e-08
1.192016734e-08
1.19201544e-08
1.1920135e-08
1.192011657e-08
1.192009793e-08
1.192007782e-08
1.192006671e-08
1.192004991e-08
1.192003004e-08
1.19200073e-08
1.191999625e-08
1.191998075e-08
1.191996237e-08
1.191994952e-08
1.191993108e-08
1.191990773e-08
1.191988032e-08
1.191985644e-08
1.191984013e-08
1.191982473e-08
1.191981191e-08
1.191979011e-08
1.191977224e-08
1.191975089e-08
1.191972926e-08
1.19197012e-08
1.191967521e-08
1.191965325e-08
1.191962999e-08
1.191960832e-08
1.19195869e-08
1.191956029e-08
1.191953681e-08
1.191951568e-08
1.191948999e-08
1.191946426e-08
1.191943948e-08
1.19194193e-08
1.191939629e-08
1.191936493e-08
1.191934122e-08
1.19193181e-08
1.191929158e-08
1.191927113e-08
1.191924804e-08
1.191922117e-08
1.191919552e-08
1.191916818e-08
1.191914018e-08
1.191911281e-08
1.191908434e-08
1.191905691e-08
1.191902952e-08
1.191900335e-08
1.191897741e-08
1.191895241e-08
1.19189238e-08
1.191890017e-08
0.109695165
0.1096960835
0.10969774
0.109699994
0.1097027223
0.1097058217
0.1097092131
0.1097128452
0.1097166794
0.1097206829
0.109724829
0.1097290976
0.1097334711
0.1097379201
0.1097416944
0.1097455196
0.109749387
0.1097532889
0.1097572189
0.1097611715
0.109765143
0.1097691303
0.1097731314
0.1097771446
0.1097811685
0.1097852011
0.1097892395
0.109793279
0.1097973129
0.1098013318
0.1098053246
0.109809278
0.1098131902
0.1098170691
0.1098209219
0.1098247539
0.1098285676
0.1098323631
0.109836139
0.109839894
0.1098436296
0.1098473485
0.1098510539
0.1098547479
0.1098584311
0.1098621025
0.1098657595
0.109869398
0.1098730132
0.1098765993
0.1098801506
0.1098836623
0.1098867814
0.109889657
0.1098925027
0.1098953231
0.1098981221
0.109900903
0.1099036678
0.1099064174
0.1099091517
0.10991187
0.1099145711
0.1099172542
0.1099199181
0.1099225619
0.1099251837
0.1099277813
0.1099303516
0.1099328909
0.1099353997
0.1099378791
0.1099403309
0.1099427573
0.10994516
0.1099475408
0.1099499022
0.1099522469
0.1099545762
0.1099568903
0.1099591886
0.1099614697
0.109963732
0.1099659736
0.1099681924
0.1099703869
0.109972556
0.1099746992
0.1099768168
0.1099789094
0.1099809783
0.109983025
0.1099850506
0.109987056
0.1099890418
0.1099910081
0.1099929548
0.1099948816
0.1099967879
0.1099986732
0.1100005371
0.1100023787
0.1100041974
0.1100059927
0.1100077143
0.1100091831
0.1100106329
0.110012065
0.1100134806
0.1100148809
0.1100162669
0.1100176396
0.1100189998
0.1100203481
0.1100216846
0.1100230094
0.1100243222
0.1100256227
0.1100269102
0.1100281842
0.1100294441
0.1100306891
0.1100319191
0.1100331336
0.1100343329
0.110035517
0.1100366862
0.1100378414
0.1100389833
0.1100401125
0.1100412298
0.1100423357
0.1100434308
0.1100445157
0.1100455907
0.1100466561
0.1100477121
0.1100487588
0.1100497963
0.110050825
0.110051845
0.1100528571
0.1100538616
0.110054859
0.11005585
0.110056835
0.1100578147
0.1100587895
0.1100597599
0.1100607214
0.1100616652
0.1100626048
0.1100635405
0.1100644724
0.1100654004
0.1100663248
0.1100672454
0.1100681623
0.1100690756
0.1100699855
0.110070892
0.1100717955
0.1100726963
0.1100735946
0.1100744907
0.1100753852
0.1100762787
0.1100771714
0.1100780636
0.1100789558
0.1100798481
0.1100807411
0.1100816351
0.1100825305
0.1100834277
0.1100843269
0.1100852286
0.1100861331
0.1100870408
0.1100879527
0.1100888703
0.1100897962
0.1100907328
0.1100916806
0.1100926376
0.1100936025
0.1100945742
0.1100955524
0.1100965369
0.1100975278
0.1100985251
0.1100995293
0.1101005406
0.1101015105
0.110102468
0.110103433
0.1101044056
0.1101053838
0.110106366
0.1101073525
0.1101083434
0.1101093388
0.1101103381
0.1101113409
0.110112347
0.1101132109
0.1101140498
0.1101148916
0.1101157367
0.1101165854
0.1101174382
0.1101182959
0.1101191606
0.1101198654
0.1101205648
0.110121267
0.1101219709
0.1101226755
0.1101233811
0.1101240877
0.1101247959
0.1101255075
0.110126223
0.1101269423
0.1101276651
0.1101283927
0.1101289964
0.1101295597
0.1101301228
0.1101306861
0.1101312502
0.1101318153
0.1101323816
0.1101329495
0.1101335162
0.1101340805
0.1101344927
0.1101348877
0.110135278
0.1101356689
0.1101360671
0.1101364761
0.1101368993
0.1101372936
0.1101375348
0.1101377997
0.1101380933
0.1101384203
0.1101387861
0.1101391955
0.110139221
0.1101392352
0.1101393001
0.110139424
0.1101396137
0.1101396065
0.1101394675
0.1101393612
0.1101392943
0.1101392481