/*--------------------------------*- C++ -*----------------------------------*\
| =========                 |                                                 |
| \\      /  F ield         | OpenFOAM: The Open Source CFD Toolbox           |
|  \\    /   O peration     | Version:  v2006                                 |
|   \\  /    A nd           | Website:  www.openfoam.com                      |
|    \\/     M anipulation  |                                                 |
\*---------------------------------------------------------------------------*/
FoamFile
{
    version     2.0;
    format      ascii;
    class       volScalarField;
    location    "0.09";
    object      H2O2;
}
// * * * * * * * * * * * * * * * * * * * * * * * * * * * * * * * * * * * * * //

dimensions      [0 0 0 0 0 0 0];


internalField   nonuniform List<scalar> 
72000
(
2.223139748e-05
2.223296802e-05
2.223590907e-05
2.224007405e-05
2.224531929e-05
2.225151428e-05
2.225853983e-05
2.226628844e-05
2.227466551e-05
2.228358604e-05
2.229297142e-05
2.230274769e-05
2.231285859e-05
2.232325999e-05
2.233390934e-05
2.234476768e-05
2.235579942e-05
2.236697269e-05
2.237825957e-05
2.238963601e-05
2.240108108e-05
2.241257704e-05
2.242410864e-05
2.243566174e-05
2.24472229e-05
2.24587786e-05
2.247031448e-05
2.248181492e-05
2.249326307e-05
2.250464172e-05
2.251593501e-05
2.252713073e-05
2.253822238e-05
2.254920872e-05
2.25600914e-05
2.257087245e-05
2.258155286e-05
2.259213237e-05
2.26026104e-05
2.261298736e-05
2.262326559e-05
2.263344918e-05
2.26435429e-05
2.265355082e-05
2.266347514e-05
2.267331551e-05
2.268306891e-05
2.269272989e-05
2.270229105e-05
2.271174387e-05
2.2721081e-05
2.273029819e-05
2.273939456e-05
2.274837128e-05
2.275722904e-05
2.276595274e-05
2.277386912e-05
2.278169501e-05
2.278944008e-05
2.279710942e-05
2.280470539e-05
2.281222864e-05
2.281967875e-05
2.28270547e-05
2.283435498e-05
2.28415775e-05
2.284872099e-05
2.285578377e-05
2.286276417e-05
2.286966123e-05
2.287647548e-05
2.288320913e-05
2.288986592e-05
2.289645063e-05
2.29029686e-05
2.290942529e-05
2.291582589e-05
2.292217475e-05
2.292847485e-05
2.293472764e-05
2.294093312e-05
2.294709015e-05
2.295319681e-05
2.295925093e-05
2.29652505e-05
2.297119415e-05
2.297708145e-05
2.298291303e-05
2.298869062e-05
2.299441681e-05
2.300009469e-05
2.300572765e-05
2.30113189e-05
2.30168712e-05
2.302238674e-05
2.302786716e-05
2.30333136e-05
2.303872692e-05
2.304410763e-05
2.304945637e-05
2.30547737e-05
2.306006026e-05
2.306531694e-05
2.307054502e-05
2.307574634e-05
2.308092339e-05
2.308607944e-05
2.309121827e-05
2.309634402e-05
2.3101461e-05
2.310657347e-05
2.31116855e-05
2.311680078e-05
2.312192247e-05
2.312705317e-05
2.313219483e-05
2.313734887e-05
2.31425162e-05
2.314769732e-05
2.315289238e-05
2.315810116e-05
2.316332285e-05
2.316855568e-05
2.317379688e-05
2.317904597e-05
2.318430225e-05
2.318956559e-05
2.319484778e-05
2.320015673e-05
2.320549828e-05
2.321087726e-05
2.321629791e-05
2.322176406e-05
2.322727925e-05
2.323284676e-05
2.323846967e-05
2.324415086e-05
2.324989308e-05
2.325569898e-05
2.326157122e-05
2.326751312e-05
2.327352786e-05
2.327961811e-05
2.328578549e-05
2.329186401e-05
2.32978315e-05
2.330388203e-05
2.331002112e-05
2.331625314e-05
2.332258181e-05
2.332901045e-05
2.333554205e-05
2.334217942e-05
2.334892521e-05
2.335578194e-05
2.336275209e-05
2.336983812e-05
2.337704255e-05
2.338436797e-05
2.339181714e-05
2.339939294e-05
2.34070984e-05
2.341493662e-05
2.342291081e-05
2.343102426e-05
2.343928029e-05
2.344768232e-05
2.345623382e-05
2.346493831e-05
2.347379937e-05
2.34828206e-05
2.349200563e-05
2.350135807e-05
2.351088145e-05
2.35205792e-05
2.353045451e-05
2.354051012e-05
2.35507479e-05
2.356116832e-05
2.357176366e-05
2.358250544e-05
2.359330999e-05
2.360238757e-05
2.360986192e-05
2.361732138e-05
2.362484531e-05
2.363245848e-05
2.364016923e-05
2.364798053e-05
2.365589372e-05
2.366390972e-05
2.367202951e-05
2.368025428e-05
2.368858501e-05
2.369702196e-05
2.370556476e-05
2.371421282e-05
2.372296564e-05
2.37318221e-05
2.374077875e-05
2.374983046e-05
2.375897102e-05
2.376819105e-05
2.377698216e-05
2.378579023e-05
2.379467077e-05
2.380362284e-05
2.3812643e-05
2.382172719e-05
2.383087621e-05
2.384008974e-05
2.384937162e-05
2.385872388e-05
2.386814949e-05
2.387765008e-05
2.388723012e-05
2.389690762e-05
2.390674414e-05
2.391669406e-05
2.392672609e-05
2.393682706e-05
2.394698734e-05
2.395719916e-05
2.396745615e-05
2.39777527e-05
2.398808345e-05
2.399844237e-05
2.400882141e-05
2.401921205e-05
2.402960845e-05
2.404000197e-05
2.405038552e-05
2.406074811e-05
2.407107334e-05
2.408133473e-05
2.409149068e-05
2.410147715e-05
2.411109297e-05
2.411240279e-05
2.4110714e-05
2.410844186e-05
2.410567919e-05
2.410245977e-05
2.409879064e-05
2.40946587e-05
2.40900515e-05
2.4084933e-05
2.407927868e-05
2.407307036e-05
2.406629029e-05
2.405892128e-05
2.405094422e-05
2.404232181e-05
2.403300901e-05
2.402296292e-05
2.401215636e-05
2.400055376e-05
2.398821398e-05
2.397207246e-05
2.39518247e-05
2.393045215e-05
2.390789815e-05
2.38841516e-05
2.385920632e-05
2.383310531e-05
2.380575131e-05
2.377705886e-05
2.374697204e-05
2.371500084e-05
2.368114338e-05
2.36402576e-05
2.359735875e-05
2.355252347e-05
2.35057248e-05
2.345706697e-05
2.340643891e-05
2.335381803e-05
2.32972262e-05
2.323475098e-05
2.316993405e-05
2.310288705e-05
2.303410936e-05
2.296282535e-05
2.288590339e-05
2.280741649e-05
2.272938563e-05
2.265300048e-05
2.257385843e-05
2.249239352e-05
2.241823669e-05
2.235475327e-05
2.229153242e-05
2.225148735e-05
2.224931569e-05
2.228869649e-05
2.239897953e-05
2.262073046e-05
2.300618557e-05
2.367059285e-05
2.479268817e-05
2.670717695e-05
3.00550946e-05
3.596672125e-05
4.542168115e-05
6.164838381e-05
0.0001579460889
0.0007453685219
0.0004577799057
0.0002745751252
0.0001741300478
0.0001140462627
7.594519677e-05
5.025546119e-05
3.353912987e-05
2.385776464e-05
1.691966825e-05
1.164752168e-05
8.152675641e-06
5.998951214e-06
4.600393141e-06
3.604483709e-06
2.857892099e-06
2.280438217e-06
1.825808312e-06
1.46419849e-06
1.17487212e-06
9.427093543e-07
7.561730579e-07
6.062030677e-07
4.85644771e-07
3.88757669e-07
3.109367961e-07
2.484746541e-07
1.983763627e-07
1.582303709e-07
1.260877307e-07
1.003764412e-07
7.982960333e-08
6.342550568e-08
5.034178404e-08
3.991679147e-08
3.161851713e-08
2.501977202e-08
1.977779753e-08
1.561787304e-08
1.232006621e-08
9.708477232e-09
7.64252475e-09
6.009989301e-09
4.721372551e-09
3.705362983e-09
2.905209331e-09
2.275788517e-09
1.781266242e-09
1.393210369e-09
1.089087544e-09
8.510569873e-10
6.650085941e-10
5.197951359e-10
4.066198028e-10
3.185488773e-10
2.501233999e-10
1.970504205e-10
1.559581967e-10
1.242017299e-10
9.970882443e-11
8.085810485e-11
6.638268892e-11
5.529421337e-11
4.682259774e-11
4.036880886e-11
3.546765656e-11
3.175840435e-11
2.896195561e-11
2.686265067e-11
2.52942911e-11
2.412899978e-11
2.326873685e-11
2.263834836e-11
2.218053845e-11
2.185175554e-11
2.161879519e-11
2.145672598e-11
2.134683392e-11
2.127522683e-11
2.123194508e-11
2.121148322e-11
2.121148322e-11
2.121148322e-11
2.121148322e-11
2.121148322e-11
2.121148322e-11
2.121148322e-11
2.121148322e-11
2.121148322e-11
2.121148322e-11
2.121148322e-11
2.121148322e-11
2.121148322e-11
2.121148322e-11
2.12131155e-11
2.121601481e-11
2.121904797e-11
2.12220374e-11
2.122499051e-11
2.122794071e-11
2.123112171e-11
2.123412664e-11
2.123633295e-11
2.123788434e-11
2.123902416e-11
2.123986836e-11
2.124038612e-11
2.124071357e-11
2.124083507e-11
2.124096045e-11
2.124094768e-11
2.124096524e-11
2.124085402e-11
2.124074906e-11
2.124061006e-11
2.1240485e-11
2.124039273e-11
2.124034383e-11
2.12403097e-11
2.124017224e-11
2.1240033e-11
2.123994337e-11
2.123991019e-11
2.12398905e-11
2.123973759e-11
2.123948776e-11
2.123933459e-11
2.123925109e-11
2.123918679e-11
2.123913978e-11
2.123910737e-11
2.123897235e-11
2.123890272e-11
2.123886219e-11
2.123885848e-11
2.123886169e-11
2.123872936e-11
2.123864163e-11
2.123860146e-11
2.123845815e-11
2.123834442e-11
2.123817427e-11
2.123811187e-11
2.123809517e-11
2.123809916e-11
2.123796704e-11
2.123788743e-11
2.123779989e-11
2.123774151e-11
2.123758336e-11
2.123747788e-11
2.123742296e-11
2.123743285e-11
2.123748699e-11
2.12374377e-11
2.123727985e-11
2.123723899e-11
2.123726965e-11
2.123719264e-11
2.123702507e-11
2.123693575e-11
2.123689211e-11
2.123688665e-11
2.123674064e-11
2.123661128e-11
2.123650289e-11
2.123645513e-11
2.123631567e-11
2.123613889e-11
2.123589405e-11
2.123568605e-11
2.123561801e-11
2.123557143e-11
2.123552079e-11
2.123537223e-11
2.123527856e-11
2.123521429e-11
2.123519786e-11
2.123506888e-11
2.1234972e-11
2.123489171e-11
2.123481354e-11
2.123477723e-11
2.123462497e-11
2.123452804e-11
2.12344904e-11
2.123437032e-11
2.123431303e-11
2.123414001e-11
2.123402684e-11
2.123393683e-11
2.1233887e-11
2.123385879e-11
2.123385664e-11
2.123385112e-11
2.123372557e-11
2.123358612e-11
2.123343968e-11
2.1233317e-11
2.123321783e-11
2.123310598e-11
2.123302306e-11
2.123285603e-11
2.123278047e-11
2.123273424e-11
2.123257718e-11
2.123250098e-11
2.123234229e-11
2.123209668e-11
2.12319163e-11
2.1231779e-11
2.123168439e-11
2.123159593e-11
2.123138569e-11
2.123123813e-11
2.12310159e-11
2.123085047e-11
2.123070114e-11
2.12306002e-11
2.123053782e-11
2.123049961e-11
2.123036382e-11
2.123027026e-11
2.123009193e-11
2.122999622e-11
2.122998849e-11
2.122987872e-11
2.122967427e-11
2.122938406e-11
2.122921972e-11
2.122900008e-11
2.12287107e-11
2.122852452e-11
2.122841762e-11
2.122821368e-11
2.122809003e-11
2.122803491e-11
2.122785954e-11
2.122756928e-11
2.122738467e-11
2.12271364e-11
2.122682455e-11
2.122656007e-11
2.122633284e-11
2.122610592e-11
2.122589937e-11
2.122572519e-11
2.122555023e-11
2.122538238e-11
2.122520296e-11
2.122502153e-11
2.12246725e-11
2.122436109e-11
2.122412933e-11
2.122396151e-11
2.122372523e-11
2.122357844e-11
2.122344164e-11
2.122316107e-11
2.122290433e-11
2.122255683e-11
2.122227678e-11
2.122207657e-11
2.122179771e-11
2.122146351e-11
2.122106554e-11
2.122072723e-11
2.122042172e-11
2.122014338e-11
2.12198872e-11
2.121966307e-11
2.121932909e-11
2.121903149e-11
2.121874379e-11
2.121848552e-11
2.121812183e-11
2.121780986e-11
2.121756058e-11
2.121722383e-11
2.121693466e-11
2.121663771e-11
2.121633893e-11
2.121606953e-11
2.121567808e-11
2.121534639e-11
2.121497675e-11
2.121453745e-11
2.121419345e-11
2.121376367e-11
2.121340796e-11
2.121306574e-11
2.121260156e-11
2.121213166e-11
2.12116925e-11
1.863653503e-05
1.863952083e-05
1.864475086e-05
1.865172896e-05
1.866005701e-05
1.866944749e-05
1.867968077e-05
1.869060135e-05
1.870208422e-05
1.871403488e-05
1.872637579e-05
1.87390424e-05
1.875198074e-05
1.876514306e-05
1.877848738e-05
1.879198814e-05
1.880562282e-05
1.881936971e-05
1.883320835e-05
1.884711861e-05
1.886107713e-05
1.887507386e-05
1.888911119e-05
1.890318518e-05
1.891728893e-05
1.893141275e-05
1.894554348e-05
1.895966359e-05
1.897375104e-05
1.898778046e-05
1.90017265e-05
1.901557004e-05
1.902930552e-05
1.90429401e-05
1.905648619e-05
1.906995567e-05
1.908335716e-05
1.909669575e-05
1.910997448e-05
1.912319643e-05
1.913636595e-05
1.914948809e-05
1.916256713e-05
1.917560504e-05
1.918860037e-05
1.920154767e-05
1.921443743e-05
1.922725633e-05
1.923998774e-05
1.925261212e-05
1.926464447e-05
1.92761161e-05
1.92874564e-05
1.929867176e-05
1.930977391e-05
1.932077497e-05
1.933168738e-05
1.934252323e-05
1.935329211e-05
1.936399957e-05
1.937464751e-05
1.938523497e-05
1.939575879e-05
1.940621366e-05
1.941659105e-05
1.942687602e-05
1.943706939e-05
1.944716772e-05
1.945716451e-05
1.946705442e-05
1.947683678e-05
1.948651441e-05
1.949609209e-05
1.95055755e-05
1.951497068e-05
1.952428393e-05
1.953352197e-05
1.954269064e-05
1.955179355e-05
1.95608315e-05
1.95698027e-05
1.957870328e-05
1.958752799e-05
1.959627092e-05
1.960492626e-05
1.961348904e-05
1.962195566e-05
1.963032425e-05
1.963859477e-05
1.964676867e-05
1.965484905e-05
1.966283891e-05
1.967074144e-05
1.967855913e-05
1.968629352e-05
1.969394514e-05
1.970151358e-05
1.970899762e-05
1.971639543e-05
1.972370473e-05
1.973092296e-05
1.973804745e-05
1.97450756e-05
1.975200512e-05
1.975883443e-05
1.976556394e-05
1.977219746e-05
1.977873969e-05
1.978519522e-05
1.979156837e-05
1.979786299e-05
1.980408228e-05
1.981022863e-05
1.981630344e-05
1.982230712e-05
1.982823906e-05
1.983409771e-05
1.98398808e-05
1.984558538e-05
1.9851208e-05
1.985674479e-05
1.986219131e-05
1.986754214e-05
1.987251041e-05
1.987718809e-05
1.98817693e-05
1.988625644e-05
1.989065376e-05
1.989496525e-05
1.989919401e-05
1.990334242e-05
1.990741246e-05
1.991140573e-05
1.991532331e-05
1.991916576e-05
1.992293322e-05
1.99266254e-05
1.993024153e-05
1.993378012e-05
1.993723838e-05
1.994061929e-05
1.994392427e-05
1.994715385e-05
1.995030786e-05
1.995338609e-05
1.995638936e-05
1.995931953e-05
1.996217805e-05
1.996496609e-05
1.996768441e-05
1.997033315e-05
1.997291147e-05
1.99754183e-05
1.997785243e-05
1.998021252e-05
1.998249715e-05
1.998470477e-05
1.998683385e-05
1.998888285e-05
1.999085034e-05
1.999273495e-05
1.999453542e-05
1.999625056e-05
1.999787929e-05
1.999942076e-05
2.000087431e-05
2.000223921e-05
2.000351447e-05
2.000469874e-05
2.000579062e-05
2.000678852e-05
2.00076909e-05
2.000849567e-05
2.000920081e-05
2.000980432e-05
2.001030336e-05
2.001069471e-05
2.001097411e-05
2.001088143e-05
2.00100684e-05
2.000910997e-05
2.000802984e-05
2.000699436e-05
2.000598972e-05
2.000486058e-05
2.000358167e-05
2.000214847e-05
2.000055807e-05
1.999880686e-05
1.999689063e-05
1.9994805e-05
1.999254576e-05
1.999010908e-05
1.99874909e-05
1.998468516e-05
1.99816846e-05
1.997848193e-05
1.997507113e-05
1.99714517e-05
1.996760911e-05
1.996352727e-05
1.995919264e-05
1.995459178e-05
1.994971315e-05
1.994454475e-05
1.993907632e-05
1.993329809e-05
1.992719916e-05
1.992076694e-05
1.991398721e-05
1.99065717e-05
1.989852607e-05
1.989011299e-05
1.988132731e-05
1.987215668e-05
1.98625863e-05
1.985260087e-05
1.983891933e-05
1.982403408e-05
1.980862907e-05
1.979268942e-05
1.977618181e-05
1.975908385e-05
1.974137613e-05
1.972303986e-05
1.970405592e-05
1.968440444e-05
1.966405737e-05
1.96429844e-05
1.962115981e-05
1.959855171e-05
1.957512789e-05
1.955085914e-05
1.95257304e-05
1.949967825e-05
1.947262086e-05
1.944049187e-05
1.940635492e-05
1.937074466e-05
1.933367719e-05
1.929520624e-05
1.925536065e-05
1.921414873e-05
1.917158848e-05
1.912762552e-05
1.908218692e-05
1.903521537e-05
1.898664885e-05
1.893423275e-05
1.887787047e-05
1.881958691e-05
1.875936394e-05
1.869707973e-05
1.863262781e-05
1.856586243e-05
1.849567109e-05
1.842292294e-05
1.834526011e-05
1.826298547e-05
1.817738453e-05
1.808866312e-05
1.799680607e-05
1.790179434e-05
1.780349756e-05
1.770014069e-05
1.759279703e-05
1.74817009e-05
1.736672543e-05
1.724758657e-05
1.712355492e-05
1.699389543e-05
1.685936315e-05
1.671975693e-05
1.657354654e-05
1.64219863e-05
1.626502481e-05
1.610213129e-05
1.593273109e-05
1.575677427e-05
1.557519696e-05
1.538447219e-05
1.518594299e-05
1.498226727e-05
1.477439278e-05
1.456237597e-05
1.434763701e-05
1.413400019e-05
1.392047442e-05
1.371980483e-05
1.352539052e-05
1.335425701e-05
1.321588981e-05
1.311406402e-05
1.311479313e-05
1.323553921e-05
1.361521016e-05
1.445109371e-05
1.614153634e-05
1.978262401e-05
2.799407741e-05
4.812330461e-05
9.717216561e-05
0.0002084527115
0.0003942676384
0.0005945420693
0.000715545773
0.0005909655253
0.0003857451457
0.0002537182353
0.0001633577665
0.0001076431542
7.195585265e-05
4.829739951e-05
3.21849425e-05
2.253472045e-05
1.596826278e-05
1.14145497e-05
8.305067164e-06
6.171906266e-06
4.720406305e-06
3.726105804e-06
2.963302928e-06
2.366535107e-06
1.894269168e-06
1.517996292e-06
1.216761264e-06
9.751779339e-07
7.813128275e-07
6.256195444e-07
5.006402878e-07
4.003267949e-07
3.198543471e-07
2.553477669e-07
2.036656698e-07
1.622992243e-07
1.292148851e-07
1.027767554e-07
8.167063083e-08
6.4835713e-08
5.142061075e-08
4.074114965e-08
3.224749924e-08
2.549899739e-08
2.014235711e-08
1.589470553e-08
1.252987073e-08
9.867171463e-09
7.762292041e-09
6.100163968e-09
4.789099412e-09
3.756084983e-09
2.943081293e-09
2.303967521e-09
1.802153391e-09
1.408625928e-09
1.100410173e-09
8.593279834e-10
6.710124389e-10
5.241213746e-10
4.097101545e-10
3.207332643e-10
2.516476651e-10
1.980967523e-10
1.566613122e-10
1.246606966e-10
9.999607211e-11
8.102625841e-11
6.646982523e-11
5.532748274e-11
4.682125067e-11
4.034633461e-11
3.543332082e-11
3.171848391e-11
2.892050759e-11
2.682225073e-11
2.525649942e-11
2.409460043e-11
2.323806302e-11
2.261141754e-11
2.215713726e-11
2.183152985e-11
2.160138346e-11
2.144175605e-11
2.133375524e-11
2.12634271e-11
2.122039584e-11
2.121148322e-11
2.121148322e-11
2.121148322e-11
2.121148322e-11
2.121148322e-11
2.121148322e-11
2.121148322e-11
2.121148322e-11
2.121148322e-11
2.121148322e-11
2.121148322e-11
2.121148322e-11
2.121148322e-11
2.121148322e-11
2.121177585e-11
2.121513399e-11
2.121833839e-11
2.122141661e-11
2.122433102e-11
2.122702861e-11
2.122954595e-11
2.123204698e-11
2.123387585e-11
2.123523489e-11
2.123620551e-11
2.12369787e-11
2.123748692e-11
2.123778907e-11
2.123794402e-11
2.123805616e-11
2.12380815e-11
2.123810223e-11
2.123808214e-11
2.12380496e-11
2.12379335e-11
2.123783259e-11
2.123774732e-11
2.123772443e-11
2.123766622e-11
2.123762231e-11
2.123748365e-11
2.123740535e-11
2.123738499e-11
2.123734812e-11
2.123719897e-11
2.12370029e-11
2.123688533e-11
2.123683607e-11
2.123677302e-11
2.123672249e-11
2.123664857e-11
2.123655396e-11
2.123652097e-11
2.123647652e-11
2.123646961e-11
2.123644828e-11
2.123634511e-11
2.123625896e-11
2.123619486e-11
2.123610721e-11
2.123594835e-11
2.12358135e-11
2.123578174e-11
2.123575532e-11
2.123575296e-11
2.123563263e-11
2.123556824e-11
2.123550712e-11
2.12354096e-11
2.12353044e-11
2.123521934e-11
2.123515506e-11
2.123515281e-11
2.123515397e-11
2.123513591e-11
2.123501577e-11
2.123496208e-11
2.123495907e-11
2.123488597e-11
2.123476701e-11
2.123469826e-11
2.123465754e-11
2.123463549e-11
2.123454187e-11
2.123442868e-11
2.123429463e-11
2.123421477e-11
2.123403816e-11
2.12339152e-11
2.123375638e-11
2.123360511e-11
2.123353393e-11
2.123348552e-11
2.123337388e-11
2.123327454e-11
2.123319976e-11
2.123312593e-11
2.12330797e-11
2.123299451e-11
2.123292645e-11
2.123286834e-11
2.12327623e-11
2.123270275e-11
2.12325931e-11
2.123250114e-11
2.123242695e-11
2.123233653e-11
2.123227668e-11
2.123214647e-11
2.123207785e-11
2.123198387e-11
2.123194199e-11
2.123191456e-11
2.123190653e-11
2.123183728e-11
2.123179007e-11
2.123167647e-11
2.123152818e-11
2.123142388e-11
2.123134305e-11
2.123122689e-11
2.12310899e-11
2.123097148e-11
2.123090005e-11
2.123082356e-11
2.123067658e-11
2.123057886e-11
2.123043846e-11
2.123027223e-11
2.123012544e-11
2.123000291e-11
2.122992664e-11
2.122979446e-11
2.122961318e-11
2.122945393e-11
2.122929863e-11
2.122918654e-11
2.122903456e-11
2.12289288e-11
2.12288685e-11
2.122879238e-11
2.122868465e-11
2.122856741e-11
2.122842961e-11
2.122832366e-11
2.122828305e-11
2.122816833e-11
2.12279856e-11
2.122773133e-11
2.122755956e-11
2.122737025e-11
2.122713963e-11
2.122698005e-11
2.122685591e-11
2.122666995e-11
2.12265523e-11
2.122647934e-11
2.122631081e-11
2.122604626e-11
2.122585353e-11
2.122563165e-11
2.122540594e-11
2.122521822e-11
2.12249945e-11
2.122477431e-11
2.12245717e-11
2.122440599e-11
2.122424463e-11
2.122409757e-11
2.122390026e-11
2.12237158e-11
2.122341571e-11
2.122313087e-11
2.122288794e-11
2.122269719e-11
2.122249285e-11
2.122238868e-11
2.12222132e-11
2.122198003e-11
2.122169941e-11
2.122141592e-11
2.122114402e-11
2.122091354e-11
2.122062814e-11
2.122033591e-11
2.122003287e-11
2.121974254e-11
2.121945884e-11
2.121919356e-11
2.121894462e-11
2.121868805e-11
2.121841195e-11
2.121816305e-11
2.121787284e-11
2.121759743e-11
2.121728445e-11
2.121699866e-11
2.121673298e-11
2.121645844e-11
2.121622519e-11
2.121595314e-11
2.121564186e-11
2.121537102e-11
2.121501244e-11
2.121465729e-11
2.121434098e-11
2.121396799e-11
2.121365743e-11
2.121329341e-11
2.121299833e-11
2.121268407e-11
2.121232187e-11
2.121192654e-11
2.121160371e-11
1.539977034e-05
1.540385423e-05
1.541108041e-05
1.542070222e-05
1.543212784e-05
1.544491089e-05
1.545872209e-05
1.547333835e-05
1.548859794e-05
1.550437996e-05
1.552059108e-05
1.553715873e-05
1.555402091e-05
1.557111552e-05
1.55883655e-05
1.560577313e-05
1.562332036e-05
1.564098612e-05
1.565875081e-05
1.567659665e-05
1.569352421e-05
1.570949267e-05
1.572551247e-05
1.574158327e-05
1.575770204e-05
1.577386225e-05
1.579005219e-05
1.580625311e-05
1.582243801e-05
1.583857212e-05
1.58546166e-05
1.587053877e-05
1.588633298e-05
1.590201892e-05
1.591762206e-05
1.593316418e-05
1.594865977e-05
1.596411632e-05
1.597953732e-05
1.599492625e-05
1.601028939e-05
1.602563396e-05
1.604096588e-05
1.60562874e-05
1.607159569e-05
1.60868824e-05
1.610213372e-05
1.611733076e-05
1.613245028e-05
1.614746573e-05
1.616234838e-05
1.617707675e-05
1.619163224e-05
1.620602871e-05
1.62202944e-05
1.623445176e-05
1.624852024e-05
1.626251612e-05
1.627645065e-05
1.629032977e-05
1.630415459e-05
1.63179225e-05
1.633162821e-05
1.634526439e-05
1.635882096e-05
1.637115922e-05
1.63832444e-05
1.639522973e-05
1.640710169e-05
1.641884816e-05
1.643046863e-05
1.644196767e-05
1.645335156e-05
1.646462705e-05
1.647580051e-05
1.64868786e-05
1.649787016e-05
1.650878351e-05
1.651962335e-05
1.653039007e-05
1.654108033e-05
1.655168792e-05
1.656220471e-05
1.657262159e-05
1.658292946e-05
1.659312031e-05
1.660318789e-05
1.661312835e-05
1.662294044e-05
1.663262533e-05
1.66421863e-05
1.665162686e-05
1.666095057e-05
1.667016001e-05
1.667925639e-05
1.668823943e-05
1.669710752e-05
1.670585788e-05
1.671448684e-05
1.672299002e-05
1.67313625e-05
1.673959911e-05
1.674769465e-05
1.675564391e-05
1.676344093e-05
1.677108082e-05
1.677857291e-05
1.678592326e-05
1.67931369e-05
1.680021819e-05
1.680717072e-05
1.681399719e-05
1.682069916e-05
1.682727685e-05
1.683372909e-05
1.68400534e-05
1.684624609e-05
1.685230255e-05
1.685821735e-05
1.686398455e-05
1.686959787e-05
1.687505084e-05
1.688033692e-05
1.688544925e-05
1.689038621e-05
1.689514876e-05
1.689973763e-05
1.690415615e-05
1.690840714e-05
1.691249212e-05
1.691641192e-05
1.692016748e-05
1.692375932e-05
1.692718721e-05
1.693045014e-05
1.693354645e-05
1.693647397e-05
1.693922999e-05
1.694181099e-05
1.694368067e-05
1.694537168e-05
1.694688807e-05
1.694822896e-05
1.694939305e-05
1.695037898e-05
1.695110875e-05
1.695146545e-05
1.695163272e-05
1.695160948e-05
1.695139513e-05
1.695098872e-05
1.695038493e-05
1.694957979e-05
1.69485695e-05
1.694735011e-05
1.69459175e-05
1.694426741e-05
1.69423955e-05
1.694029743e-05
1.693796891e-05
1.69354058e-05
1.693260398e-05
1.692955941e-05
1.692626819e-05
1.692272678e-05
1.691893216e-05
1.691488124e-05
1.691057008e-05
1.690599396e-05
1.690114835e-05
1.689602831e-05
1.68906292e-05
1.688494539e-05
1.687897153e-05
1.68727023e-05
1.686613131e-05
1.685925191e-05
1.685205673e-05
1.684453777e-05
1.683668822e-05
1.682850843e-05
1.682000779e-05
1.681120611e-05
1.680209491e-05
1.679264182e-05
1.678282565e-05
1.677263357e-05
1.676205569e-05
1.675108282e-05
1.673970589e-05
1.672791588e-05
1.67157041e-05
1.670306315e-05
1.66899902e-05
1.667647116e-05
1.666249065e-05
1.664803494e-05
1.663308982e-05
1.661705047e-05
1.660024095e-05
1.658286993e-05
1.656491962e-05
1.654637107e-05
1.652720485e-05
1.65074012e-05
1.648693781e-05
1.646580044e-05
1.644397271e-05
1.642143545e-05
1.63981676e-05
1.637414618e-05
1.63493574e-05
1.632379623e-05
1.629745715e-05
1.627030399e-05
1.624230289e-05
1.621341405e-05
1.61835744e-05
1.615278073e-05
1.612048691e-05
1.608650576e-05
1.605148304e-05
1.601539127e-05
1.597820251e-05
1.593988788e-05
1.590041681e-05
1.585977736e-05
1.581791115e-05
1.577476045e-05
1.572990474e-05
1.56835489e-05
1.563575716e-05
1.558647411e-05
1.55345618e-05
1.548052731e-05
1.542478041e-05
1.536725184e-05
1.530785161e-05
1.524651403e-05
1.518320854e-05
1.511791361e-05
1.505059748e-05
1.498121567e-05
1.490844676e-05
1.483289938e-05
1.475507217e-05
1.467488645e-05
1.459224732e-05
1.450704334e-05
1.441918764e-05
1.432862648e-05
1.423425214e-05
1.413684951e-05
1.403634142e-05
1.39325942e-05
1.382549314e-05
1.371486171e-05
1.360210255e-05
1.348580077e-05
1.336518182e-05
1.324013899e-05
1.31104316e-05
1.297999714e-05
1.284792808e-05
1.271116546e-05
1.256929694e-05
1.242269418e-05
1.227288486e-05
1.211777111e-05
1.195711403e-05
1.179205379e-05
1.162219414e-05
1.144638348e-05
1.126657794e-05
1.108301951e-05
1.0890765e-05
1.069994558e-05
1.050524442e-05
1.030080228e-05
1.011207559e-05
9.912467497e-06
9.719058875e-06
9.519426994e-06
9.326964641e-06
9.135260264e-06
8.953399222e-06
8.782248849e-06
8.630239989e-06
8.503724155e-06
8.39745004e-06
8.304367241e-06
8.238274563e-06
8.253386888e-06
8.40807295e-06
8.801684383e-06
9.493750536e-06
1.077349665e-05
1.373742149e-05
2.064168714e-05
3.732615314e-05
7.621115294e-05
0.0001609756266
0.000307357924
0.0004760840299
0.0005979000787
0.0006129887328
0.0005005184514
0.00036952924
0.0002676669429
0.0001989979195
0.0001402450899
9.683692e-05
6.658892117e-05
4.385100211e-05
3.008520119e-05
2.142193213e-05
1.549755489e-05
1.135567987e-05
8.399872972e-06
6.263506787e-06
4.695472983e-06
3.636612265e-06
2.895267677e-06
2.309646856e-06
1.845092908e-06
1.474470396e-06
1.178428409e-06
9.417427153e-07
7.52225369e-07
6.006122055e-07
4.792620821e-07
3.821586549e-07
3.045358735e-07
2.42468239e-07
1.929026487e-07
1.533414654e-07
1.217831771e-07
9.663749681e-08
7.661342483e-08
6.068225403e-08
4.80198561e-08
3.796355645e-08
2.998470247e-08
2.365998197e-08
1.865096621e-08
1.468773153e-08
1.155516194e-08
9.081553645e-09
7.130296017e-09
5.592748888e-09
4.382423926e-09
3.430752324e-09
2.683269036e-09
2.096845817e-09
1.637321002e-09
1.27767804e-09
9.965634734e-10
7.771182389e-10
6.060475869e-10
4.728760359e-10
3.693607968e-10
2.89023144e-10
2.267745385e-10
1.786256349e-10
1.414503784e-10
1.128035406e-10
9.077409092e-11
7.38709341e-11
6.093201083e-11
5.105306551e-11
4.353156898e-11
3.78223847e-11
3.350338398e-11
3.024822384e-11
2.780495638e-11
2.597967626e-11
2.462330175e-11
2.362152955e-11
2.288686921e-11
2.235266881e-11
2.196816295e-11
2.169485143e-11
2.150367733e-11
2.137264298e-11
2.128540064e-11
2.122960241e-11
2.121148322e-11
2.121148322e-11
2.121148322e-11
2.121148322e-11
2.121148322e-11
2.121148322e-11
2.121148322e-11
2.121148322e-11
2.121148322e-11
2.121148322e-11
2.121148322e-11
2.121148322e-11
2.121148322e-11
2.121148322e-11
2.121148322e-11
2.121248385e-11
2.121606146e-11
2.121933186e-11
2.122224017e-11
2.122480974e-11
2.12270204e-11
2.122888196e-11
2.123063588e-11
2.123202767e-11
2.123304483e-11
2.123383155e-11
2.123441855e-11
2.123477245e-11
2.123499103e-11
2.123515368e-11
2.123526226e-11
2.12353244e-11
2.123536525e-11
2.1235361e-11
2.12352901e-11
2.123523823e-11
2.123520184e-11
2.123518404e-11
2.123515677e-11
2.123512371e-11
2.123502641e-11
2.1234961e-11
2.123491629e-11
2.123483231e-11
2.12347351e-11
2.123461338e-11
2.123453045e-11
2.123447315e-11
2.123440137e-11
2.123436387e-11
2.123433724e-11
2.123424133e-11
2.123418506e-11
2.123415047e-11
2.123413638e-11
2.123406758e-11
2.123399208e-11
2.123391701e-11
2.123383304e-11
2.123374435e-11
2.123362966e-11
2.123351449e-11
2.123348322e-11
2.123342895e-11
2.12334155e-11
2.123333058e-11
2.123329507e-11
2.123319077e-11
2.123313356e-11
2.123303656e-11
2.12329863e-11
2.123290861e-11
2.123290484e-11
2.123288711e-11
2.123285198e-11
2.123278952e-11
2.123271402e-11
2.123263398e-11
2.123258574e-11
2.123250137e-11
2.123247476e-11
2.123243729e-11
2.123237372e-11
2.123228064e-11
2.12321812e-11
2.123208131e-11
2.123198972e-11
2.123187111e-11
2.123176906e-11
2.123165211e-11
2.123153934e-11
2.123146572e-11
2.123138732e-11
2.123131835e-11
2.123119463e-11
2.123115422e-11
2.123104704e-11
2.123102365e-11
2.123096317e-11
2.123091849e-11
2.123083842e-11
2.123078179e-11
2.123068658e-11
2.123060335e-11
2.12304853e-11
2.123041016e-11
2.123029516e-11
2.123023926e-11
2.123013267e-11
2.12300892e-11
2.123002249e-11
2.123002332e-11
2.122998504e-11
2.122994548e-11
2.122984372e-11
2.12298329e-11
2.122971604e-11
2.122961718e-11
2.12295468e-11
2.122942526e-11
2.122928993e-11
2.122921731e-11
2.122908082e-11
2.122896651e-11
2.122889362e-11
2.122879366e-11
2.122869524e-11
2.122860708e-11
2.122846958e-11
2.122834845e-11
2.122823297e-11
2.122811976e-11
2.122797424e-11
2.122786503e-11
2.12277214e-11
2.122757693e-11
2.12274819e-11
2.122737349e-11
2.122725822e-11
2.12272282e-11
2.122716198e-11
2.122706204e-11
2.122692783e-11
2.122677248e-11
2.122662221e-11
2.122655501e-11
2.122647358e-11
2.122629702e-11
2.122605404e-11
2.122588972e-11
2.122569507e-11
2.122555153e-11
2.122543819e-11
2.122526893e-11
2.12251111e-11
2.122500859e-11
2.122493272e-11
2.122479607e-11
2.122459375e-11
2.122439976e-11
2.122420319e-11
2.122399087e-11
2.122386971e-11
2.122369175e-11
2.122348332e-11
2.122324578e-11
2.12231261e-11
2.122296212e-11
2.122276901e-11
2.122263129e-11
2.122243699e-11
2.122219263e-11
2.122190707e-11
2.122165687e-11
2.122148277e-11
2.122131848e-11
2.122118025e-11
2.122095275e-11
2.122076336e-11
2.122053881e-11
2.122031022e-11
2.122001685e-11
2.121974369e-11
2.121951033e-11
2.121926316e-11
2.121903192e-11
2.121880326e-11
2.121852335e-11
2.121827483e-11
2.121805043e-11
2.121778085e-11
2.121751012e-11
2.121724945e-11
2.121703474e-11
2.121679174e-11
2.121646467e-11
2.121621397e-11
2.121596986e-11
2.121569124e-11
2.121547349e-11
2.121522944e-11
2.121494691e-11
2.121467682e-11
2.121438983e-11
2.121409496e-11
2.121380637e-11
2.121350651e-11
2.121321737e-11
2.121292936e-11
2.121265421e-11
2.12123822e-11
2.121212092e-11
2.121182514e-11
2.12115825e-11
1.250847964e-05
1.251313025e-05
1.252142194e-05
1.253252365e-05
1.254573134e-05
1.256048918e-05
1.257638155e-05
1.259315359e-05
1.26106276e-05
1.262866509e-05
1.264716032e-05
1.266604017e-05
1.268524369e-05
1.270467693e-05
1.272217416e-05
1.273982334e-05
1.275760055e-05
1.277548479e-05
1.279345991e-05
1.281151561e-05
1.282965069e-05
1.284786209e-05
1.286614393e-05
1.288449651e-05
1.290292022e-05
1.292141228e-05
1.293996366e-05
1.295855546e-05
1.297715565e-05
1.299571745e-05
1.301417966e-05
1.303246458e-05
1.305056622e-05