/*--------------------------------*- C++ -*----------------------------------*\
| =========                 |                                                 |
| \\      /  F ield         | OpenFOAM: The Open Source CFD Toolbox           |
|  \\    /   O peration     | Version:  v2006                                 |
|   \\  /    A nd           | Website:  www.openfoam.com                      |
|    \\/     M anipulation  |                                                 |
\*---------------------------------------------------------------------------*/
FoamFile
{
    version     2.0;
    format      ascii;
    class       volScalarField;
    location    "0.09";
    object      HCO;
}
// * * * * * * * * * * * * * * * * * * * * * * * * * * * * * * * * * * * * * //

dimensions      [0 0 0 0 0 0 0];


internalField   nonuniform List<scalar> 
72000
(
1.738263857e-09
1.739222324e-09
1.741031686e-09
1.743608434e-09
1.74686894e-09
1.750734215e-09
1.755130875e-09
1.759991621e-09
1.765256862e-09
1.770872646e-09
1.776788668e-09
1.782957085e-09
1.789341964e-09
1.795915462e-09
1.802650317e-09
1.809521266e-09
1.816505154e-09
1.823581257e-09
1.830731487e-09
1.837940325e-09
1.845194317e-09
1.852481857e-09
1.859792763e-09
1.86711764e-09
1.874447644e-09
1.881773973e-09
1.889087375e-09
1.896377862e-09
1.903634751e-09
1.910847187e-09
1.918005185e-09
1.925101044e-09
1.932130514e-09
1.939092564e-09
1.945987911e-09
1.952817518e-09
1.959581704e-09
1.966280037e-09
1.972911908e-09
1.9794774e-09
1.9859779e-09
1.992415981e-09
1.998794734e-09
2.005116855e-09
2.011383882e-09
2.017595763e-09
2.02375077e-09
2.029845653e-09
2.03587595e-09
2.041836461e-09
2.04772246e-09
2.053531516e-09
2.059263492e-09
2.06491901e-09
2.070497975e-09
2.076013255e-09
2.082090149e-09
2.08809638e-09
2.094039264e-09
2.099922684e-09
2.10574844e-09
2.111517029e-09
2.117228185e-09
2.122881233e-09
2.128475182e-09
2.134008614e-09
2.139480618e-09
2.144889971e-09
2.150235481e-09
2.155516509e-09
2.160733499e-09
2.165888171e-09
2.170983413e-09
2.176022944e-09
2.181010914e-09
2.185951575e-09
2.190848947e-09
2.195706389e-09
2.200526226e-09
2.205309615e-09
2.210056619e-09
2.214766426e-09
2.219437662e-09
2.224068742e-09
2.228658238e-09
2.233205208e-09
2.237709428e-09
2.242171511e-09
2.246592881e-09
2.250975638e-09
2.255322222e-09
2.259635334e-09
2.263917505e-09
2.268170933e-09
2.272397383e-09
2.276598182e-09
2.280774301e-09
2.284926524e-09
2.289055339e-09
2.293161402e-09
2.297245275e-09
2.301307623e-09
2.3053493e-09
2.309371473e-09
2.313375726e-09
2.317364129e-09
2.321339258e-09
2.325304089e-09
2.329261885e-09
2.333216054e-09
2.337170001e-09
2.341126986e-09
2.345089995e-09
2.349061633e-09
2.353044055e-09
2.357038958e-09
2.36104761e-09
2.365070908e-09
2.369109442e-09
2.37316354e-09
2.377233241e-09
2.381318139e-09
2.385417001e-09
2.389527433e-09
2.393649285e-09
2.397782173e-09
2.401925789e-09
2.406090024e-09
2.410281291e-09
2.414504344e-09
2.418763122e-09
2.423061112e-09
2.427401507e-09
2.431787277e-09
2.436221208e-09
2.440705935e-09
2.445243972e-09
2.449837748e-09
2.454489641e-09
2.459202007e-09
2.463977704e-09
2.468819447e-09
2.473729631e-09
2.478709877e-09
2.483982914e-09
2.489585419e-09
2.495272674e-09
2.501049975e-09
2.506921626e-09
2.512891357e-09
2.518962539e-09
2.525138297e-09
2.531421585e-09
2.537815226e-09
2.544321954e-09
2.550944459e-09
2.55768544e-09
2.564547655e-09
2.571533974e-09
2.57864741e-09
2.585891125e-09
2.59326842e-09
2.600782714e-09
2.608437516e-09
2.616236417e-09
2.624183086e-09
2.632281278e-09
2.640534839e-09
2.648947705e-09
2.657523893e-09
2.666267484e-09
2.675182611e-09
2.684273417e-09
2.693544029e-09
2.702998497e-09
2.712640688e-09
2.722474099e-09
2.732501458e-09
2.742724105e-09
2.753135256e-09
2.763709637e-09
2.774372107e-09
2.785780864e-09
2.797892777e-09
2.810148155e-09
2.822625757e-09
2.83535193e-09
2.848337982e-09
2.861590696e-09
2.875115651e-09
2.888918339e-09
2.903004567e-09
2.917380538e-09
2.932052535e-09
2.947026406e-09
2.962307614e-09
2.977901486e-09
2.993813498e-09
3.010048601e-09
3.026609905e-09
3.043499246e-09
3.060718095e-09
3.078266586e-09
3.097046195e-09
3.116268328e-09
3.13584736e-09
3.155789087e-09
3.176095572e-09
3.196762558e-09
3.217779276e-09
3.239171044e-09
3.260957211e-09
3.283156807e-09
3.305784872e-09
3.328854798e-09
3.352383664e-09
3.376404632e-09
3.401002864e-09
3.426137892e-09
3.451786236e-09
3.477946715e-09
3.504623529e-09
3.531822755e-09
3.559551936e-09
3.587819912e-09
3.616636656e-09
3.646012193e-09
3.675954705e-09
3.706464802e-09
3.737541251e-09
3.769219918e-09
3.801521728e-09
3.834457107e-09
3.868028813e-09
3.90223525e-09
3.937057339e-09
3.972428845e-09
4.008174336e-09
4.049125216e-09
4.091863692e-09
4.135410355e-09
4.179950106e-09
4.225588276e-09
4.272391776e-09
4.320393707e-09
4.369572137e-09
4.420057979e-09
4.471927595e-09
4.525216398e-09
4.580003329e-09
4.636416949e-09
4.694552976e-09
4.754482558e-09
4.816271631e-09
4.879989921e-09
4.945714078e-09
5.013583604e-09
5.083839245e-09
5.160059934e-09
5.242647483e-09
5.328392707e-09
5.417506471e-09
5.510286094e-09
5.607069363e-09
5.708279761e-09
5.814150258e-09
5.924971684e-09
6.041118077e-09
6.164691668e-09
6.296512859e-09
6.445408007e-09
6.602855132e-09
6.769395841e-09
6.945906054e-09
7.133312527e-09
7.332216104e-09
7.543785079e-09
7.774552494e-09
8.031188197e-09
8.308343037e-09
8.60829499e-09
8.934123177e-09
9.298008978e-09
9.716014077e-09
1.018362162e-08
1.070177816e-08
1.127828125e-08
1.194806262e-08
1.274509485e-08
1.364860913e-08
1.468245133e-08
1.5990649e-08
1.751114765e-08
1.932822191e-08
2.161173336e-08
2.446969447e-08
2.809045104e-08
3.2915122e-08
3.959744161e-08
4.981314053e-08
6.759332972e-08
1.034256642e-07
1.874990194e-07
3.840262175e-07
9.643987181e-07
5.793874839e-06
1.19573884e-07
2.529533572e-08
6.808271402e-09
3.545868023e-09
2.141972377e-09
1.221347995e-09
5.863565879e-10
1.981809215e-10
6.933565625e-11
1.946132611e-11
6.419442876e-12
1.348741634e-12
3.862218007e-13
2.961801404e-13
2.32061717e-13
1.83994819e-13
1.468173094e-13
1.175474262e-13
9.426634163e-14
7.56389945e-14
6.069194204e-14
4.868240296e-14
3.902706782e-14
3.12653099e-14
2.502754567e-14
2.001729924e-14
1.599587526e-14
1.277045801e-14
1.018578754e-14
8.116387098e-15
6.461048472e-15
5.138206447e-15
4.082081416e-15
3.239728108e-15
2.568548514e-15
2.034290828e-15
1.609451863e-15
1.271964207e-15
1.004140857e-15
7.91822178e-16
6.236834269e-16
4.906737256e-16
3.85568185e-16
3.02604743e-16
2.371922369e-16
1.856769193e-16
1.45153686e-16
1.133154609e-16
8.83317325e-17
6.875176323e-17
5.342693193e-17
4.144880493e-17
3.20997038e-17
2.481327422e-17
1.914311114e-17
1.473775701e-17
1.132082404e-17
8.675233467e-18
6.630695561e-18
5.053798672e-18
3.840155763e-18
2.908202697e-18
2.194306887e-18
1.64888918e-18
1.233382755e-18
9.178378381e-19
6.790295725e-19
4.989892209e-19
3.638322288e-19
2.62858446e-19
1.878349147e-19
1.324496547e-19
9.186412043e-20
6.238950297e-20
4.122187328e-20
2.622347102e-20
1.578916697e-20
8.714120168e-21
4.103928051e-21
1.317371732e-21
8.911545785e-28
8.911545785e-28
8.911545785e-28
8.911545785e-28
8.911545785e-28
8.911545785e-28
8.911545785e-28
8.911545785e-28
8.911545785e-28
8.911545785e-28
8.911545785e-28
8.911545785e-28
8.911545785e-28
8.911545785e-28
1.050902057e-22
2.917525835e-22
4.87033036e-22
6.794976818e-22
8.69624355e-22
1.059563308e-21
2.544891056e-21
4.326815841e-21
5.171385876e-21
5.597709596e-21
5.912559802e-21
6.161682587e-21
6.20090597e-21
6.223670867e-21
6.119594282e-21
6.164054596e-21
6.053225943e-21
6.092007358e-21
5.959275253e-21
5.89362379e-21
5.79191606e-21
5.716556697e-21
5.678435032e-21
5.677600305e-21
5.717470537e-21
5.592304376e-21
5.50467385e-21
5.48018373e-21
5.508966658e-21
5.588258025e-21
5.50164023e-21
5.324227915e-21
5.29228112e-21
5.304994094e-21
5.302747316e-21
5.302665426e-21
5.349377029e-21
5.229836677e-21
5.217782035e-21
5.215593267e-21
5.24711497e-21
5.325146392e-21
5.197365773e-21
5.178256204e-21
5.245922468e-21
5.147302646e-21
5.14418701e-21
5.029115926e-21
5.045921716e-21
5.09490694e-21
5.177195021e-21
5.053003549e-21
5.05103373e-21
5.026046755e-21
5.071085939e-21
4.949005258e-21
4.919707999e-21
4.910703222e-21
4.953617452e-21
5.067319449e-21
5.046267789e-21
4.879193789e-21
4.898648642e-21
5.017359661e-21
4.991788547e-21
4.852905041e-21
4.838109667e-21
4.864326904e-21
4.956733939e-21
4.843426941e-21
4.798710645e-21
4.77385338e-21
4.851758057e-21
4.805759893e-21
4.767455429e-21
4.625911188e-21
4.513871957e-21
4.583529553e-21
4.62722542e-21
4.669187421e-21
4.548565603e-21
4.531597044e-21
4.539027947e-21
4.619790858e-21
4.517887112e-21
4.495874927e-21
4.48649862e-21
4.454753646e-21
4.520564628e-21
4.395287305e-21
4.376847202e-21
4.451617159e-21
4.371109821e-21
4.439566964e-21
4.311480649e-21
4.299777095e-21
4.264114343e-21
4.274578046e-21
4.279913269e-21
4.315742827e-21
4.384377912e-21
4.300573495e-21
4.245742155e-21
4.184150388e-21
4.158793839e-21
4.156405679e-21
4.131115436e-21
4.163006776e-21
4.042457132e-21
4.06914296e-21
4.150722112e-21
4.042803962e-21
4.108360445e-21
4.076899779e-21
3.931098881e-21
3.885411334e-21
3.867527106e-21
3.884573296e-21
3.934617117e-21
3.797613781e-21
3.821346805e-21
3.700819621e-21
3.676076483e-21
3.628391264e-21
3.618106102e-21
3.644378447e-21
3.714064306e-21
3.622239043e-21
3.652603258e-21
3.523964506e-21
3.522009324e-21
3.652551241e-21
3.654108176e-21
3.580368142e-21
3.416972593e-21
3.474540941e-21
3.434949751e-21
3.276655365e-21
3.267402965e-21
3.350124086e-21
3.226146706e-21
3.234171526e-21
3.353458923e-21
3.312301083e-21
3.134177885e-21
3.183921404e-21
3.142276014e-21
3.001886424e-21
2.944894643e-21
2.929002756e-21
2.88221182e-21
2.845145849e-21
2.837928155e-21
2.8174095e-21
2.814595712e-21
2.799048037e-21
2.848785216e-21
2.659307061e-21
2.553650925e-21
2.52800237e-21
2.584926615e-21
2.486000151e-21
2.523034135e-21
2.595627058e-21
2.470712086e-21
2.456075759e-21
2.3020327e-21
2.254345116e-21
2.330848056e-21
2.285551123e-21
2.219443403e-21
2.064674351e-21
2.005032561e-21
1.960123277e-21
1.923693651e-21
1.900469406e-21
1.9426202e-21
1.812163799e-21
1.766921975e-21
1.714745156e-21
1.737450402e-21
1.581944096e-21
1.5256808e-21
1.562216037e-21
1.43852202e-21
1.41107039e-21
1.358929658e-21
1.302464006e-21
1.333496803e-21
1.168421076e-21
1.15463856e-21
1.087510822e-21
9.12413202e-22
9.184507281e-22
7.525895149e-22
7.071824294e-22
7.030283538e-22
4.996159237e-22
3.114002061e-22
1.339972615e-22
1.465070626e-09
1.46644302e-09
1.468948467e-09
1.472424392e-09
1.476724849e-09
1.481727646e-09
1.487331659e-09
1.493448323e-09
1.500008989e-09
1.506951326e-09
1.514221308e-09
1.521771869e-09
1.529563142e-09
1.537560523e-09
1.545732574e-09
1.554052847e-09
1.562497235e-09
1.571044054e-09
1.579674202e-09
1.588371338e-09
1.597122923e-09
1.605917512e-09
1.614743969e-09
1.623593315e-09
1.632456891e-09
1.641325531e-09
1.650188905e-09
1.659035059e-09
1.667850365e-09
1.676620176e-09
1.685330422e-09
1.69397022e-09
1.70253466e-09
1.711024434e-09
1.719442729e-09
1.727792552e-09
1.736075304e-09
1.744290675e-09
1.75243761e-09
1.760515823e-09
1.768526947e-09
1.776474264e-09
1.784361666e-09
1.792192303e-09
1.799967517e-09
1.807686356e-09
1.815345554e-09
1.822939786e-09
1.830462096e-09
1.837904335e-09
1.845698711e-09
1.853799774e-09
1.861798421e-09
1.869697148e-09
1.877499863e-09
1.88521117e-09
1.89283643e-09
1.900385721e-09
1.90786581e-09
1.915280477e-09
1.922631173e-09
1.929917728e-09
1.937138969e-09
1.944293141e-09
1.951378111e-09
1.958392134e-09
1.965332575e-09
1.972196811e-09
1.978982326e-09
1.985687351e-09
1.99231192e-09
1.998858074e-09
2.005329536e-09
2.011731075e-09
2.018067924e-09
2.024345468e-09
2.030568975e-09
2.036742873e-09
2.042870093e-09
2.048951859e-09
2.054987825e-09
2.060976407e-09
2.06691521e-09
2.072801522e-09
2.078632828e-09
2.084407275e-09
2.090124027e-09
2.095783427e-09
2.10138698e-09
2.106937294e-09
2.112437207e-09
2.117890269e-09
2.123299586e-09
2.128667824e-09
2.133997013e-09
2.139288543e-09
2.14454328e-09
2.14976175e-09
2.154944264e-09
2.160091091e-09
2.16520245e-09
2.170278606e-09
2.175320006e-09
2.180327492e-09
2.185302524e-09
2.19024734e-09
2.19516511e-09
2.200059571e-09
2.204934831e-09
2.209795122e-09
2.214644603e-09
2.219487199e-09
2.224326438e-09
2.229165299e-09
2.234006138e-09
2.238850676e-09
2.24370006e-09
2.248554954e-09
2.253415644e-09
2.258282141e-09
2.263154235e-09
2.268031481e-09
2.272913047e-09
2.278126742e-09
2.283565439e-09
2.289006775e-09
2.294453997e-09
2.299912894e-09
2.305389321e-09
2.310888578e-09
2.316415469e-09
2.321974415e-09
2.327569512e-09
2.333204556e-09
2.338883066e-09
2.344608315e-09
2.350383362e-09
2.356211095e-09
2.362094351e-09
2.368036555e-09
2.374041048e-09
2.380111606e-09
2.386251739e-09
2.392464374e-09
2.398751455e-09
2.40511645e-09
2.411565243e-09
2.418104228e-09
2.424738516e-09
2.431472594e-09
2.438310539e-09
2.445256123e-09
2.452312919e-09
2.459484362e-09
2.466773794e-09
2.474184518e-09
2.481719865e-09
2.489383264e-09
2.497178321e-09
2.505108861e-09
2.513178949e-09
2.521392869e-09
2.529755092e-09
2.538270255e-09
2.546943149e-09
2.555778719e-09
2.564782047e-09
2.573958352e-09
2.583312974e-09
2.592851387e-09
2.602579177e-09
2.612502043e-09
2.622625734e-09
2.632956055e-09
2.643498814e-09
2.654259693e-09
2.665244152e-09
2.676457087e-09
2.6881578e-09
2.700693528e-09
2.713500497e-09
2.726627739e-09
2.740292871e-09
2.754493832e-09
2.769052437e-09
2.783943581e-09
2.799169822e-09
2.814738244e-09
2.830656723e-09
2.846933546e-09
2.8635776e-09
2.88059861e-09
2.898007328e-09
2.915814954e-09
2.934031564e-09
2.952666606e-09
2.971729474e-09
2.99123092e-09
3.0111886e-09
3.031605017e-09
3.052481831e-09
3.07382453e-09
3.095639062e-09
3.117930558e-09
3.140713315e-09
3.164001067e-09
3.187806025e-09
3.21213869e-09
3.237007942e-09
3.262423954e-09
3.288926473e-09
3.316529574e-09
3.344770601e-09
3.373675158e-09
3.403263709e-09
3.433555431e-09
3.46456938e-09
3.500336395e-09
3.537827454e-09
3.57623818e-09
3.61559725e-09
3.655917505e-09
3.697220367e-09
3.739529967e-09
3.782873192e-09
3.827280377e-09
3.872783758e-09
3.919417777e-09
3.967215127e-09
4.016206377e-09
4.066443051e-09
4.1179725e-09
4.1708275e-09
4.225012715e-09
4.280568088e-09
4.337522579e-09
4.402025441e-09
4.469166432e-09
4.538021175e-09
4.608709794e-09
4.681427882e-09
4.756371546e-09
4.833711428e-09
4.913595905e-09
4.996162183e-09
5.081530422e-09
5.169866324e-09
5.261348205e-09
5.360888419e-09
5.468845132e-09
5.581058424e-09
5.69787657e-09
5.819466709e-09
5.946069553e-09
6.07808489e-09
6.219317766e-09
6.366881576e-09
6.528136915e-09
6.700118692e-09
6.87869413e-09
7.065491386e-09
7.261576086e-09
7.468008761e-09
7.685820333e-09
7.925333377e-09
8.181141361e-09
8.452112502e-09
8.739650683e-09
9.045326479e-09
9.379789657e-09
9.750990736e-09
1.014690956e-08
1.057061519e-08
1.103738016e-08
1.158859982e-08
1.218706919e-08
1.283779601e-08
1.356076857e-08
1.438646345e-08
1.529295387e-08
1.634812905e-08
1.75839485e-08
1.896512625e-08
2.053220516e-08
2.234978577e-08
2.444695334e-08
2.695829296e-08
2.99024995e-08
3.355061746e-08
3.79537662e-08
4.345632365e-08
5.036913575e-08
5.921325524e-08
7.10733863e-08
8.708666322e-08
1.105488591e-07
1.485042612e-07
2.191820129e-07
3.815016501e-07
8.186782962e-07
2.100869077e-06
5.374955857e-06
9.994942068e-06
1.008845624e-05
6.08735222e-06
2.251312038e-06
1.863285641e-07
6.2173984e-08
1.355889298e-08
9.626686924e-09
6.407073791e-09
3.928759803e-09
2.085775229e-09
7.049631175e-10
2.109847588e-10
8.547120522e-11
3.755533708e-11
1.536147686e-11
4.333828658e-12
3.039068018e-13
2.398919641e-13
1.90781356e-13
1.523603806e-13
1.219550581e-13
9.772994e-14
7.833589224e-14
6.278232704e-14
5.030094612e-14
4.027713518e-14
3.223074799e-14
2.577238661e-14
2.059142706e-14
1.64383785e-14
1.311099302e-14
1.044774757e-14
8.317718869e-15
6.61558498e-15
5.256735077e-15
4.172873075e-15
3.309184894e-15
2.621622162e-15
2.074785817e-15
1.640305246e-15
1.295435201e-15
1.021963825e-15
8.053297668e-16
6.339004442e-16
4.983845572e-16
3.913737907e-16
3.069651189e-16
2.404578096e-16
1.881151837e-16
1.469679005e-16
1.146602128e-16
8.932421364e-17
6.948073427e-17
5.39594334e-17
4.183534316e-17
3.237823475e-17
2.501223657e-17
1.928374587e-17
1.483589191e-17
1.138818875e-17
8.720501295e-18
6.660244652e-18
5.07229219e-18
3.850981788e-18
2.913812688e-18
2.196448828e-18
1.648802453e-18
1.231935823e-18
9.156272423e-19
6.764594237e-19
4.963207236e-19
3.612312085e-19
2.604253502e-19
1.856202231e-19
1.304748186e-19
9.01302662e-20
6.088289286e-20
3.991970779e-20
2.510247282e-20
1.482537611e-20
7.872091608e-21
3.344240502e-21
5.73811075e-22
8.911545785e-28
8.911545785e-28
8.911545785e-28
8.911545785e-28
8.911545785e-28
8.911545785e-28
8.911545785e-28
8.911545785e-28
8.911545785e-28
8.911545785e-28
8.911545785e-28
8.911545785e-28
8.911545785e-28
8.911545785e-28
1.884119698e-23
2.350439456e-22
4.413487074e-22
6.39530294e-22
8.271654049e-22
1.000840941e-21
1.162911942e-21
6.248121934e-21
9.18227507e-21
1.112473042e-20
1.22862296e-20
1.326758982e-20
1.365619905e-20
1.373896383e-20
1.370603096e-20
1.372713281e-20
1.356785673e-20
1.35065111e-20
1.342886537e-20
1.333695668e-20
1.300682582e-20
1.280618806e-20
1.265220093e-20
1.263999998e-20
1.250163667e-20
1.24958651e-20
1.217290572e-20
1.210245002e-20
1.217917374e-20
1.219909571e-20
1.19364585e-20
1.167963388e-20
1.165145174e-20
1.175807594e-20
1.174097572e-20
1.169397258e-20
1.156259108e-20
1.144775595e-20
1.151167752e-20
1.148757208e-20
1.15685271e-20
1.157872261e-20
1.139371454e-20
1.135177992e-20
1.134849458e-20
1.129889115e-20
1.103268381e-20
1.093881555e-20
1.109220984e-20
1.115550241e-20
1.125589178e-20
1.105274148e-20
1.103997252e-20
1.105160254e-20
1.093657969e-20
1.085303368e-20
1.081621729e-20
1.077800443e-20
1.08619942e-20
1.091381182e-20
1.094840633e-20
1.070782913e-20
1.068354865e-20
1.079546464e-20
1.073270554e-20
1.060326174e-20
1.061524137e-20
1.066436265e-20
1.07575947e-20
1.067332169e-20
1.057054173e-20
1.041320342e-20
1.040679995e-20
1.015774896e-20
1.017759686e-20
1.009396458e-20
1.00219657e-20
1.010593503e-20
1.019073861e-20
1.000097899e-20
9.945574708e-21
9.940339986e-21
9.914973658e-21
9.960164476e-21
9.898309376e-21
9.89960689e-21
9.903858217e-21
9.710462631e-21
9.703684192e-21
9.58451537e-21
9.52432783e-21
9.50188314e-21
9.459042093e-21
9.53343418e-21
9.410417799e-21
9.483824472e-21
9.388801085e-21
9.404404467e-21
9.413996347e-21
9.471322277e-21
9.383780454e-21
9.462141514e-21
9.343138963e-21
9.149757541e-21
9.113595505e-21
9.135945688e-21
9.02287808e-21
8.84221348e-21
8.772119595e-21
8.869743877e-21
8.875967514e-21
8.700548898e-21
8.714029345e-21
8.64273015e-21
8.53148713e-21
8.468611539e-21
8.427699902e-21
8.496617341e-21
8.380625666e-21
8.151256239e-21
8.06002341e-21
7.995968344e-21
8.043859958e-21
7.887050207e-21
7.84385274e-21
7.906016564e-21
7.886602245e-21
7.80058026e-21
7.700694154e-21
7.560572153e-21
7.527879807e-21
7.683438509e-21
7.658805052e-21
7.499804577e-21
7.223248205e-21
7.230278369e-21
7.185277354e-21
7.020249321e-21
7.023436783e-21
7.082121202e-21
6.913027133e-21
6.956143783e-21
7.109409369e-21
6.999490644e-21
6.632247951e-21
6.619419084e-21
6.541191771e-21
6.497002613e-21
6.552224692e-21
6.414984395e-21
6.284071547e-21
6.182895813e-21
6.166968786e-21
6.153214943e-21
6.19464845e-21
6.093814026e-21
6.077942106e-21
5.767095037e-21
5.536947475e-21
5.400994912e-21
5.363052734e-21
5.282168536e-21
5.52092471e-21
5.486911034e-21
5.359789692e-21
5.102360018e-21
4.936241276e-21
4.801578405e-21
4.802725831e-21
4.626598823e-21
4.537321303e-21
4.457655158e-21
4.396685635e-21
4.286082398e-21
4.206323103e-21
4.144021461e-21
4.04147563e-21
3.934517122e-21
3.913864909e-21
3.718708739e-21
3.587184973e-21
3.386355709e-21
3.262577311e-21
3.180478561e-21
3.086661083e-21
3.140003529e-21
3.043612064e-21
2.808396996e-21
2.737534754e-21
2.415349794e-21
2.152280211e-21
2.066921951e-21
1.80585881e-21
1.742114425e-21
1.494459022e-21
1.456320891e-21
1.315144332e-21
9.990371799e-22
5.306157891e-22
1.875960999e-22
1.413211987e-09
1.414869871e-09
1.417899328e-09
1.422089721e-09
1.427253602e-09
1.433230292e-09
1.439889862e-09
1.447130119e-09
1.454870224e-09
1.463039818e-09
1.471578618e-09
1.48043595e-09
1.489567657e-09
1.498933716e-09
1.508497781e-09
1.518229797e-09
1.528102497e-09
1.538091363e-09
1.548174695e-09
1.558333107e-09
1.569398928e-09
1.581391853e-09
1.59343254e-09
1.605512474e-09
1.6176224e-09
1.629751787e-09
1.641887842e-09
1.654014515e-09
1.666111966e-09
1.678157115e-09
1.690125918e-09
1.701998451e-09
1.713767779e-09
1.725439339e-09
1.737022114e-09
1.748523312e-09
1.759945882e-09
1.771288513e-09
1.782547672e-09
1.793721067e-09
1.804810851e-09
1.815822566e-09
1.826763105e-09
1.837637943e-09
1.848449208e-09
1.859195095e-09
1.869870056e-09
1.880465338e-09
1.890969766e-09
1.901370921e-09
1.911657254e-09
1.921820891e-09
1.931860815e-09
1.941779594e-09
1.951583517e-09
1.961281862e-09
1.970884504e-09
1.980400942e-09
1.989837836e-09
1.999198587e-09
2.008483806e-09
2.017692136e-09
2.026821145e-09
2.035867885e-09
2.04482844e-09
2.054751851e-09
2.064725024e-09
2.07459107e-09
2.084344708e-09
2.093981437e-09
2.103500458e-09
2.112904734e-09
2.122200251e-09
2.131394532e-09
2.140495471e-09
2.149511152e-09
2.158450177e-09
2.167319904e-09
2.17612493e-09
2.18486685e-09
2.193544641e-09
2.202155251e-09
2.21069429e-09
2.219156816e-09
2.227538185e-09
2.235834855e-09
2.244045022e-09
2.252168882e-09
2.260208651e-09
2.268168279e-09
2.276052516e-09
2.283866874e-09
2.29161629e-09
2.299304812e-09
2.306935344e-09
2.314509668e-09
2.322028685e-09
2.329492784e-09
2.336902147e-09
2.344256892e-09
2.351557035e-09
2.35880253e-09
2.365993474e-09
2.373130523e-09
2.380215746e-09
2.387253269e-09
2.394246386e-09
2.401200685e-09
2.408122447e-09
2.415018067e-09
2.421893779e-09
2.428755478e-09
2.435608445e-09
2.442457078e-09
2.449304746e-09
2.456153806e-09
2.463005719e-09
2.469861223e-09
2.476720534e-09
2.483583563e-09
2.490450116e-09
2.497320128e-09
2.50419402e-09
2.511073628e-09
2.517960379e-09
2.524856224e-09
2.531764932e-09
2.53869182e-09
2.545642756e-09
2.552623719e-09
2.559640542e-09
2.566698776e-09
2.573803654e-09
2.580960069e-09
2.588172569e-09
2.595445374e-09
2.602782408e-09
2.610187274e-09
2.617663007e-09
2.625972139e-09
2.634363772e-09
2.642838162e-09
2.651400987e-09
2.660057614e-09
2.668813367e-09
2.677784277e-09
2.687143749e-09
2.696634914e-09
2.706264428e-09
2.716038572e-09
2.725963267e-09
2.736043881e-09
2.746285653e-09
2.756693628e-09
2.767272696e-09
2.778027674e-09
2.788963409e-09
2.800084914e-09
2.8113975e-09
2.822906874e-09
2.834619167e-09
2.846540872e-09
2.858678772e-09
2.871039893e-09
2.883631468e-09
2.896460937e-09
2.909535962e-09
2.92286445e-09
2.936454552e-09
2.950314595e-09
2.964453131e-09
2.978878853e-09
2.993600677e-09
3.00862759e-09
3.023968631e-09
3.039632952e-09
3.055629735e-09
3.071968264e-09
3.0886581e-09
3.105712893e-09
3.123159006e-09
3.141040055e-09
3.159416132e-09
3.178297505e-09
3.197651354e-09
3.217461949e-09
3.237728681e-09
3.258457704e-09
3.279658163e-09
3.301340863e-09
3.323517951e-09
3.346203133e-09
3.36941285e-09
3.393170492e-09
3.41748722e-09
3.442373908e-09
3.467842212e-09
3.493901614e-09
3.521880488e-09
3.551033871e-09
3.580872174e-09
3.611409094e-09
3.642658494e-09
3.674635403e-09
3.707358708e-09
3.740850216e-09
3.775129105e-09
3.810215704e-09
3.846131847e-09
3.882902601e-09
3.92056044e-09
3.959139781e-09
3.998677452e-09
4.039222337e-09
4.080789658e-09
4.12339867e-09
4.167058295e-09
4.211735276e-09
4.257507207e-09
4.306791737e-09
4.360391285e-09
4.415401261e-09
4.471863716e-09
4.529818666e-09
4.589309805e-09
4.650389587e-09
4.713101761e-09
4.777520861e-09
4.843719772e-09
4.912988112e-09
4.984585186e-09
5.05821551e-09
5.133951214e-09
5.217074636e-09
5.305009542e-09
5.395531959e-09
5.488731947e-09
5.584647316e-09
5.683374199e-09
5.785106615e-09
5.890090601e-09
5.998578274e-09
6.11082689e-09
6.233395612e-09
6.363442092e-09
6.498275133e-09
6.638153289e-09
6.783404774e-09
6.93442891e-09
7.091611585e-09
7.255333428e-09
7.435496499e-09
7.623878939e-09
7.820516682e-09
8.02592148e-09
8.240544855e-09
8.46495942e-09
8.711497323e-09
8.974112771e-09
9.249722105e-09
9.539851542e-09
9.846127013e-09
1.018372387e-08
1.055149797e-08
1.094265881e-08
1.136592789e-08
1.18246831e-08
1.233617829e-08
1.288471286e-08
1.347387405e-08
1.412323738e-08
1.483738559e-08
1.561181711e-08
1.646697186e-08
1.742599266e-08
1.850764484e-08
1.972881355e-08
2.110591825e-08
2.264873241e-08
2.442441795e-08
2.64729323e-08
2.885464697e-08
3.157969279e-08
3.490957445e-08
3.880796408e-08
4.350878754e-08
4.912444581e-08
5.614184315e-08
6.48594501e-08
7.59717108e-08
9.030498303e-08
1.091802009e-07
1.348363608e-07
1.70883474e-07
2.247576155e-07
3.127084713e-07
4.735053863e-07
8.32676299e-07
1.748912226e-06
4.325920425e-06
1.064853409e-05
2.026129221e-05
2.316695405e-05
1.637999336e-05
7.859228612e-06
2.692601342e-06
6.858048831e-07
2.303858295e-07
8.063518973e-08
2.797118117e-08
1.363874011e-08
8.768687215e-09
5.135562507e-09
2.061992633e-09
7.459837505e-10
3.145152987e-10
1.607324579e-10
8.069490086e-11
3.812467578e-11
1.568486552e-11
3.714200968e-12
2.341302106e-13
1.864011254e-13
1.486978136e-13
1.187890029e-13
9.492766524e-14
7.586795474e-14
6.062970811e-14
4.842824372e-14
3.866711815e-14
3.085438102e-14
2.460268939e-14
1.960519644e-14
1.560917156e-14
1.241805055e-14
9.871031086e-15
7.839252269e-15
6.220328573e-15
4.931143145e-15
3.905465988e-15
3.090238251e-15
2.442795764e-15
1.92910293e-15
1.521906157e-15
1.199416798e-15
9.44256689e-16
7.425762783e-16
5.833209695e-16
4.576955272e-16
3.587055039e-16
2.807826266e-16
2.195123135e-16
1.713880078e-16
1.336330362e-16
1.0404801e-16
8.089355532e-17
6.279489873e-17
4.866662359e-17
3.765279025e-17
2.907896855e-17
2.241447304e-17
1.724219183e-17
1.323451572e-17
1.013460352e-17
7.74119428e-18
5.89685983e-18
4.478564611e-18
3.390309262e-18
2.557278331e-18
1.921254232e-18
1.437006886e-18
1.069439431e-18
7.913744697e-19
5.818014609e-19
4.244995494e-19
3.069847631e-19
2.196589558e-19
1.551630768e-19
1.078643355e-19
7.347156199e-20
4.871638993e-20
3.112010746e-20
1.881197799e-20
1.037575323e-20
4.758935857e-21
1.166546892e-21
8.911545785e-28
8.911545785e-28
8.911545785e-28
8.911545785e-28
8.911545785e-28
8.911545785e-28
8.911545785e-28
8.911545785e-28
8.911545785e-28
8.911545785e-28
8.911545785e-28
8.911545785e-28
8.911545785e-28
8.911545785e-28
8.911545785e-28
6.442313253e-23
2.947561105e-22
5.053101805e-22
6.925527851e-22
8.579856878e-22
1.000311911e-21
1.120162878e-21
6.845704895e-21
1.182437422e-20
1.515491583e-20
1.751884748e-20
1.903173036e-20
1.971875825e-20
2.010828138e-20
2.038966641e-20
2.045870662e-20
2.041916744e-20
2.035406883e-20
2.013104918e-20
1.97651258e-20
1.955881198e-20
1.940965391e-20
1.926695152e-20
1.908851319e-20
1.894209343e-20
1.862642398e-20
1.846887792e-20
1.834926243e-20
1.815833892e-20
1.800316158e-20
1.786723041e-20
1.782613395e-20
1.778079838e-20
1.768152515e-20
1.766333563e-20
1.76277572e-20
1.73996774e-20
1.735377671e-20
1.734481921e-20
1.737945857e-20
1.718614683e-20
1.707296267e-20
1.699913967e-20
1.688099282e-20
1.675896671e-20
1.660308531e-20
1.650249122e-20
1.65915539e-20
1.656639478e-20
1.662589585e-20
1.649149228e-20
1.652117725e-20
1.634408959e-20
1.634103682e-20
1.621700379e-20
1.621545036e-20
1.610549063e-20
1.620873337e-20
1.620822336e-20
1.616704886e-20
1.605112883e-20
1.590618404e-20
1.578744867e-20
1.579801477e-20
1.57048725e-20
1.581505853e-20
1.582926301e-20
1.57258911e-20
1.559201412e-20
1.54985325e-20
1.541995551e-20
1.535264087e-20
1.524278063e-20
1.52044498e-20
1.511867502e-20
1.5068506e-20
1.509678917e-20
1.50610328e-20
1.500569091e-20
1.480800211e-20
1.487607356e-20
1.470384815e-20
1.479215603e-20
1.477837629e-20
1.478202007e-20
1.465844586e-20
1.46064225e-20
1.439942121e-20
1.431686938e-20
1.409851165e-20
1.401879418e-20
1.387572322e-20
1.392260501e-20
1.382424603e-20
1.392598457e-20
1.390507335e-20
1.403301153e-20
1.39649216e-20
1.386141363e-20
1.370531281e-20
1.384617213e-20
1.361653303e-20
1.352855775e-20
1.35036244e-20
1.327978372e-20
1.306851653e-20
1.308214031e-20
1.287837127e-20
1.278351173e-20
1.283329565e-20
1.280372339e-20
1.279149762e-20
1.281484785e-20
1.263898796e-20
1.252686287e-20
1.241173519e-20
1.226772806e-20
1.204928453e-20
1.199682091e-20
1.184265145e-20
1.170146943e-20
1.16930376e-20
1.159056482e-20
1.148386513e-20
1.168070025e-20
1.167727838e-20
1.155242426e-20
1.134690867e-20
1.10411739e-20
1.083651746e-20
1.092515936e-20
1.096892497e-20
1.069821329e-20
1.033404192e-20
1.028749523e-20
1.015065425e-20
1.021629268e-20
1.029270976e-20
1.013836283e-20
9.989799692e-21
1.007995509e-20
1.020127234e-20
1.011738455e-20
9.853006188e-21
9.700433127e-21
9.566833647e-21
9.430538292e-21
9.576703622e-21
9.49541471e-21
9.294165086e-21
9.001017489e-21
9.095535851e-21
9.013884651e-21
8.839913227e-21
8.873955355e-21
8.729565026e-21
8.455329089e-21
8.062755145e-21
7.801604658e-21
7.800281435e-21
7.795173048e-21
7.87040822e-21
7.577275734e-21
7.49924734e-21
7.315889831e-21
7.185908772e-21
6.840789017e-21
6.60255916e-21
6.544836465e-21
6.481387524e-21
6.473861704e-21
6.474284083e-21
6.242771754e-21
6.124127168e-21
6.057095892e-21
5.798693959e-21
5.575134213e-21
5.361056132e-21
5.324305637e-21
5.178042015e-21
4.748300592e-21
4.610375246e-21
4.463198856e-21
4.212838746e-21
4.178416981e-21
4.045757113e-21
3.80545208e-21
3.592870905e-21
3.325776231e-21
3.100241274e-21
2.900982036e-21
2.671550751e-21
2.467418542e-21
2.21897759e-21
1.987561314e-21
1.710072682e-21
1.403617313e-21
8.625191541e-22
3.269453577e-22
1.313022236e-09
1.315098105e-09
1.318877655e-09
1.32408661e-09
1.330477008e-09
1.337829323e-09
1.34597165e-09
1.354787379e-09
1.364184733e-09
1.374081048e-09
1.384405856e-09
1.395104516e-09
1.406128294e-09
1.417468401e-09
1.431281148e-09
1.445323766e-09
1.459559902e-09
1.473956529e-09
1.488484921e-09
1.50312056e-09
1.517842808e-09
1.532636945e-09
1.54749329e-09
1.562403277e-09
1.577358283e-09
1.592348256e-09
1.607359988e-09
1.622375039e-09
1.637367975e-09
1.652305881e-09
1.667149904e-09
1.681858178e-09
1.696421537e-09
1.710861096e-09