/*--------------------------------*- C++ -*----------------------------------*\
| =========                 |                                                 |
| \\      /  F ield         | OpenFOAM: The Open Source CFD Toolbox           |
|  \\    /   O peration     | Version:  v2006                                 |
|   \\  /    A nd           | Website:  www.openfoam.com                      |
|    \\/     M anipulation  |                                                 |
\*---------------------------------------------------------------------------*/
FoamFile
{
    version     2.0;
    format      ascii;
    class       volScalarField;
    location    "0.09";
    object      HO2;
}
// * * * * * * * * * * * * * * * * * * * * * * * * * * * * * * * * * * * * * //

dimensions      [0 0 0 0 0 0 0];


internalField   nonuniform List<scalar> 
72000
(
8.235584198e-05
8.236633242e-05
8.238613151e-05
8.241432404e-05
8.244999355e-05
8.249227499e-05
8.254036466e-05
8.259352553e-05
8.265110479e-05
8.271251145e-05
8.277719459e-05
8.284463073e-05
8.291442624e-05
8.298627557e-05
8.305988003e-05
8.313496314e-05
8.32112717e-05
8.32885792e-05
8.336668796e-05
8.344542837e-05
8.352465338e-05
8.360423645e-05
8.368406694e-05
8.376404285e-05
8.384406815e-05
8.39240472e-05
8.400387943e-05
8.408345615e-05
8.416266102e-05
8.424137573e-05
8.431949142e-05
8.439692428e-05
8.447362842e-05
8.454959341e-05
8.462482802e-05
8.469934381e-05
8.477314527e-05
8.484622869e-05
8.491858838e-05
8.49902261e-05
8.506115763e-05
8.513141152e-05
8.520102175e-05
8.527001784e-05
8.533841656e-05
8.540621725e-05
8.54734009e-05
8.553993184e-05
8.560576103e-05
8.567083149e-05
8.573509205e-05
8.57985157e-05
8.586109995e-05
8.592285202e-05
8.598377251e-05
8.604381656e-05
8.610142652e-05
8.615836631e-05
8.62147055e-05
8.627048112e-05
8.63257105e-05
8.638039857e-05
8.643454302e-05
8.648813766e-05
8.654117324e-05
8.659363643e-05
8.664551865e-05
8.669680839e-05
8.674749436e-05
8.679757053e-05
8.684704111e-05
8.68959224e-05
8.694424181e-05
8.699203458e-05
8.703934004e-05
8.708619844e-05
8.713264791e-05
8.717872025e-05
8.722443747e-05
8.726981049e-05
8.731483983e-05
8.735951772e-05
8.740383098e-05
8.744776447e-05
8.749130446e-05
8.753444184e-05
8.75771743e-05
8.761950742e-05
8.76614545e-05
8.770303522e-05
8.774427252e-05
8.778519179e-05
8.782581682e-05
8.786616824e-05
8.790626257e-05
8.794611214e-05
8.798572592e-05
8.802511102e-05
8.806427179e-05
8.810321407e-05
8.814194281e-05
8.818046391e-05
8.821878502e-05
8.825691671e-05
8.829487354e-05
8.83326747e-05
8.837034428e-05
8.840791017e-05
8.844540297e-05
8.84828546e-05
8.852029691e-05
8.855776033e-05
8.859527266e-05
8.863285803e-05
8.867053632e-05
8.8708323e-05
8.874622945e-05
8.87842635e-05
8.882243005e-05
8.886073148e-05
8.889916742e-05
8.893773327e-05
8.897641674e-05
8.901519535e-05
8.905406694e-05
8.90930272e-05
8.913207335e-05
8.917129699e-05
8.921075772e-05
8.925049964e-05
8.929055908e-05
8.933096812e-05
8.937175598e-05
8.941294973e-05
8.945457464e-05
8.949665447e-05
8.953921179e-05
8.958226825e-05
8.962584498e-05
8.966996286e-05
8.971464756e-05
8.97599234e-05
8.980581154e-05
8.98523256e-05
8.989889469e-05
8.994545539e-05
8.999270537e-05
9.004068743e-05
9.008943606e-05
9.013898091e-05
9.018934857e-05
9.024056353e-05
9.029264875e-05
9.034562606e-05
9.039951645e-05
9.045434046e-05
9.051011859e-05
9.05668718e-05
9.062462182e-05
9.068339147e-05
9.074320473e-05
9.080408659e-05
9.086606288e-05
9.092916009e-05
9.099340523e-05
9.105882584e-05
9.112545002e-05
9.119330648e-05
9.12624245e-05
9.133283387e-05
9.140456471e-05
9.147764743e-05
9.155211228e-05
9.162798921e-05
9.170530735e-05
9.178409409e-05
9.186437358e-05
9.194616344e-05
9.202946982e-05
9.211423273e-05
9.22002399e-05
9.228686965e-05
9.237057401e-05
9.245156874e-05
9.253309396e-05
9.26157691e-05
9.26997911e-05
9.278523295e-05
9.287212897e-05
9.296050214e-05
9.305037344e-05
9.314176521e-05
9.323470183e-05
9.33292071e-05
9.342530001e-05
9.352299539e-05
9.362230636e-05
9.372324666e-05
9.382582514e-05
9.393003444e-05
9.403585551e-05
9.414326398e-05
9.42522187e-05
9.436092501e-05
9.447098686e-05
9.458262799e-05
9.469585991e-05
9.481067018e-05
9.492701712e-05
9.504484564e-05
9.51642523e-05
9.528531936e-05
9.540812126e-05
9.553271731e-05
9.565915503e-05
9.578750523e-05
9.591794649e-05
9.605100575e-05
9.618635569e-05
9.632378469e-05
9.64632296e-05
9.660466009e-05
9.674805873e-05
9.689341793e-05
9.704073714e-05
9.719002058e-05
9.734126996e-05
9.74944726e-05
9.764958333e-05
9.780655769e-05
9.79654912e-05
9.812642242e-05
9.82893349e-05
9.845416473e-05
9.862079975e-05
9.87890131e-05
9.895832606e-05
9.912741909e-05
9.927235915e-05
9.940951953e-05
9.954684968e-05
9.968523309e-05
9.98250917e-05
9.996663028e-05
0.0001001098758
0.0001002546779
0.0001004013056
0.0001005498822
0.0001007004167
0.0001008530555
0.0001010080985
0.0001011657288
0.0001013259909
0.0001014888859
0.0001016544304
0.0001018227076
0.0001019939617
0.0001021690206
0.0001023380626
0.0001025004338
0.0001026665439
0.0001028366717
0.0001030114669
0.0001031916806
0.0001033784246
0.0001035718122
0.0001037721305
0.0001039799557
0.0001041940245
0.0001044155651
0.0001046155479
0.0001048242505
0.0001050435632
0.000105274807
0.0001055197346
0.0001057786188
0.0001060531207
0.0001063317217
0.0001066021517
0.0001068933625
0.0001072078042
0.0001075501829
0.0001079177478
0.0001082853669
0.0001086918521
0.0001091529654
0.0001096781096
0.0001102244758
0.0001107944148
0.0001114726306
0.0001122764457
0.0001130642795
0.0001140479874
0.0001152974255
0.000116749051
0.000118555131
0.0001208784777
0.0001238275978
0.0001277026
0.0001327341556
0.0001392915396
0.0001476288553
0.000157605715
0.0001676502812
0.0001767456363
0.0002678790884
0.0003616939076
0.0002136539804
0.0001221721912
7.852339757e-05
5.191855379e-05
3.476568156e-05
2.336496188e-05
1.570890049e-05
1.139884107e-05
8.208064684e-06
5.566724928e-06
3.848615375e-06
2.820912345e-06
2.163265421e-06
1.694956821e-06
1.343885467e-06
1.072348106e-06
8.585665229e-07
6.885259709e-07
5.524754195e-07
4.433050307e-07
3.555896731e-07
2.850689671e-07
2.28378584e-07
1.828191569e-07
1.462252831e-07
1.168535779e-07
9.329575222e-08
7.441781752e-08
5.930331578e-08
4.721304166e-08
3.75512586e-08
2.983752504e-08
2.368513891e-08
1.878297258e-08
1.488085747e-08
1.177791559e-08
9.312970828e-09
7.356840727e-09
5.806106041e-09
4.578053025e-09
3.606575816e-09
2.838905216e-09
2.232956233e-09
1.755195903e-09
1.378937958e-09
1.082964076e-09
8.504238193e-10
6.679474845e-10
5.249391647e-10
4.130095521e-10
3.255236223e-10
2.572395905e-10
2.04020914e-10
1.626071362e-10
1.304312791e-10
1.054746596e-10
8.615177625e-11
7.121886565e-11
5.970151485e-11
5.083730108e-11
4.40304956e-11
3.881633826e-11
3.483271251e-11
3.17979337e-11
2.949325448e-11
2.774904496e-11
2.643406495e-11
2.544690434e-11
2.47094113e-11
2.41614539e-11
2.375693064e-11
2.346050172e-11
2.32452248e-11
2.309062052e-11
2.298107508e-11
2.290486493e-11
2.285319016e-11
2.28195182e-11
2.279916573e-11
2.278954391e-11
2.278954391e-11
2.278954391e-11
2.278954391e-11
2.278954391e-11
2.278954391e-11
2.278954391e-11
2.278954391e-11
2.278954391e-11
2.278954391e-11
2.278954391e-11
2.278954391e-11
2.278954391e-11
2.278954391e-11
2.279031146e-11
2.279167481e-11
2.27931011e-11
2.279450682e-11
2.279589547e-11
2.279728275e-11
2.279882608e-11
2.280029804e-11
2.280136159e-11
2.280210322e-11
2.280264816e-11
2.280305236e-11
2.280329604e-11
2.280345008e-11
2.280350307e-11
2.280356337e-11
2.280355328e-11
2.280356294e-11
2.280350598e-11
2.280345444e-11
2.280338563e-11
2.280332433e-11
2.280327975e-11
2.280325684e-11
2.280324235e-11
2.28031734e-11
2.2803105e-11
2.280306216e-11
2.28030477e-11
2.280304144e-11
2.280296668e-11
2.280284322e-11
2.280277037e-11
2.280273178e-11
2.280270161e-11
2.280267962e-11
2.280266619e-11
2.280259858e-11
2.280256556e-11
2.280254652e-11
2.280254595e-11
2.280255035e-11
2.28024837e-11
2.280244195e-11
2.280242566e-11
2.280235496e-11
2.280230163e-11
2.280221776e-11
2.280218919e-11
2.280218319e-11
2.280218811e-11
2.280212169e-11
2.280208438e-11
2.28020425e-11
2.280201685e-11
2.280193834e-11
2.28018879e-11
2.280186187e-11
2.280186809e-11
2.280189764e-11
2.28018738e-11
2.280179375e-11
2.280177535e-11
2.280179411e-11
2.280175713e-11
2.280167358e-11
2.280163124e-11
2.28016118e-11
2.280161267e-11
2.280154015e-11
2.280147798e-11
2.280142634e-11
2.280140689e-11
2.280133994e-11
2.280125581e-11
2.280113601e-11
2.280103454e-11
2.280100529e-11
2.280098512e-11
2.280096299e-11
2.280088901e-11
2.280084456e-11
2.280081477e-11
2.280081008e-11
2.280074595e-11
2.280069981e-11
2.28006619e-11
2.280062415e-11
2.280060961e-11
2.280053372e-11
2.280048769e-11
2.280047285e-11
2.280041369e-11
2.280038943e-11
2.280030373e-11
2.280025035e-11
2.280020691e-11
2.280018399e-11
2.280017099e-11
2.280017132e-11
2.280017128e-11
2.280010943e-11
2.280004216e-11
2.279997136e-11
2.279991302e-11
2.279986654e-11
2.279981327e-11
2.279977566e-11
2.279969304e-11
2.279965868e-11
2.279964008e-11
2.27995626e-11
2.279952938e-11
2.279945397e-11
2.279933365e-11
2.279924757e-11
2.279918267e-11
2.279913904e-11
2.279909951e-11
2.279899607e-11
2.279892791e-11
2.279881948e-11
2.279874116e-11
2.279866953e-11
2.279862192e-11
2.279859371e-11
2.279857842e-11
2.279851149e-11
2.279846884e-11
2.279838064e-11
2.279833579e-11
2.279833701e-11
2.279828572e-11
2.279818733e-11
2.27980455e-11
2.279797075e-11
2.279786652e-11
2.279772526e-11
2.279763781e-11
2.279759087e-11
2.279749086e-11
2.279743331e-11
2.279741195e-11
2.279732838e-11
2.279718597e-11
2.279710145e-11
2.279698375e-11
2.279683264e-11
2.279670679e-11
2.279659989e-11
2.279649199e-11
2.279639399e-11
2.279631223e-11
2.279622962e-11
2.279615098e-11
2.279606647e-11
2.279598343e-11
2.279581311e-11
2.27956635e-11
2.279555412e-11
2.279547772e-11
2.27953635e-11
2.27952962e-11
2.27952349e-11
2.2795099e-11
2.279497834e-11
2.279481005e-11
2.279467726e-11
2.279458643e-11
2.279445429e-11
2.279429548e-11
2.279410355e-11
2.279394306e-11
2.279379847e-11
2.279366689e-11
2.279354618e-11
2.279344289e-11
2.27932818e-11
2.279314089e-11
2.279300435e-11
2.279288436e-11
2.279270844e-11
2.27925604e-11
2.279244513e-11
2.2792283e-11
2.279214669e-11
2.279200583e-11
2.279186395e-11
2.279173907e-11
2.279154981e-11
2.279139412e-11
2.279121869e-11
2.279100667e-11
2.279084596e-11
2.279063873e-11
2.279047063e-11
2.279031037e-11
2.279008566e-11
2.278985883e-11
2.278964679e-11
7.206849863e-05
7.208440151e-05
7.211304774e-05
7.215230496e-05
7.220033962e-05
7.225569475e-05
7.231719417e-05
7.238387187e-05
7.245496885e-05
7.252982953e-05
7.260789308e-05
7.268867605e-05
7.277176998e-05
7.285681846e-05
7.29435005e-05
7.303156441e-05
7.312078285e-05
7.321094915e-05
7.330187916e-05
7.339341062e-05
7.348540357e-05
7.357775239e-05
7.367037866e-05
7.376320836e-05
7.385616446e-05
7.394916113e-05
7.404209736e-05
7.413485187e-05
7.422728232e-05
7.431923238e-05
7.441055007e-05
7.45011192e-05
7.459089439e-05
7.467989694e-05
7.476817701e-05
7.485578261e-05
7.494274362e-05
7.502907055e-05
7.511476444e-05
7.5199832e-05
7.528429619e-05
7.536819297e-05
7.54515609e-05
7.553442815e-05
7.56168027e-05
7.569866773e-05
7.577998129e-05
7.586067871e-05
7.594067661e-05
7.601987675e-05
7.609674397e-05
7.617135832e-05
7.624504981e-05
7.631784751e-05
7.638980012e-05
7.646096166e-05
7.653139182e-05
7.660117989e-05
7.667038899e-05
7.673905498e-05
7.680719164e-05
7.687479667e-05
7.694185692e-05
7.700835118e-05
7.707424929e-05
7.713951041e-05
7.720411974e-05
7.726805399e-05
7.73312843e-05
7.739378886e-05
7.745556668e-05
7.751663657e-05
7.75770319e-05
7.763679451e-05
7.769596979e-05
7.775460464e-05
7.781274604e-05
7.787043387e-05
7.7927694e-05
7.798453576e-05
7.804095325e-05
7.809692847e-05
7.815243539e-05
7.820744464e-05
7.826192823e-05
7.831586402e-05
7.836923899e-05
7.842205111e-05
7.847430937e-05
7.852603273e-05
7.857724504e-05
7.862797434e-05
7.86782463e-05
7.872808237e-05
7.877749802e-05
7.882650261e-05
7.88751002e-05
7.892329102e-05
7.897107261e-05
7.901844127e-05
7.906539232e-05
7.911192107e-05
7.915802413e-05
7.920370108e-05
7.924895679e-05
7.929380526e-05
7.933827358e-05
7.938239421e-05
7.94262017e-05
7.946973065e-05
7.951301419e-05
7.955608256e-05
7.959896174e-05
7.964167223e-05
7.968422844e-05
7.972663867e-05
7.976890573e-05
7.981102772e-05
7.985299905e-05
7.98948113e-05
7.993645367e-05
7.997791276e-05
8.001917057e-05
8.00592261e-05
8.009840383e-05
8.013738893e-05
8.01762026e-05
8.02148837e-05
8.025347088e-05
8.029199784e-05
8.033049412e-05
8.036898631e-05
8.040749833e-05
8.044605137e-05
8.048466406e-05
8.05233527e-05
8.056213151e-05
8.060101275e-05
8.064000692e-05
8.0679125e-05
8.071838884e-05
8.075781953e-05
8.07974348e-05
8.083724781e-05
8.087726619e-05
8.091750781e-05
8.095800546e-05
8.09987937e-05
8.103989944e-05
8.108134525e-05
8.112315011e-05
8.116532932e-05
8.120789639e-05
8.125086375e-05
8.129424294e-05
8.133804491e-05
8.138228042e-05
8.142696059e-05
8.147209732e-05
8.151770369e-05
8.156379404e-05
8.161038381e-05
8.165748942e-05
8.170512814e-05
8.175331829e-05
8.180207915e-05
8.185143036e-05
8.190139143e-05
8.195198151e-05
8.200322006e-05
8.205512647e-05
8.210772046e-05
8.216102058e-05
8.221504549e-05
8.226981365e-05
8.23253407e-05
8.238164016e-05
8.243872019e-05
8.249509852e-05
8.25487799e-05
8.260317143e-05
8.265854412e-05
8.271627758e-05
8.277631153e-05
8.283744807e-05
8.289950207e-05
8.296246356e-05
8.302634637e-05
8.309116551e-05
8.315693586e-05
8.322367397e-05
8.329139999e-05
8.336013891e-05
8.342991648e-05
8.350074793e-05
8.357264217e-05
8.364560727e-05
8.371965977e-05
8.379485883e-05
8.387116308e-05
8.394852348e-05
8.402691354e-05
8.410630864e-05
8.418668537e-05
8.426805686e-05
8.43504376e-05
8.443383634e-05
8.451825134e-05
8.460366945e-05
8.469007831e-05
8.477651277e-05
8.48630753e-05
8.495080409e-05
8.503976126e-05
8.512997173e-05
8.522144887e-05
8.531420343e-05
8.538732589e-05
8.545685982e-05
8.552729262e-05
8.559864718e-05
8.567084166e-05
8.574385306e-05
8.581767502e-05
8.58923105e-05
8.596777094e-05
8.604407013e-05
8.612120283e-05
8.61991508e-05
8.627790243e-05
8.635748813e-05
8.643792337e-05
8.651918888e-05
8.660122531e-05
8.668393192e-05
8.676712191e-05
8.682310932e-05
8.687323541e-05
8.692161876e-05
8.696857412e-05
8.701471468e-05
8.70605528e-05
8.71064539e-05
8.715274832e-05
8.719948697e-05
8.724661146e-05
8.729421168e-05
8.734237867e-05
8.737431308e-05
8.738979817e-05
8.740497031e-05
8.74202442e-05
8.743528949e-05
8.744995804e-05
8.746394653e-05
8.747209197e-05
8.747909434e-05
8.746532729e-05
8.743459378e-05
8.739920972e-05
8.73619232e-05
8.732378722e-05
8.728572317e-05
8.724813284e-05
8.718787377e-05
8.712212647e-05
8.705742373e-05
8.699426155e-05
8.693266639e-05
8.685220685e-05
8.673860294e-05
8.662853142e-05
8.652369292e-05
8.641716681e-05
8.623310807e-05
8.604937496e-05
8.587068384e-05
8.568152395e-05
8.545483984e-05
8.523767332e-05
8.500077451e-05
8.471876024e-05
8.445222647e-05
8.419419473e-05
8.394476781e-05
8.37136782e-05
8.348851645e-05
8.331429443e-05
8.317742897e-05
8.31115452e-05
8.315111329e-05
8.335778408e-05
8.373314694e-05
8.440226735e-05
8.540317587e-05
8.693369631e-05
8.922463612e-05
9.263871452e-05
9.802871953e-05
0.0001076255984
0.0001291240244
0.0001874534324
0.0003348018444
0.0005372262738
0.0006442343213
0.000598040308
0.0003498590862
0.0002374694723
0.0001512301408
0.0001065634513
7.290835208e-05
4.923292999e-05
3.253118174e-05
1.963352966e-05
1.298738023e-05
8.731779551e-06
5.969247308e-06
4.177035843e-06
2.98210862e-06
2.219699466e-06
1.752147436e-06
1.393453025e-06
1.112833629e-06
8.907590163e-07
7.138234255e-07
5.721730405e-07
4.585727996e-07
3.674112002e-07
2.941992181e-07
2.354299576e-07
1.882593315e-07
1.50418602e-07
1.200855362e-07
9.578295428e-08
7.633112307e-08
6.077380421e-08
4.834174652e-08
3.841696886e-08
3.050064981e-08
2.419243788e-08
1.917061227e-08
1.517662506e-08
1.200326275e-08
9.484398449e-09
7.487016253e-09
5.904762864e-09
4.65267615e-09
3.662894243e-09
2.88130824e-09
2.264803579e-09
1.779047017e-09
1.39674657e-09
1.096214748e-09
8.602456277e-10
6.751963755e-10
5.302634286e-10
4.168988401e-10
3.28346823e-10
2.592739268e-10
2.054740966e-10
1.636343051e-10
1.311480375e-10
1.059666785e-10
8.648240373e-11
7.143468651e-11
5.983658794e-11
5.091637228e-11
4.407146989e-11
3.883198259e-11
3.483207907e-11
3.178736559e-11
2.947710872e-11
2.773027309e-11
2.641457476e-11
2.542790699e-11
2.469164044e-11
2.414527822e-11
2.374250682e-11
2.344783799e-11
2.323422081e-11
2.308110975e-11
2.297288752e-11
2.289782559e-11
2.284704014e-11
2.281396959e-11
2.279373491e-11
2.278954391e-11
2.278954391e-11
2.278954391e-11
2.278954391e-11
2.278954391e-11
2.278954391e-11
2.278954391e-11
2.278954391e-11
2.278954391e-11
2.278954391e-11
2.278954391e-11
2.278954391e-11
2.278954391e-11
2.278954391e-11
2.278968152e-11
2.279126062e-11
2.279276743e-11
2.279421491e-11
2.279558536e-11
2.279685385e-11
2.279803759e-11
2.279939639e-11
2.28003609e-11
2.28010688e-11
2.2801566e-11
2.280196415e-11
2.280221634e-11
2.280236077e-11
2.280243204e-11
2.280248529e-11
2.280249123e-11
2.280249865e-11
2.280248637e-11
2.280246774e-11
2.280240117e-11
2.280234651e-11
2.280230091e-11
2.280228975e-11
2.280225738e-11
2.280223662e-11
2.280215977e-11
2.280212052e-11
2.280211384e-11
2.280209733e-11
2.280201781e-11
2.280191654e-11
2.280186049e-11
2.28018414e-11
2.280181127e-11
2.280178589e-11
2.280174643e-11
2.280169791e-11
2.280168484e-11
2.280166316e-11
2.280166293e-11
2.280165333e-11
2.280159819e-11
2.280155633e-11
2.280152622e-11
2.280148337e-11
2.280139917e-11
2.28013326e-11
2.280132344e-11
2.280131342e-11
2.280131605e-11
2.280125221e-11
2.280122161e-11
2.280119345e-11
2.280114356e-11
2.280109124e-11
2.280105008e-11
2.280101859e-11
2.280102065e-11
2.280102312e-11
2.280101595e-11
2.280095082e-11
2.28009248e-11
2.280092754e-11
2.280089102e-11
2.280083056e-11
2.280079883e-11
2.280078161e-11
2.280077475e-11
2.280072782e-11
2.280067106e-11
2.28006025e-11
2.28005649e-11
2.280047303e-11
2.280041624e-11
2.280033884e-11
2.28002654e-11
2.280023521e-11
2.280021571e-11
2.280015644e-11
2.28001079e-11
2.280007273e-11
2.280003725e-11
2.28000173e-11
2.279997514e-11
2.279994335e-11
2.279991632e-11
2.279985953e-11
2.279983142e-11
2.27997757e-11
2.279973045e-11
2.27996949e-11
2.279965101e-11
2.279962577e-11
2.279956029e-11
2.279953091e-11
2.279948341e-11
2.27994644e-11
2.279945192e-11
2.279945029e-11
2.279941464e-11
2.279939547e-11
2.27993379e-11
2.279926135e-11
2.279921121e-11
2.279917423e-11
2.279911569e-11
2.279904489e-11
2.279898689e-11
2.279895709e-11
2.279892154e-11
2.279884627e-11
2.279880105e-11
2.279873272e-11
2.279865082e-11
2.279857981e-11
2.279852097e-11
2.279848784e-11
2.27984217e-11
2.279832838e-11
2.279825049e-11
2.279817545e-11
2.279812479e-11
2.279804787e-11
2.279799679e-11
2.279797088e-11
2.279793455e-11
2.279788096e-11
2.27978224e-11
2.279775273e-11
2.279770195e-11
2.279768873e-11
2.279763414e-11
2.279754275e-11
2.279741353e-11
2.279733343e-11
2.279724319e-11
2.279712917e-11
2.279705463e-11
2.279699873e-11
2.279690546e-11
2.279685201e-11
2.279682357e-11
2.279674065e-11
2.279660325e-11
2.279651261e-11
2.27964059e-11
2.279629866e-11
2.279621289e-11
2.279610313e-11
2.279599526e-11
2.279589671e-11
2.279581859e-11
2.279574259e-11
2.279567533e-11
2.279557928e-11
2.279549239e-11
2.279534046e-11
2.279519866e-11
2.279507996e-11
2.279498931e-11
2.279489071e-11
2.279485083e-11
2.279476748e-11
2.279465367e-11
2.279451283e-11
2.279437404e-11
2.279424183e-11
2.279413405e-11
2.279399399e-11
2.279385396e-11
2.279370923e-11
2.279357114e-11
2.27934343e-11
2.279330724e-11
2.279318846e-11
2.279306462e-11
2.279293148e-11
2.279281426e-11
2.279267125e-11
2.279253752e-11
2.279238364e-11
2.279224534e-11
2.2792118e-11
2.279198608e-11
2.279187893e-11
2.279174808e-11
2.279159372e-11
2.279146438e-11
2.279128466e-11
2.279110875e-11
2.27909576e-11
2.279077341e-11
2.279062575e-11
2.279044625e-11
2.279030679e-11
2.279015452e-11
2.278997334e-11
2.2789771e-11
2.278960724e-11
6.419722395e-05
6.4217548e-05
6.425418476e-05
6.430406735e-05
6.436461813e-05
6.44337538e-05
6.450985336e-05
6.459171582e-05
6.467842007e-05
6.476920633e-05
6.486344509e-05
6.496061945e-05
6.506028139e-05
6.516201187e-05
6.526538383e-05
6.537019241e-05
6.547620788e-05
6.55832137e-05
6.56910168e-05
6.579944493e-05
6.590495595e-05
6.600733189e-05
6.611000123e-05
6.621291329e-05
6.631600853e-05
6.641921374e-05
6.652243279e-05
6.662553692e-05
6.672835907e-05
6.683069793e-05
6.693233834e-05
6.703310162e-05
6.713293994e-05
6.723192943e-05
6.733017895e-05
6.742777994e-05
6.752478466e-05
6.762120697e-05
6.771704006e-05
6.781228422e-05
6.790697032e-05
6.800114969e-05
6.809487767e-05
6.818819317e-05
6.828110518e-05
6.837358858e-05
6.846558535e-05
6.855700841e-05
6.864774741e-05
6.873767736e-05
6.882667223e-05
6.891464179e-05
6.900153782e-05
6.908740808e-05
6.917235464e-05
6.925648152e-05
6.933988875e-05
6.942266668e-05
6.950487899e-05
6.958655956e-05
6.966771631e-05
6.974833786e-05
6.982840072e-05
6.990787353e-05
6.998671307e-05
7.006116044e-05
7.013438949e-05
7.020690057e-05
7.027863935e-05
7.034955785e-05
7.041965176e-05
7.048894555e-05
7.055748129e-05
7.062530906e-05
7.069247956e-05
7.075904499e-05
7.082506487e-05
7.089059193e-05
7.095565795e-05
7.1020271e-05
7.108441854e-05
7.114807207e-05
7.121119245e-05
7.127373562e-05
7.133565884e-05
7.139692664e-05
7.145751547e-05
7.151741627e-05
7.157663506e-05
7.163519132e-05
7.169311315e-05
7.175043251e-05
7.180717888e-05
7.186337545e-05
7.191903697e-05
7.197416966e-05
7.202877246e-05
7.208283921e-05
7.213636049e-05
7.218932477e-05
7.224171865e-05
7.22935277e-05
7.234473794e-05
7.239533771e-05
7.244531923e-05
7.249468603e-05
7.254347472e-05
7.259172317e-05
7.263946954e-05
7.268675066e-05
7.27336007e-05
7.278004997e-05
7.282612318e-05
7.28718378e-05
7.291720333e-05
7.296222151e-05
7.300688722e-05
7.30511897e-05
7.309511401e-05
7.313864244e-05
7.318175595e-05
7.322443547e-05
7.326666372e-05
7.330842833e-05
7.334972905e-05
7.339057469e-05
7.343098084e-05
7.347097631e-05
7.351059077e-05
7.354985075e-05
7.35887803e-05
7.362740256e-05
7.366573813e-05
7.370380412e-05
7.374161415e-05
7.377917867e-05
7.381650544e-05
7.385359945e-05
7.389046121e-05
7.392510322e-05
7.395953311e-05
7.399378665e-05
7.402787955e-05
7.406182539e-05
7.409563721e-05
7.412877738e-05
7.416042866e-05
7.419194066e-05
7.422332974e-05
7.425461231e-05
7.428580242e-05
7.431690026e-05
7.434790921e-05
7.43788323e-05
7.440967162e-05
7.444042844e-05
7.447110363e-05
7.450169828e-05
7.453221432e-05
7.456265504e-05
7.459302524e-05
7.462333093e-05
7.465357908e-05
7.468377759e-05
7.471393597e-05
7.474406551e-05
7.477417794e-05
7.480428317e-05
7.483438952e-05
7.486450614e-05
7.48946416e-05
7.492480548e-05
7.495500507e-05
7.498524843e-05
7.501554353e-05
7.504589559e-05
7.507630889e-05
7.510678579e-05
7.513732748e-05
7.516795065e-05
7.519872982e-05
7.522981565e-05
7.526143542e-05
7.529358636e-05
7.532607051e-05
7.535877299e-05
7.539164771e-05
7.542467676e-05
7.545785285e-05
7.549117357e-05
7.552464027e-05
7.555825933e-05
7.559204802e-05
7.562605566e-05
7.566026455e-05
7.569465236e-05
7.572920307e-05
7.576389282e-05
7.57922283e-05
7.581795107e-05
7.584351047e-05
7.586887521e-05
7.589401062e-05
7.591888332e-05
7.594346848e-05
7.596774051e-05
7.59916906e-05
7.601530578e-05
7.603856798e-05
7.606146104e-05
7.608398051e-05
7.610615249e-05
7.612803291e-05
7.61497035e-05
7.617107361e-05
7.619206906e-05
7.621257382e-05
7.623230624e-05
7.625142018e-05
7.625869732e-05
7.625060812e-05
7.62413422e-05
7.623086439e-05
7.621913276e-05
7.620610824e-05
7.619176142e-05
7.617610637e-05
7.615905966e-05
7.614053485e-05
7.611894462e-05
7.609535374e-05
7.607018306e-05
7.604334841e-05
7.599612184e-05
7.593783025e-05
7.587649758e-05
7.581196332e-05
7.574392097e-05
7.56722307e-05
7.559700269e-05
7.551843525e-05
7.543668347e-05
7.535184941e-05
7.524738729e-05
7.513191924e-05
7.501273821e-05
7.488973977e-05
7.476282673e-05
7.463190431e-05
7.44969261e-05
7.435793127e-05
7.419270894e-05
7.402145908e-05
7.384508491e-05
7.366335715e-05
7.347603386e-05
7.328273805e-05
7.306177073e-05
7.282498474e-05
7.257994035e-05
7.232713059e-05
7.206654775e-05
7.17785383e-05
7.146776755e-05
7.114728947e-05
7.081555342e-05
7.046788828e-05
7.009047827e-05
6.970275078e-05
6.930420789e-05
6.88837349e-05
6.844309336e-05
6.799061274e-05
6.752006002e-05
6.7024102e-05
6.651061407e-05
6.598089192e-05
6.543150381e-05
6.486272372e-05
6.430063256e-05
6.372427637e-05
6.314392255e-05
6.255575831e-05
6.196202909e-05
6.137419014e-05
6.080480737e-05
6.026945793e-05
5.976416841e-05
5.933361886e-05
5.898576559e-05
5.875310402e-05
5.866644767e-05
5.878018135e-05
5.916340876e-05
5.992399307e-05
6.119710779e-05
6.333985479e-05
6.713289405e-05
7.491805193e-05
9.48574095e-05
0.0001522076868
0.0002975081205
0.0005161414973
0.0006612134862
0.0006778601518
0.0005870113496
0.0004376025146
0.0003270518581
0.000235534735
0.0001730331035
0.0001235921713
8.577818037e-05
5.810375102e-05
3.469274177e-05
2.180551791e-05
1.443066877e-05
9.750309531e-06
6.704167616e-06
4.656496795e-06
3.260001472e-06
2.284349039e-06
1.710064699e-06
1.361460665e-06
1.086082946e-06
8.676347596e-07
6.93356151e-07
5.541477009e-07
4.42850486e-07
3.53733343e-07
2.824399641e-07
2.253772387e-07
1.797160886e-07
1.432153638e-07
1.140291686e-07
9.072183611e-08
7.211889711e-08
5.727917643e-08
4.545486994e-08
3.603890817e-08
2.854756001e-08
2.259329382e-08
1.786449874e-08
1.411258535e-08
1.113849864e-08
8.783098549e-09
6.919458314e-09
5.446423485e-09
4.28325342e-09
3.365709414e-09
2.642705373e-09
2.073571704e-09
1.626065152e-09
1.274574503e-09
9.988194709e-10
7.827361444e-10
6.136204728e-10
4.814313751e-10
3.782411779e-10
2.977982631e-10
2.351767227e-10
1.865005327e-10
1.487231881e-10
1.194518946e-10
9.681073371e-11
7.932973415e-11
6.585907098e-11
5.55001162e-11
4.755170898e-11
4.14674117e-11
3.682201433e-11
3.328516509e-11
3.060052328e-11
2.856959042e-11
2.703890958e-11
2.589000675e-11
2.503170142e-11
2.439389056e-11
2.39228251e-11
2.357736421e-11
2.332616602e-11
2.314535902e-11
2.301683917e-11
2.292694296e-11
2.28653264e-11
2.282430225e-11
2.279806414e-11
2.278954391e-11
2.278954391e-11
2.278954391e-11
2.278954391e-11
2.278954391e-11
2.278954391e-11
2.278954391e-11
2.278954391e-11
2.278954391e-11
2.278954391e-11
2.278954391e-11
2.278954391e-11
2.278954391e-11
2.278954391e-11
2.278954391e-11
2.279001444e-11
2.279169675e-11
2.279323459e-11
2.279460218e-11
2.279581047e-11
2.279684999e-11
2.279772536e-11
2.279875839e-11
2.279959429e-11
2.280019376e-11
2.280064954e-11
2.280098031e-11
2.280117138e-11
2.280128809e-11
2.280137463e-11
2.280142799e-11
2.28014556e-11
2.280147229e-11
2.280146203e-11
2.280141528e-11
2.280138336e-11
2.280136079e-11
2.280134717e-11
2.280132779e-11
2.280130689e-11
2.280124965e-11
2.280121321e-11
2.280118785e-11
2.280114148e-11
2.280109024e-11
2.280102825e-11
2.280098792e-11
2.280095944e-11
2.280092217e-11
2.280090395e-11
2.280089017e-11
2.280083684e-11
2.280080881e-11
2.280079229e-11
2.280078698e-11
2.280074762e-11
2.28007081e-11
2.280067024e-11
2.280062657e-11
2.280058055e-11
2.280052111e-11
2.280046349e-11
2.280045217e-11
2.280042584e-11
2.280042176e-11
2.280037705e-11
2.280036154e-11
2.280030617e-11
2.280027929e-11
2.280022931e-11
2.280020573e-11
2.28001653e-11
2.280016737e-11
2.280015906e-11
2.280014109e-11
2.280010757e-11
2.280006687e-11
2.280002502e-11
2.280000284e-11
2.279995991e-11
2.279995155e-11
2.279993455e-11
2.279990097e-11
2.279985246e-11
2.279980247e-11
2.279975282e-11
2.279970747e-11
2.27996479e-11
2.279959874e-11
2.279954084e-11
2.279948622e-11
2.279945282e-11
2.279941482e-11
2.27993805e-11
2.279931528e-11
2.27992989e-11
2.279924237e-11
2.27992347e-11
2.279920589e-11
2.279918512e-11
2.279914308e-11
2.279911466e-11
2.279906243e-11
2.279902043e-11
2.27989571e-11
2.279891898e-11
2.279885987e-11
2.279883546e-11
2.279878194e-11
2.279876538e-11
2.27987334e-11
2.279873853e-11
2.279871809e-11
2.279869575e-11
2.279864235e-11
2.279864251e-11
2.279857932e-11
2.27985298e-11
2.279849595e-11
2.279843078e-11
2.279835963e-11
2.279832616e-11
2.279825474e-11
2.279819774e-11
2.279816549e-11
2.279811763e-11
2.279807113e-11
2.279803075e-11
2.279795989e-11
2.279789906e-11
2.279784076e-11
2.279778246e-11
2.279770627e-11
2.279765323e-11
2.279758031e-11
2.279750748e-11
2.279746271e-11
2.279740819e-11
2.27973503e-11
2.279734356e-11
2.279731245e-11
2.279726106e-11
2.279719065e-11
2.279710662e-11
2.279702873e-11
2.279700057e-11
2.27969641e-11
2.279687146e-11
2.279674426e-11
2.279666566e-11
2.279656952e-11
2.27965048e-11
2.279645461e-11
2.279636969e-11
2.279629034e-11
2.279624573e-11
2.279621473e-11
2.279614769e-11
2.279604322e-11
2.279594681e-11
2.279584988e-11
2.27957455e-11
2.279569423e-11
2.279560796e-11
2.279550298e-11
2.279538097e-11
2.279532849e-11
2.279524874e-11
2.279515194e-11
2.279508877e-11
2.279499251e-11
2.279486801e-11
2.279471984e-11
2.27945931e-11
2.27945116e-11
2.279443455e-11
2.279437267e-11
2.279425536e-11
2.279416386e-11
2.2794052e-11
2.279394023e-11
2.279379017e-11
2.279365353e-11
2.279354222e-11
2.279342423e-11
2.279331576e-11
2.27932088e-11
2.279306926e-11
2.279294858e-11
2.279284111e-11
2.27927054e-11
2.279257045e-11
2.279244055e-11
2.279233873e-11
2.279221962e-11
2.279205066e-11
2.279192825e-11
2.279180858e-11
2.279166894e-11
2.279156579e-11
2.279144669e-11
2.279130559e-11
2.279117135e-11
2.279102717e-11
2.279088084e-11
2.279073843e-11
2.279058964e-11
2.279044679e-11
2.279030282e-11
2.279016551e-11
2.279002795e-11
2.278989434e-11
2.278973588e-11
2.278960249e-11
5.676167718e-05
5.678491179e-05
5.682679136e-05
5.688371994e-05
5.695255621e-05
5.703067774e-05
5.711607249e-05
5.720743562e-05
5.730379227e-05
5.740431668e-05
5.750833424e-05
5.761534202e-05
5.772490247e-05
5.78364662e-05
5.794205069e-05
5.804899476e-05
5.81570633e-05
5.826604571e-05
5.837576452e-05
5.848607739e-05
5.859688291e-05
5.870810445e-05
5.881968311e-05
5.89315803e-05
5.904375812e-05
5.915616541e-05
5.926872234e-05
5.93813023e-05
5.949371602e-05
5.960570533e-05
5.971695061e-05
5.982707832e-05
5.993603629e-05