/*--------------------------------*- C++ -*----------------------------------*\
| =========                 |                                                 |
| \\      /  F ield         | OpenFOAM: The Open Source CFD Toolbox           |
|  \\    /   O peration     | Version:  v2006                                 |
|   \\  /    A nd           | Website:  www.openfoam.com                      |
|    \\/     M anipulation  |                                                 |
\*---------------------------------------------------------------------------*/
FoamFile
{
    version     2.0;
    format      ascii;
    class       volScalarField;
    location    "0.09";
    object      N2;
}
// * * * * * * * * * * * * * * * * * * * * * * * * * * * * * * * * * * * * * //

dimensions      [0 0 0 0 0 0 0];


internalField   nonuniform List<scalar> 
72000
(
0.6988719169
0.6988719529
0.6988720214
0.6988721196
0.6988722444
0.698872393
0.6988725626
0.6988727505
0.6988729545
0.6988731724
0.6988734023
0.6988736423
0.6988738908
0.6988741469
0.6988744095
0.6988746775
0.69887495
0.6988752263
0.6988755054
0.698875787
0.6988760703
0.698876355
0.6988766406
0.6988769267
0.6988772131
0.6988774993
0.6988777849
0.6988780696
0.698878353
0.6988786346
0.6988789141
0.6988791911
0.6988794655
0.6988797372
0.6988800063
0.6988802727
0.6988805365
0.6988807977
0.6988810562
0.698881312
0.6988815652
0.6988818159
0.6988820641
0.6988823101
0.6988825538
0.6988827953
0.6988830345
0.6988832713
0.6988835056
0.698883737
0.6988839656
0.6988841911
0.6988844135
0.698884633
0.6988848494
0.698885063
0.6988852866
0.6988855075
0.6988857261
0.6988859424
0.6988861565
0.6988863684
0.6988865781
0.6988867857
0.6988869911
0.6988871941
0.6988873949
0.6988875934
0.6988877895
0.6988879832
0.6988881746
0.6988883636
0.6988885504
0.6988887352
0.6988889181
0.6988890992
0.6988892788
0.6988894568
0.6988896335
0.6988898088
0.6988899829
0.6988901555
0.6988903268
0.6988904965
0.6988906648
0.6988908315
0.6988909967
0.6988911604
0.6988913226
0.6988914834
0.698891643
0.6988918013
0.6988919586
0.6988921149
0.6988922702
0.6988924246
0.6988925782
0.698892731
0.6988928829
0.6988930341
0.6988931846
0.6988933344
0.6988934834
0.6988936319
0.6988937798
0.6988939272
0.6988940742
0.698894221
0.6988943676
0.6988945142
0.6988946609
0.6988948078
0.6988949551
0.6988951028
0.698895251
0.6988953998
0.6988955493
0.6988956995
0.6988958504
0.698896002
0.6988961543
0.6988963074
0.6988964612
0.6988966155
0.6988967704
0.698896926
0.698897082
0.698897239
0.6988973972
0.6988975568
0.6988977179
0.6988978806
0.6988980451
0.6988982115
0.6988983799
0.6988985505
0.6988987232
0.6988988982
0.6988990756
0.6988992555
0.6988994379
0.6988996231
0.6988998111
0.6989000019
0.6989002006
0.698900408
0.6989006188
0.6989008331
0.6989010511
0.6989012729
0.6989014986
0.6989017285
0.6989019625
0.6989022009
0.6989024436
0.6989026909
0.6989029427
0.6989031993
0.6989034607
0.6989037271
0.6989039985
0.6989042752
0.6989045571
0.6989048446
0.6989051376
0.6989054363
0.698905741
0.6989060517
0.6989063685
0.6989066917
0.6989070214
0.6989073577
0.6989077008
0.6989080509
0.6989084082
0.6989087727
0.6989091446
0.698909524
0.6989099111
0.6989103054
0.6989107062
0.6989111108
0.6989114938
0.6989118567
0.6989122227
0.6989125944
0.6989129728
0.6989133582
0.6989137507
0.6989141506
0.698914558
0.6989149729
0.6989153956
0.6989158262
0.6989162648
0.6989167115
0.6989171665
0.6989176299
0.6989181017
0.698918582
0.6989190707
0.6989195679
0.6989200734
0.6989206035
0.6989211438
0.6989216928
0.6989222505
0.6989228171
0.6989233923
0.6989239759
0.6989245684
0.6989251703
0.698925782
0.6989264039
0.6989270363
0.6989276796
0.6989283348
0.6989290044
0.698929687
0.6989303816
0.6989310881
0.6989318064
0.6989325365
0.6989332786
0.6989340326
0.6989347987
0.6989355771
0.6989363678
0.6989371707
0.6989379857
0.6989388134
0.6989396541
0.698940508
0.6989413749
0.6989422543
0.6989431454
0.6989440459
0.6989449495
0.6989457942
0.6989466179
0.6989474477
0.6989482886
0.698949143
0.6989500123
0.6989508967
0.6989517956
0.698952711
0.6989536439
0.6989545945
0.6989555641
0.6989565548
0.6989575679
0.6989586042
0.6989596642
0.6989607485
0.6989618579
0.6989629944
0.6989641633
0.698965432
0.6989668058
0.6989682219
0.6989696832
0.6989711947
0.6989727624
0.6989743939
0.6989760917
0.6989778594
0.6989797024
0.6989816044
0.6989835741
0.6989855707
0.6989876619
0.6989898584
0.6989921708
0.6989946108
0.6989971824
0.6989998986
0.6990027351
0.6990056757
0.6990088401
0.6990122528
0.6990159515
0.6990202182
0.6990251127
0.6990306336
0.6990368343
0.6990438296
0.6990516975
0.699060589
0.6990707017
0.6990821557
0.6990946265
0.699108961
0.699125509
0.6991445577
0.699166736
0.6991930332
0.6992240737
0.6992607288
0.6993019737
0.6993469683
0.6993870799
0.6993963271
0.6993884548
0.6993343742
0.6987690475
0.6858522323
0.6873937726
0.6910968181
0.6939372185
0.6959900794
0.6974689106
0.6985925589
0.6993958173
0.6999199392
0.7003769907
0.7008629004
0.7011873955
0.701389258
0.701520888
0.7016146214
0.7016848895
0.7017392385
0.7017820275
0.7018160617
0.7018432926
0.7018651434
0.7018826999
0.7018968148
0.7019081616
0.7019172804
0.7019246048
0.7019304837
0.7019351988
0.7019389773
0.7019420025
0.7019444224
0.7019463563
0.7019479002
0.7019491316
0.7019501128
0.7019508938
0.7019515149
0.7019520082
0.7019523998
0.7019527102
0.701952956
0.7019531504
0.701953304
0.7019534253
0.701953521
0.7019535963
0.7019536555
0.701953702
0.7019537386
0.7019537672
0.7019537896
0.7019538071
0.7019538208
0.7019538314
0.7019538397
0.7019538462
0.7019538512
0.701953855
0.701953858
0.7019538603
0.7019538621
0.7019538634
0.7019538645
0.7019538653
0.7019538659
0.7019538664
0.7019538667
0.701953867
0.7019538672
0.7019538673
0.7019538674
0.7019538675
0.7019538676
0.7019538676
0.7019538676
0.7019538677
0.7019538677
0.7019538677
0.7019538677
0.7019538677
0.7019538677
0.7019538677
0.7019538677
0.7019538677
0.7019538677
0.7019538677
0.7019538677
0.7019538677
0.7019538677
0.7019538677
0.7019538677
0.7019538677
0.7019538677
0.7019538677
0.7019538677
0.7019538677
0.7019538677
0.7019538677
0.7019538677
0.7019538677
0.7019538677
0.7019538677
0.7019538677
0.7019538677
0.7019538677
0.7019538677
0.7019538677
0.7019538677
0.7019538677
0.7019538677
0.7019538677
0.7019538677
0.7019538677
0.7019538677
0.7019538677
0.7019538677
0.7019538677
0.7019538677
0.7019538677
0.7019538677
0.7019538677
0.7019538677
0.7019538677
0.7019538677
0.7019538677
0.7019538677
0.7019538677
0.7019538677
0.7019538677
0.7019538677
0.7019538677
0.7019538677
0.7019538677
0.7019538677
0.7019538677
0.7019538677
0.7019538677
0.7019538677
0.7019538677
0.7019538677
0.7019538677
0.7019538677
0.7019538677
0.7019538677
0.7019538677
0.7019538677
0.7019538677
0.7019538677
0.7019538677
0.7019538677
0.7019538677
0.7019538677
0.7019538677
0.7019538677
0.7019538677
0.7019538677
0.7019538677
0.7019538677
0.7019538677
0.7019538677
0.7019538677
0.7019538677
0.7019538677
0.7019538677
0.7019538677
0.7019538677
0.7019538677
0.7019538677
0.7019538677
0.7019538677
0.7019538677
0.7019538677
0.7019538677
0.7019538677
0.7019538677
0.7019538677
0.7019538677
0.7019538677
0.7019538677
0.7019538677
0.7019538677
0.7019538677
0.7019538677
0.7019538677
0.7019538677
0.7019538677
0.7019538677
0.7019538677
0.7019538677
0.7019538677
0.7019538677
0.7019538677
0.7019538677
0.7019538677
0.7019538677
0.7019538677
0.7019538677
0.7019538677
0.7019538677
0.7019538677
0.7019538677
0.7019538677
0.7019538677
0.7019538677
0.7019538677
0.7019538677
0.7019538677
0.7019538677
0.7019538677
0.7019538677
0.7019538677
0.7019538677
0.7019538677
0.7019538677
0.7019538677
0.7019538677
0.7019538677
0.7019538677
0.7019538677
0.7019538677
0.7019538677
0.7019538677
0.7019538677
0.7019538677
0.7019538677
0.7019538677
0.7019538677
0.7019538677
0.7019538677
0.7019538677
0.7019538677
0.7019538677
0.7019538677
0.7019538677
0.7019538677
0.7019538677
0.7019538677
0.7019538677
0.7019538677
0.7019538677
0.7019538677
0.7019538677
0.7019538677
0.7019538677
0.7019538677
0.7019538677
0.7019538677
0.7019538677
0.7019538677
0.7019538677
0.7019538677
0.7019538677
0.7019538677
0.7019538677
0.7019538677
0.7019538677
0.7019538677
0.7019538677
0.7019538677
0.7019538677
0.7019538677
0.7019538677
0.7019538677
0.7019538677
0.7019538677
0.7019538677
0.7019538677
0.7019538677
0.7019538677
0.7019538677
0.7019538677
0.7019538677
0.7019538677
0.7019538677
0.7019538677
0.7019538677
0.7019538677
0.7019538677
0.7019538677
0.7019538677
0.7019538677
0.7019538677
0.7019538677
0.7019538677
0.7019538677
0.7019538677
0.7019538677
0.7019538677
0.7019538677
0.7019538677
0.7019538677
0.7019538677
0.7019538677
0.7019538677
0.6988420534
0.6988420929
0.6988421642
0.6988422619
0.6988423814
0.6988425193
0.6988426725
0.6988428387
0.698843016
0.6988432027
0.6988433976
0.6988435993
0.698843807
0.6988440196
0.6988442365
0.698844457
0.6988446804
0.6988449064
0.6988451344
0.6988453641
0.698845595
0.698845827
0.6988460597
0.6988462931
0.6988465269
0.6988467609
0.6988469948
0.6988472284
0.6988474612
0.6988476928
0.698847923
0.6988481514
0.6988483778
0.6988486023
0.6988488251
0.6988490462
0.6988492657
0.6988494836
0.6988496999
0.6988499146
0.6988501277
0.6988503395
0.6988505498
0.6988507589
0.6988509666
0.6988511731
0.6988513781
0.6988515816
0.6988517833
0.6988519829
0.6988522061
0.6988524502
0.6988526913
0.6988529295
0.6988531649
0.6988533977
0.6988536281
0.6988538564
0.6988540828
0.6988543074
0.6988545303
0.6988547514
0.6988549707
0.6988551881
0.6988554036
0.6988556169
0.6988558281
0.6988560371
0.6988562438
0.6988564481
0.69885665
0.6988568496
0.698857047
0.6988572422
0.6988574356
0.6988576272
0.6988578171
0.6988580056
0.6988581927
0.6988583784
0.6988585627
0.6988587455
0.6988589269
0.6988591066
0.6988592845
0.6988594608
0.6988596351
0.6988598077
0.6988599785
0.6988601475
0.6988603149
0.6988604807
0.6988606451
0.6988608081
0.6988609698
0.6988611301
0.6988612892
0.6988614469
0.6988616034
0.6988617586
0.6988619125
0.6988620651
0.6988622163
0.6988623662
0.6988625149
0.6988626623
0.6988628085
0.6988629537
0.698863098
0.6988632415
0.6988633843
0.6988635265
0.6988636682
0.6988638095
0.6988639504
0.698864091
0.6988642312
0.6988643712
0.6988645108
0.69886465
0.6988647889
0.6988649273
0.6988650653
0.6988652148
0.6988653719
0.6988655283
0.6988656842
0.6988658398
0.6988659951
0.6988661504
0.6988663057
0.6988664613
0.6988666171
0.6988667732
0.6988669298
0.698867087
0.6988672447
0.6988674031
0.6988675623
0.6988677221
0.6988678829
0.6988680446
0.6988682073
0.6988683711
0.6988685361
0.6988687023
0.6988688698
0.6988690389
0.6988692096
0.6988693821
0.6988695563
0.6988697326
0.6988699108
0.698870091
0.6988702734
0.6988704579
0.6988706447
0.6988708338
0.6988710253
0.6988712192
0.6988714156
0.6988716146
0.6988718164
0.6988720209
0.6988722283
0.6988724387
0.6988726521
0.6988728688
0.6988730888
0.6988733122
0.6988735392
0.6988737697
0.698874004
0.6988742422
0.6988744843
0.6988747305
0.6988749809
0.6988752355
0.6988754914
0.6988757446
0.6988760021
0.698876265
0.6988765393
0.6988768247
0.6988771163
0.6988774132
0.6988777156
0.6988780234
0.6988783369
0.6988786561
0.6988789811
0.6988793122
0.6988796495
0.6988799932
0.6988803433
0.6988807001
0.6988810636
0.6988814341
0.6988818117
0.6988821965
0.6988825883
0.698882987
0.6988833928
0.6988838055
0.6988842254
0.6988846525
0.6988850871
0.6988855292
0.698885979
0.6988864363
0.6988869051
0.6988873856
0.698887875
0.6988883739
0.6988888825
0.6988894009
0.6988899295
0.6988904619
0.6988910038
0.6988915571
0.6988921224
0.6988926994
0.6988932883
0.6988938894
0.698894503
0.6988951294
0.698895769
0.698896422
0.698897089
0.6988977699
0.6988984657
0.6988991766
0.698899903
0.6989006449
0.6989014024
0.6989021751
0.698902959
0.698903754
0.6989045602
0.6989053796
0.6989062161
0.6989070731
0.6989079535
0.6989088596
0.698909793
0.6989107546
0.6989117464
0.6989127703
0.6989138201
0.6989148979
0.6989160151
0.6989171762
0.6989183817
0.6989196334
0.6989209352
0.698922337
0.6989237971
0.6989253136
0.6989268717
0.6989284769
0.6989301541
0.6989319171
0.6989337789
0.6989357507
0.6989378444
0.6989400685
0.6989424353
0.6989449588
0.6989476529
0.6989505013
0.698953492
0.6989567088
0.698960183
0.6989639324
0.6989678082
0.698971997
0.6989765524
0.6989814672
0.6989866617
0.698992306
0.6989983329
0.6990050887
0.6990128333
0.6990217799
0.6990327331
0.6990451357
0.6990590872
0.6990749972
0.6990931215
0.6991141147
0.699137073
0.6991611467
0.6991906779
0.6992245283
0.6992644178
0.6993088388
0.699356749
0.6994023767
0.6994198563
0.6994170647
0.6993208089
0.6990540485
0.6982233725
0.6962545475
0.69292769
0.6884470068
0.6858994129
0.6883095357
0.6913404033
0.6941770152
0.6962478042
0.6977313382
0.698787552
0.6995427154
0.7000228514
0.7005251146
0.7009145842
0.7011874768
0.7013773377
0.7015095926
0.7016031746
0.7016749684
0.7017311352
0.7017755841
0.7018109983
0.7018393501
0.7018620875
0.7018803338
0.7018949874
0.7019067502
0.7019161916
0.7019237655
0.7019298368
0.701934701
0.7019385944
0.7019417082
0.7019441965
0.701946183
0.7019477675
0.7019490301
0.7019500352
0.7019508346
0.7019514698
0.7019519739
0.7019523737
0.7019526904
0.701952941
0.7019531391
0.7019532956
0.701953419
0.7019535162
0.7019535927
0.7019536529
0.7019537001
0.7019537371
0.7019537661
0.7019537888
0.7019538065
0.7019538204
0.7019538311
0.7019538395
0.701953846
0.7019538511
0.701953855
0.701953858
0.7019538603
0.7019538621
0.7019538634
0.7019538645
0.7019538653
0.7019538659
0.7019538664
0.7019538667
0.701953867
0.7019538672
0.7019538673
0.7019538674
0.7019538675
0.7019538676
0.7019538676
0.7019538676
0.7019538677
0.7019538677
0.7019538677
0.7019538677
0.7019538677
0.7019538677
0.7019538677
0.7019538677
0.7019538677
0.7019538677
0.7019538677
0.7019538677
0.7019538677
0.7019538677
0.7019538677
0.7019538677
0.7019538677
0.7019538677
0.7019538677
0.7019538677
0.7019538677
0.7019538677
0.7019538677
0.7019538677
0.7019538677
0.7019538677
0.7019538677
0.7019538677
0.7019538677
0.7019538677
0.7019538677
0.7019538677
0.7019538677
0.7019538677
0.7019538677
0.7019538677
0.7019538677
0.7019538677
0.7019538677
0.7019538677
0.7019538677
0.7019538677
0.7019538677
0.7019538677
0.7019538677
0.7019538677
0.7019538677
0.7019538677
0.7019538677
0.7019538677
0.7019538677
0.7019538677
0.7019538677
0.7019538677
0.7019538677
0.7019538677
0.7019538677
0.7019538677
0.7019538677
0.7019538677
0.7019538677
0.7019538677
0.7019538677
0.7019538677
0.7019538677
0.7019538677
0.7019538677
0.7019538677
0.7019538677
0.7019538677
0.7019538677
0.7019538677
0.7019538677
0.7019538677
0.7019538677
0.7019538677
0.7019538677
0.7019538677
0.7019538677
0.7019538677
0.7019538677
0.7019538677
0.7019538677
0.7019538677
0.7019538677
0.7019538677
0.7019538677
0.7019538677
0.7019538677
0.7019538677
0.7019538677
0.7019538677
0.7019538677
0.7019538677
0.7019538677
0.7019538677
0.7019538677
0.7019538677
0.7019538677
0.7019538677
0.7019538677
0.7019538677
0.7019538677
0.7019538677
0.7019538677
0.7019538677
0.7019538677
0.7019538677
0.7019538677
0.7019538677
0.7019538677
0.7019538677
0.7019538677
0.7019538677
0.7019538677
0.7019538677
0.7019538677
0.7019538677
0.7019538677
0.7019538677
0.7019538677
0.7019538677
0.7019538677
0.7019538677
0.7019538677
0.7019538677
0.7019538677
0.7019538677
0.7019538677
0.7019538677
0.7019538677
0.7019538677
0.7019538677
0.7019538677
0.7019538677
0.7019538677
0.7019538677
0.7019538677
0.7019538677
0.7019538677
0.7019538677
0.7019538677
0.7019538677
0.7019538677
0.7019538677
0.7019538677
0.7019538677
0.7019538677
0.7019538677
0.7019538677
0.7019538677
0.7019538677
0.7019538677
0.7019538677
0.7019538677
0.7019538677
0.7019538677
0.7019538677
0.7019538677
0.7019538677
0.7019538677
0.7019538677
0.7019538677
0.7019538677
0.7019538677
0.7019538677
0.7019538677
0.7019538677
0.7019538677
0.7019538677
0.7019538677
0.7019538677
0.7019538677
0.7019538677
0.7019538677
0.7019538677
0.7019538677
0.7019538677
0.7019538677
0.7019538677
0.7019538677
0.7019538677
0.7019538677
0.7019538677
0.7019538677
0.7019538677
0.7019538677
0.7019538677
0.7019538677
0.7019538677
0.7019538677
0.7019538677
0.7019538677
0.7019538677
0.7019538677
0.7019538677
0.7019538677
0.7019538677
0.7019538677
0.7019538677
0.7019538677
0.7019538677
0.7019538677
0.7019538677
0.7019538677
0.7019538677
0.7019538677
0.7019538677
0.7019538677
0.7019538677
0.7019538677
0.7019538677
0.7019538677
0.7019538677
0.7019538677
0.7019538677
0.7019538677
0.7019538677
0.7019538677
0.6988344376
0.6988344423
0.6988344511
0.6988344635
0.6988344791
0.6988344975
0.6988345183
0.6988345412
0.698834566
0.6988345925
0.6988346205
0.6988346498
0.6988346803
0.6988347118
0.6988347443
0.6988347775
0.6988348114
0.698834846
0.698834881
0.6988349165
0.6988350198
0.6988351933
0.6988353674
0.6988355421
0.6988357172
0.6988358925
0.698836068
0.6988362434
0.6988364184
0.6988365927
0.6988367658
0.6988369376
0.6988371078
0.6988372767
0.6988374444
0.698837611
0.6988377765
0.6988379411
0.6988381046
0.698838267
0.6988384284
0.6988385889
0.6988387485
0.6988389074
0.6988390654
0.6988392227
0.6988393791
0.6988395345
0.6988396886
0.6988398413
0.6988399924
0.6988401418
0.6988402893
0.6988404351
0.6988405793
0.698840722
0.6988408634
0.6988410037
0.698841143
0.6988412812
0.6988414185
0.6988415548
0.69884169
0.6988418242
0.6988419571
0.6988421465
0.6988423424
0.6988425363
0.6988427281
0.6988429176
0.6988431049
0.6988432901
0.6988434732
0.6988436543
0.6988438337
0.6988440114
0.6988441877
0.6988443626
0.6988445363
0.6988447087
0.6988448799
0.6988450498
0.6988452182
0.6988453852
0.6988455504
0.698845714
0.6988458757
0.6988460357
0.6988461939
0.6988463504
0.6988465053
0.6988466586
0.6988468106
0.6988469611
0.6988471103
0.6988472582
0.6988474048
0.6988475501
0.6988476941
0.6988478368
0.6988479781
0.698848118
0.6988482566
0.6988483937
0.6988485294
0.6988486637
0.6988487968
0.6988489287
0.6988490595
0.6988491894
0.6988493184
0.6988494466
0.6988495742
0.6988497012
0.6988498277
0.6988499535
0.6988500789
0.6988502037
0.6988503279
0.6988504516
0.6988505746
0.698850697
0.6988508187
0.6988509397
0.69885106
0.6988511798
0.6988512989
0.6988514176
0.6988515358
0.6988516538
0.6988517715
0.6988518892
0.6988520068
0.6988521244
0.698852242
0.6988523599
0.6988524779
0.6988525961
0.6988527145
0.6988528588
0.6988530033
0.6988531482
0.6988532934
0.6988534391
0.6988535853
0.6988537313
0.6988538759
0.6988540213
0.6988541676
0.6988543149
0.6988544632
0.6988546126
0.6988547632
0.698854915
0.6988550681
0.6988552225
0.6988553783
0.6988555354
0.6988556941
0.6988558542
0.698856016
0.6988561794
0.6988563446
0.6988565116
0.6988566805
0.6988568514
0.6988570245
0.6988571997
0.6988573773
0.6988575573
0.6988577398
0.6988579249
0.6988581128
0.6988583034
0.698858497
0.6988586937
0.6988588934
0.6988590964
0.6988593027
0.6988595126
0.6988597263
0.6988599447
0.6988601687
0.6988603986
0.6988606336
0.6988608733
0.6988611177
0.6988613667
0.6988616204
0.6988618791
0.6988621427
0.6988624115
0.6988626857
0.6988629656
0.6988632513
0.6988635429
0.6988638405
0.6988641441
0.698864459
0.6988647817
0.6988651103
0.6988654447
0.6988657851
0.6988661315
0.698866484
0.6988668428
0.698867208
0.6988675797
0.6988679582
0.6988683436
0.6988687362
0.6988691363
0.6988695446
0.6988699615
0.698870387
0.6988708211
0.6988712637
0.6988717137
0.6988721723
0.6988726252
0.6988730682
0.6988735205
0.6988739824
0.6988744541
0.6988749359
0.6988754282
0.6988759315
0.6988764461
0.6988769724
0.6988775283
0.6988781024
0.6988786901
0.6988792917
0.6988798941
0.6988805045
0.6988811289
0.6988817677
0.6988824203
0.6988830873
0.6988837705
0.6988844726
0.6988851961
0.6988859436
0.6988867117
0.6988875052
0.698888327
0.6988891786
0.6988900624
0.698890981
0.6988919375
0.6988929345
0.6988939576
0.6988950224
0.6988961324
0.69889729
0.6988984973
0.6988997564
0.6989010175
0.6989023143
0.6989036721
0.6989051017
0.6989066128
0.6989081953
0.6989098806
0.698911707
0.6989138715
0.6989161946
0.6989186518
0.6989213251
0.6989242353
0.6989273752
0.6989307659
0.6989344611
0.6989384545
0.6989427519
0.6989475514
0.698952722
0.6989583006
0.6989643823
0.6989707991
0.6989783344
0.6989870056
0.6989970286
0.6990086781
0.6990219826
0.699037131
0.6990542513
0.6990743466
0.699096976
0.6991222865
0.6991505948
0.6991800227
0.699216792
0.6992583779
0.6993043136
0.6993506517
0.6993797619
0.69938368
0.6993723732
0.699234241
0.6989057739
0.6980599516
0.6962427466
0.6933213102
0.6897734912
0.6868739646
0.6865097438
0.6883177242
0.6907506279
0.6928395292
0.6950251336
0.6968168814
0.6981133104
0.6990740601
0.6996940519
0.7002056386
0.7006414255
0.7009634429
0.7012026895
0.7013814593
0.7015159985
0.7016115976
0.7016813717
0.7017364894
0.7017802125
0.7018150949
0.7018429579
0.7018652344
0.7018830714
0.701897341
0.7019087623
0.7019179015
0.7019252073
0.701931049
0.701935714
0.7019394374
0.7019424077
0.7019447743
0.701946659
0.7019481584
0.7019493501
0.7019502966
0.7019510476
0.7019516429
0.7019521143
0.7019524873
0.7019527821
0.701953015
0.7019531986
0.7019533433
0.7019534572
0.7019535468
0.7019536172
0.7019536723
0.7019537156
0.7019537494
0.7019537759
0.7019537966
0.7019538127
0.7019538252
0.7019538349
0.7019538425
0.7019538484
0.7019538529
0.7019538564
0.7019538591
0.7019538612
0.7019538627
0.701953864
0.7019538649
0.7019538656
0.7019538661
0.7019538665
0.7019538668
0.7019538671
0.7019538673
0.7019538674
0.7019538675
0.7019538675
0.7019538676
0.7019538676
0.7019538677
0.7019538677
0.7019538677
0.7019538677
0.7019538677
0.7019538677
0.7019538677
0.7019538677
0.7019538677
0.7019538677
0.7019538677
0.7019538677
0.7019538677
0.7019538677
0.7019538677
0.7019538677
0.7019538677
0.7019538677
0.7019538677
0.7019538677
0.7019538677
0.7019538677
0.7019538677
0.7019538677
0.7019538677
0.7019538677
0.7019538677
0.7019538677
0.7019538677
0.7019538677
0.7019538677
0.7019538677
0.7019538677
0.7019538677
0.7019538677
0.7019538677
0.7019538677
0.7019538677
0.7019538677
0.7019538677
0.7019538677
0.7019538677
0.7019538677
0.7019538677
0.7019538677
0.7019538677
0.7019538677
0.7019538677
0.7019538677
0.7019538677
0.7019538677
0.7019538677
0.7019538677
0.7019538677
0.7019538677
0.7019538677
0.7019538677
0.7019538677
0.7019538677
0.7019538677
0.7019538677
0.7019538677
0.7019538677
0.7019538677
0.7019538677
0.7019538677
0.7019538677
0.7019538677
0.7019538677
0.7019538677
0.7019538677
0.7019538677
0.7019538677
0.7019538677
0.7019538677
0.7019538677
0.7019538677
0.7019538677
0.7019538677
0.7019538677
0.7019538677
0.7019538677
0.7019538677
0.7019538677
0.7019538677
0.7019538677
0.7019538677
0.7019538677
0.7019538677
0.7019538677
0.7019538677
0.7019538677
0.7019538677
0.7019538677
0.7019538677
0.7019538677
0.7019538677
0.7019538677
0.7019538677
0.7019538677
0.7019538677
0.7019538677
0.7019538677
0.7019538677
0.7019538677
0.7019538677
0.7019538677
0.7019538677
0.7019538677
0.7019538677
0.7019538677
0.7019538677
0.7019538677
0.7019538677
0.7019538677
0.7019538677
0.7019538677
0.7019538677
0.7019538677
0.7019538677
0.7019538677
0.7019538677
0.7019538677
0.7019538677
0.7019538677
0.7019538677
0.7019538677
0.7019538677
0.7019538677
0.7019538677
0.7019538677
0.7019538677
0.7019538677
0.7019538677
0.7019538677
0.7019538677
0.7019538677
0.7019538677
0.7019538677
0.7019538677
0.7019538677
0.7019538677
0.7019538677
0.7019538677
0.7019538677
0.7019538677
0.7019538677
0.7019538677
0.7019538677
0.7019538677
0.7019538677
0.7019538677
0.7019538677
0.7019538677
0.7019538677
0.7019538677
0.7019538677
0.7019538677
0.7019538677
0.7019538677
0.7019538677
0.7019538677
0.7019538677
0.7019538677
0.7019538677
0.7019538677
0.7019538677
0.7019538677
0.7019538677
0.7019538677
0.7019538677
0.7019538677
0.7019538677
0.7019538677
0.7019538677
0.7019538677
0.7019538677
0.7019538677
0.7019538677
0.7019538677
0.7019538677
0.7019538677
0.7019538677
0.7019538677
0.7019538677
0.7019538677
0.7019538677
0.7019538677
0.7019538677
0.7019538677
0.7019538677
0.7019538677
0.7019538677
0.7019538677
0.7019538677
0.7019538677
0.7019538677
0.7019538677
0.7019538677
0.7019538677
0.7019538677
0.7019538677
0.7019538677
0.7019538677
0.7019538677
0.7019538677
0.7019538677
0.7019538677
0.7019538677
0.7019538677
0.7019538677
0.7019538677
0.7019538677
0.7019538677
0.7019538677
0.7019538677
0.7019538677
0.7019538677
0.7019538677
0.6988417524
0.6988416988
0.6988416021
0.6988414707
0.6988413119
0.6988411317
0.6988409347
0.698840724
0.6988405017
0.6988402699
0.69884003
0.6988397832
0.6988395304
0.6988392758
0.6988391972
0.6988391176
0.6988390373
0.6988389564
0.6988388752
0.6988387936
0.6988387117
0.6988386297
0.6988385476
0.6988384653
0.6988383829
0.6988383005
0.6988382181
0.6988381358
0.6988380537
0.698837972
0.6988378909
0.6988378108
0.6988377316
0.6988376532
0.6988375754
0.6988374981
0.6988374212
0.6988373446
0.6988372685
0.6988371928
0.6988371175
0.6988370426
0.6988369678
0.6988368933
0.698836819
0.6988367449
0.6988366711
0.6988365976
0.6988365246
0.6988364522
0.6988363804
0.6988363095
0.6988363422
0.6988364354
0.6988365276
0.698836619
0.6988367097
0.6988367999
0.6988368894
0.6988369785
0.6988370671
0.698837155
0.6988372425
0.6988373292
0.6988374153
0.6988375008
0.6988375855
0.6988376693
0.6988377523
0.6988378342
0.6988379152
0.6988379951
0.6988380742
0.6988381524
0.6988382298
0.6988383065
0.6988383826
0.6988384581
0.6988385331
0.6988386077
0.6988386816
0.6988387551
0.6988388279
0.6988389001
0.6988389715
0.6988390422
0.6988391121
0.6988391811
0.6988392494
0.6988393169
0.6988393838
0.6988394499
0.6988395154
0.6988395804
0.6988396448
0.6988397087
0.698839772
0.6988398347
0.6988398969
0.6988399586
0.6988400196
0.6988400801
0.69884014
0.6988401993
0.6988402708
0.6988404009
0.6988405296
0.6988406568
0.6988407827
0.6988409075
0.6988410312
0.698841154
0.6988412758
0.6988413968
0.6988415171
0.6988416365
0.6988417552
0.698841873
0.69884199
0.6988421061
0.6988422212
0.6988423354
0.6988424486
0.6988425608
0.6988426719
0.6988427822
0.6988428915
0.6988429999
0.6988431076
0.6988432146
0.698843321
0.6988434268
0.6988435321
0.698843637
0.6988437415
0.6988438456
0.6988439495
0.698844053
0.6988441563
0.6988442594
0.6988443623
0.6988444651
0.6988445678
0.6988446706
0.6988447734
0.6988448764
0.6988449797
0.6988450832
0.698845187
0.6988452914
0.6988453965
0.698845502
0.6988456081
0.6988457146
0.6988458217
0.6988459293
0.6988460375
0.6988461463
0.6988462557
0.6988463659
0.6988464767
0.6988465883
0.6988467007
0.6988468139
0.6988469281
0.6988470433
0.6988471595
0.6988472768
0.6988473954
0.6988475151
0.6988476362
0.6988477586
0.6988478825
0.6988480079
0.6988481349
0.6988482635
0.6988483938
0.6988485259
0.6988486599
0.6988487959
0.6988489341
0.6988490748
0.6988492182
0.6988493645
0.6988495135
0.6988496652
0.6988498194
0.6988499762
0.6988501357
0.6988502978
0.6988504626
0.6988506303
0.6988508009
0.6988509792
0.6988511629
0.6988513505
0.6988515421
0.6988517377
0.698851937
0.6988521403
0.6988523477
0.6988525592
0.6988527751
0.6988529952
0.6988532197
0.6988534831
0.6988537575
0.6988540365
0.6988543203
0.6988546091
0.6988549031
0.6988552026
0.698855508
0.6988558047
0.6988561064
0.6988564138
0.6988567269
0.6988570457
0.6988573705
0.6988577014
0.6988580387
0.6988583829
0.6988587344
0.6988590931
0.6988594593
0.6988598334
0.698860203
0.6988605773
0.6988609608
0.6988613539
0.6988617571
0.6988621709
0.6988625958
0.6988630323
0.6988634805
0.6988639405
0.6988643903
0.6988648507
0.6988653243
0.6988658125
0.6988663176
0.6988668409
0.6988673839
0.6988679383
0.6988684772
0.6988690403
0.6988696294
0.698870247
0.6988708957
0.6988715779
0.6988722556
0.6988729648
0.6988737143
0.698874508
0.6988753496
0.6988762014
0.6988770784
0.6988780094
0.6988789995
0.6988800497
0.6988811609
0.6988824154
0.6988837674
0.6988852095
0.6988866983
0.6988883386
0.6988901511
0.698892123
0.6988942995
0.6988967174
0.6988992976
0.6989021614
0.6989054746
0.6989089173
0.6989127019
0.6989167304
0.698921132
0.6989260427
0.6989318742
0.6989384631
0.6989459793
0.6989550754
0.6989657066
0.6989780146
0.6989914536
0.6990062126
0.699024123
0.6990460776
0.6990686172
0.6990944756
0.6991246283
0.6991566088
0.699189779
0.6992297357
0.6992715366
0.699298181
0.6993071167
0.6993041468
0.6992376055
0.6990288909
0.6985935067
0.697672034
0.6959376206
0.6933359039
0.690327331
0.6880472476
0.6874966969
0.6883098136
0.6896978448
0.6912654725
0.6928574836
0.6941578291
0.6960721844
0.6974671287
0.6985646681
0.6993033427
0.6998482638
0.7003435596
0.7007230966
0.7010136068
0.7012365891
0.7014068525
0.7015367358
0.7016333487
0.7016986322
0.7017507212
0.7017919628
0.7018248059
0.7018510109
0.701871889
0.7018885594
0.7019018749
0.7019124882
0.7019209641
0.7019277211
0.7019331045
0.7019373948
0.7019408081
0.7019435231
0.7019456811
0.7019473944
0.7019487538
0.7019498315
0.701950685
0.7019513604
0.7019518945
0.7019523164
0.7019526493
0.7019529119
0.7019531186
0.7019532813
0.7019534092
0.7019535097
0.7019535885
0.7019536502
0.7019536985
0.7019537363
0.7019537658
0.7019537888
0.7019538067
0.7019538206
0.7019538314
0.7019538398
0.7019538463
0.7019538513
0.7019538552
0.7019538582
0.7019538605
0.7019538622
0.7019538636
0.7019538646
0.7019538654
0.701953866
0.7019538664
0.7019538668
0.701953867
0.7019538672
0.7019538673
0.7019538674
0.7019538675
0.7019538676
0.7019538676
0.7019538676
0.7019538677
0.7019538677
0.7019538677
0.7019538677
0.7019538677
0.7019538677
0.7019538677
0.7019538677
0.7019538677
0.7019538677
0.7019538677
0.7019538677
0.7019538677
0.7019538677
0.7019538677
0.7019538677
0.7019538677
0.7019538677
0.7019538677
0.7019538677
0.7019538677
0.7019538677
0.7019538677
0.7019538677
0.7019538677
0.7019538677
0.7019538677
0.7019538677
0.7019538677
0.7019538677
0.7019538677
0.7019538677
0.7019538677
0.7019538677
0.7019538677
0.7019538677
0.7019538677
0.7019538677
0.7019538677
0.7019538677
0.7019538677
0.7019538677
0.7019538677
0.7019538677
0.7019538677
0.7019538677
0.7019538677
0.7019538677
0.7019538677
0.7019538677
0.7019538677
0.7019538677
0.7019538677
0.7019538677
0.7019538677
0.7019538677
0.7019538677
0.7019538677
0.7019538677
0.7019538677
0.7019538677
0.7019538677
0.7019538677
0.7019538677
0.7019538677
0.7019538677
0.7019538677
0.7019538677
0.7019538677
0.7019538677
0.7019538677