/*--------------------------------*- C++ -*----------------------------------*\
| =========                 |                                                 |
| \\      /  F ield         | OpenFOAM: The Open Source CFD Toolbox           |
|  \\    /   O peration     | Version:  v2006                                 |
|   \\  /    A nd           | Website:  www.openfoam.com                      |
|    \\/     M anipulation  |                                                 |
\*---------------------------------------------------------------------------*/
FoamFile
{
    version     2.0;
    format      ascii;
    class       volScalarField;
    location    "0.09";
    object      O;
}
// * * * * * * * * * * * * * * * * * * * * * * * * * * * * * * * * * * * * * //

dimensions      [0 0 0 0 0 0 0];


internalField   nonuniform List<scalar> 
72000
(
2.311931184e-06
2.312393686e-06
2.313283838e-06
2.314568429e-06
2.316211892e-06
2.318176825e-06
2.320426975e-06
2.322927734e-06
2.325648013e-06
2.328559163e-06
2.331634037e-06
2.334846265e-06
2.338176515e-06
2.341610128e-06
2.345132331e-06
2.348729128e-06
2.352387621e-06
2.356096308e-06
2.359845213e-06
2.363625869e-06
2.367430973e-06
2.371254043e-06
2.375089214e-06
2.378931126e-06
2.382774842e-06
2.38661554e-06
2.39044825e-06
2.394267688e-06
2.398068287e-06
2.401844449e-06
2.405591055e-06
2.409304133e-06
2.412981389e-06
2.416622094e-06
2.420226378e-06
2.423794505e-06
2.427326424e-06
2.430821726e-06
2.434279949e-06
2.437701044e-06
2.441085709e-06
2.44443534e-06
2.447751661e-06
2.451036235e-06
2.454290035e-06
2.457513219e-06
2.460705081e-06
2.46386413e-06
2.466988256e-06
2.470074935e-06
2.473121675e-06
2.47612744e-06
2.479092512e-06
2.482017148e-06
2.48490089e-06
2.487742828e-06
2.490575735e-06
2.493374259e-06
2.49614174e-06
2.498879983e-06
2.501589851e-06
2.504271624e-06
2.506925272e-06
2.509550632e-06
2.512147472e-06
2.514715349e-06
2.517253941e-06
2.519762752e-06
2.522241341e-06
2.524689523e-06
2.527107551e-06
2.52949625e-06
2.531856997e-06
2.534191576e-06
2.536501982e-06
2.538790254e-06
2.541058308e-06
2.543307737e-06
2.545539654e-06
2.547754643e-06
2.54995279e-06
2.552133787e-06
2.554297072e-06
2.556441995e-06
2.558567984e-06
2.560674698e-06
2.562762133e-06
2.564830673e-06
2.566881073e-06
2.568914396e-06
2.570931835e-06
2.572934719e-06
2.574924284e-06
2.576901606e-06
2.578867562e-06
2.580822827e-06
2.58276792e-06
2.584703292e-06
2.586629244e-06
2.588546202e-06
2.590454534e-06
2.592354675e-06
2.594247151e-06
2.596132639e-06
2.598012012e-06
2.59988633e-06
2.601756833e-06
2.603624935e-06
2.6054922e-06
2.607360277e-06
2.60923083e-06
2.611105465e-06
2.612985672e-06
2.614872771e-06
2.616767876e-06
2.618671893e-06
2.62058553e-06
2.622509324e-06
2.624443673e-06
2.626388858e-06
2.628345025e-06
2.6303121e-06
2.632289563e-06
2.634276031e-06
2.636271556e-06
2.638276036e-06
2.640289105e-06
2.642315992e-06
2.644359904e-06
2.646423195e-06
2.648507819e-06
2.650615514e-06
2.652747882e-06
2.654906425e-06
2.657092564e-06
2.65930766e-06
2.66155302e-06
2.663829925e-06
2.666139647e-06
2.668483423e-06
2.670862704e-06
2.673278857e-06
2.675733124e-06
2.678226437e-06
2.680769205e-06
2.683364403e-06
2.686003478e-06
2.688688805e-06
2.691422379e-06
2.694205958e-06
2.697041152e-06
2.699929485e-06
2.702872411e-06
2.705871325e-06
2.708927587e-06
2.712042536e-06
2.715217518e-06
2.71845391e-06
2.721753139e-06
2.725116701e-06
2.728546158e-06
2.732043139e-06
2.735609322e-06
2.739246425e-06
2.742956197e-06
2.746740414e-06
2.750600897e-06
2.75453952e-06
2.75855821e-06
2.762658938e-06
2.76684371e-06
2.771114557e-06
2.775473536e-06
2.779922692e-06
2.784464032e-06
2.789099509e-06
2.793830916e-06
2.798659712e-06
2.803586655e-06
2.808608501e-06
2.81371472e-06
2.818874452e-06
2.824683238e-06
2.831100068e-06
2.837610274e-06
2.844248299e-06
2.851025776e-06
2.857947969e-06
2.865018302e-06
2.872239751e-06
2.879615303e-06
2.887148117e-06
2.894841554e-06
2.902699044e-06
2.910723873e-06
2.918919186e-06
2.927288063e-06
2.935833639e-06
2.944558821e-06
2.953465791e-06
2.962556257e-06
2.971831898e-06
2.98129421e-06
2.9909223e-06
3.00073865e-06
3.010749924e-06
3.020959378e-06
3.031368555e-06
3.041975151e-06
3.052771445e-06
3.063772799e-06
3.074989613e-06
3.086432507e-06
3.098109279e-06
3.110027e-06
3.122194237e-06
3.134625907e-06
3.147357576e-06
3.160375034e-06
3.173670891e-06
3.187246802e-06
3.201106804e-06
3.215255573e-06
3.229698282e-06
3.244440669e-06
3.259489062e-06
3.274849959e-06
3.290529229e-06
3.30652816e-06
3.322846189e-06
3.339506261e-06
3.356521618e-06
3.373900051e-06
3.391646074e-06
3.409764249e-06
3.428252559e-06
3.447086442e-06
3.46621215e-06
3.488640202e-06
3.512411734e-06
3.536736173e-06
3.561687209e-06
3.587310582e-06
3.613638054e-06
3.640688353e-06
3.668450294e-06
3.697001409e-06
3.726386319e-06
3.756625727e-06
3.78776334e-06
3.819868823e-06
3.85299436e-06
3.887183764e-06
3.92248e-06
3.958927264e-06
3.996568792e-06
4.035482881e-06
4.075773634e-06
4.119794029e-06
4.167817283e-06
4.21769593e-06
4.269546973e-06
4.323518242e-06
4.379775471e-06
4.438512695e-06
4.499863953e-06
4.563988317e-06
4.631077269e-06
4.701479455e-06
4.775527069e-06
4.858112752e-06
4.945128815e-06
5.036818035e-06
5.133568769e-06
5.235746713e-06
5.343627346e-06
5.457716142e-06
5.58137986e-06
5.717658299e-06
5.863006714e-06
6.018202618e-06
6.184208745e-06
6.362476953e-06
6.56812335e-06
6.794277028e-06
7.038570485e-06
7.302960393e-06
7.610644939e-06
7.972936801e-06
8.369005803e-06
8.802251501e-06
9.344685694e-06
9.939413318e-06
1.05789866e-05
1.134107458e-05
1.220273472e-05
1.315220546e-05
1.423028673e-05
1.538290782e-05
1.660834429e-05
1.787033161e-05
1.905279216e-05
2.02627854e-05
2.188391684e-05
2.619475513e-05
2.483623813e-05
8.823652625e-09
1.473010976e-09
2.59895757e-10
1.241730623e-10
8.914601567e-11
5.374334003e-11
2.868397274e-11
1.020376403e-11
3.356598293e-12
8.419434205e-13
2.510692333e-13
3.549707213e-14
4.664546582e-16
3.577079438e-16
2.802697017e-16
2.222174933e-16
1.773168105e-16
1.419664669e-16
1.138490217e-16
9.135207091e-17
7.329995103e-17
5.879557703e-17
4.713446405e-17
3.776029581e-17
3.022671232e-17
2.417564844e-17
1.931882279e-17
1.542336454e-17
1.230176037e-17
9.802467294e-18
7.803252304e-18
6.205606021e-18
4.930083926e-18
3.912742016e-18
3.102133067e-18
2.456889878e-18
1.943795811e-18
1.536199221e-18
1.212738844e-18
9.563135554e-19
7.532460342e-19
5.926051935e-19
4.656652618e-19
3.65467179e-19
2.864660244e-19
2.242490295e-19
1.753075898e-19
1.368553627e-19
1.066815701e-19
8.30341016e-20
6.452572395e-20
5.00592875e-20
3.876802489e-20
2.996792866e-20
2.311985851e-20
1.779934592e-20
1.36725869e-20
1.047740722e-20
8.008141562e-21
6.103663621e-21
4.637901235e-21
3.512346313e-21
2.650147376e-21
1.991425809e-21
1.489603003e-21
1.108507487e-21
8.200897239e-22
6.026481903e-22
4.394139854e-22
3.174641336e-22
2.268553809e-22
1.599645102e-22
1.109478274e-22
7.53502185e-23
4.978527253e-23
3.167113555e-23
1.90692324e-23
1.052443112e-23
4.956527949e-24
1.591098621e-24
6.009308825e-29
6.009308825e-29
6.009308825e-29
6.009308825e-29
6.009308825e-29
6.009308825e-29
6.009308825e-29
6.009308825e-29
6.009308825e-29
6.009308825e-29
6.009308825e-29
6.009308825e-29
6.009308825e-29
6.009308825e-29
1.26980428e-25
3.524196328e-25
5.882672119e-25
8.207140351e-25
1.0503372e-24
1.279733648e-24
3.69069119e-23
8.102829695e-23
1.006099447e-22
1.097498763e-22
1.16509998e-22
1.219570012e-22
1.221599792e-22
1.222319322e-22
1.191497121e-22
1.201648342e-22
1.171244758e-22
1.181660835e-22
1.146880257e-22
1.130526713e-22
1.104790331e-22
1.086096591e-22
1.0771334e-22
1.077734629e-22
1.089330905e-22
1.057086949e-22
1.035244023e-22
1.030002184e-22
1.038519146e-22
1.06076152e-22
1.039430989e-22
9.946632562e-23
9.884421801e-23
9.93375061e-23
9.938480894e-23
9.946251327e-23
1.008082394e-22
9.773512995e-23
9.752050564e-23
9.752897693e-23
9.840621033e-23
1.005566801e-22
9.72513237e-23
9.687257242e-23
9.881045838e-23
9.632946761e-23
9.643685222e-23
9.354697647e-23
9.411745346e-23
9.549926974e-23
9.776602796e-23
9.455948161e-23
9.464046319e-23
9.409900708e-23
9.544271334e-23
9.2338749e-23
9.170872659e-23
9.155335946e-23
9.272222074e-23
9.577160682e-23
9.527380516e-23
9.09262227e-23
9.153324331e-23
9.476095757e-23
9.418545173e-23
9.06332762e-23
9.037644019e-23
9.117502133e-23
9.373742666e-23
9.085523884e-23
8.98398076e-23
8.933740976e-23
9.157108711e-23
9.053743559e-23
8.977982998e-23
8.62855721e-23
8.354384975e-23
8.558417345e-23
8.687068359e-23
8.811619805e-23
8.503622514e-23
8.472674813e-23
8.504137827e-23
8.730073711e-23
8.470463274e-23
8.426124476e-23
8.413877316e-23
8.339464707e-23
8.52747186e-23
8.207241821e-23
8.172781972e-23
8.385767841e-23
8.183759531e-23
8.382645281e-23
8.058185828e-23
8.04510186e-23
7.961880026e-23
7.999266697e-23
8.018806123e-23
8.118164486e-23
8.308735666e-23
8.098548832e-23
7.970775894e-23
7.825514352e-23
7.776325743e-23
7.786596326e-23
7.735748513e-23
7.837965667e-23
7.533311517e-23
7.619895072e-23
7.853154122e-23
7.581702556e-23
7.775792083e-23
7.715862984e-23
7.354808355e-23
7.259261041e-23
7.233204388e-23
7.296394232e-23
7.44970862e-23
7.106944365e-23
7.197617198e-23
6.902413297e-23
6.862190569e-23
6.755842979e-23
6.744597528e-23
6.827796721e-23
7.026830867e-23
6.796224517e-23
6.896034285e-23
6.570952375e-23
6.581830988e-23
6.943821417e-23
6.966794686e-23
6.797836457e-23
6.39575524e-23
6.582766898e-23
6.510741097e-23
6.122613664e-23
6.128720802e-23
6.375455469e-23
6.067608652e-23
6.11081388e-23
6.449771301e-23
6.365885804e-23
5.923124257e-23
6.091963022e-23
6.01913339e-23
5.684296226e-23
5.571823011e-23
5.566569263e-23
5.475890325e-23
5.408615403e-23
5.418302705e-23
5.391372144e-23
5.412150332e-23
5.39971357e-23
5.567995832e-23
5.103856359e-23
4.864910754e-23
4.833470474e-23
5.019292866e-23
4.786161666e-23
4.913452361e-23
5.137290048e-23
4.839889005e-23
4.843122957e-23
4.476626994e-23
4.392508613e-23
4.637936549e-23
4.560220007e-23
4.434419603e-23
4.074504808e-23
3.967268915e-23
3.895156565e-23
3.841851932e-23
3.821263455e-23
3.975847521e-23
3.672219845e-23
3.597844384e-23
3.502624811e-23
3.609289899e-23
3.24150574e-23
3.13912378e-23
3.282470623e-23
2.997999e-23
2.971342593e-23
2.877794591e-23
2.772609505e-23
2.90417705e-23
2.514674873e-23
2.533016852e-23
2.410427681e-23
2.00137579e-23
2.076573773e-23
1.69142263e-23
1.626474745e-23
1.673210718e-23
1.190160494e-23
7.500701994e-24
3.346267746e-24
2.629086808e-06
2.629985323e-06
2.631669938e-06
2.634062829e-06
2.637084501e-06
2.640659061e-06
2.64471986e-06
2.649201096e-06
2.654052496e-06
2.659224622e-06
2.664673728e-06
2.670361099e-06
2.676253778e-06
2.682323328e-06
2.688543649e-06
2.694890929e-06
2.701343364e-06
2.707881651e-06
2.714489081e-06
2.721151868e-06
2.72786091e-06
2.734605807e-06
2.741374236e-06
2.748157397e-06
2.75494741e-06
2.761736396e-06
2.768515909e-06
2.775276598e-06
2.782008187e-06
2.788699935e-06
2.795341713e-06
2.801925624e-06
2.808447621e-06
2.814907275e-06
2.821305846e-06
2.827644514e-06
2.833923373e-06
2.840141364e-06
2.846297017e-06
2.852389667e-06
2.858420417e-06
2.864391958e-06
2.870307735e-06
2.876170801e-06
2.881982919e-06
2.887744152e-06
2.893452852e-06
2.899105883e-06
2.904698979e-06
2.910227124e-06
2.915715708e-06
2.921159701e-06
2.926531537e-06
2.931832351e-06
2.937063535e-06
2.942227084e-06
2.947325666e-06
2.952366563e-06
2.957354377e-06
2.962291666e-06
2.967179492e-06
2.97201794e-06
2.976806582e-06
2.981544856e-06
2.986232485e-06
2.990870836e-06
2.995457245e-06
2.999989921e-06
3.004467785e-06
3.00889023e-06
3.013257436e-06
3.0175708e-06
3.021832933e-06
3.026047258e-06
3.030217568e-06
3.034347741e-06
3.038441466e-06
3.042501802e-06
3.046530826e-06
3.05052954e-06
3.054497968e-06
3.058435359e-06
3.062340466e-06
3.066211864e-06
3.070048289e-06
3.073848943e-06
3.077613718e-06
3.081343279e-06
3.085039037e-06
3.088703152e-06
3.092337685e-06
3.095945381e-06
3.099528531e-06
3.103089148e-06
3.106628819e-06
3.110148722e-06
3.113649725e-06
3.117132523e-06
3.120597723e-06
3.124045974e-06
3.12747793e-06
3.130894307e-06
3.134295972e-06
3.137684104e-06
3.141060324e-06
3.144426601e-06
3.147785143e-06
3.151138529e-06
3.154489692e-06
3.157841738e-06
3.161197787e-06
3.164560859e-06
3.167933751e-06
3.171318928e-06
3.174718455e-06
3.178133996e-06
3.181566839e-06
3.185017968e-06
3.188488128e-06
3.191977897e-06
3.195487733e-06
3.199017967e-06
3.202568755e-06
3.206201066e-06
3.209895839e-06
3.213612875e-06
3.217354357e-06
3.221124257e-06
3.224926663e-06
3.228765374e-06
3.232643905e-06
3.236565522e-06
3.240533291e-06
3.244550124e-06
3.248618798e-06
3.252741967e-06
3.256922189e-06
3.261161973e-06
3.265463931e-06
3.269831466e-06
3.274266627e-06
3.278772173e-06
3.283350827e-06
3.288004951e-06
3.292736066e-06
3.297546771e-06
3.302441508e-06
3.307425218e-06
3.312501801e-06
3.31767469e-06
3.322947096e-06
3.328322163e-06
3.33380291e-06
3.339392253e-06
3.345093042e-06
3.350908108e-06
3.356840309e-06
3.362892585e-06
3.369068e-06
3.375369778e-06
3.381801313e-06
3.388366147e-06
3.395067949e-06
3.401910484e-06
3.408897587e-06
3.416033154e-06
3.423321195e-06
3.430765871e-06
3.438371504e-06
3.446142508e-06
3.454083415e-06
3.462198814e-06
3.47049343e-06
3.478971993e-06
3.487639198e-06
3.496499801e-06
3.505558418e-06
3.514819393e-06
3.524645552e-06
3.535524407e-06
3.546655632e-06
3.558074561e-06
3.569925705e-06
3.582208883e-06
3.594808246e-06
3.607707441e-06
3.620908679e-06
3.63441758e-06
3.64824056e-06
3.662384475e-06
3.676856677e-06
3.691665131e-06
3.706818511e-06
3.722325857e-06
3.738195682e-06
3.754436198e-06
3.771055526e-06
3.788062558e-06
3.805470512e-06
3.823283327e-06
3.841504601e-06
3.860140475e-06
3.879197421e-06
3.898680751e-06
3.918603381e-06
3.938977267e-06
3.959812926e-06
3.981119686e-06
4.002905912e-06
4.025181367e-06
4.047797907e-06
4.070776265e-06
4.094291921e-06
4.118362729e-06
4.143004785e-06
4.168233857e-06
4.194065643e-06
4.226200946e-06
4.260315824e-06
4.295241082e-06
4.330999286e-06
4.367607407e-06
4.405084938e-06
4.443452184e-06
4.48273112e-06
4.522946212e-06
4.564123374e-06
4.606292908e-06
4.649484418e-06
4.693724026e-06
4.739055302e-06
4.785518482e-06
4.833141685e-06
4.881927135e-06
4.931920866e-06
4.983167985e-06
5.044203619e-06
5.108280048e-06
5.174120735e-06
5.241802918e-06
5.311441721e-06
5.383160867e-06
5.457072123e-06
5.533265029e-06
5.611850681e-06
5.692934884e-06
5.776648273e-06
5.863131013e-06
5.958113811e-06
6.061919998e-06
6.169504747e-06
6.281107861e-06
6.39688586e-06
6.517039309e-06
6.641808877e-06
6.771985667e-06
6.907366064e-06
7.055303763e-06
7.213281528e-06
7.377053799e-06
7.547527122e-06
7.725349352e-06
7.911153391e-06
8.105602961e-06
8.323347581e-06
8.554927669e-06
8.797389702e-06
9.051495465e-06
9.318176171e-06
9.613553968e-06
9.949102796e-06
1.030085784e-05
1.067025212e-05
1.106088534e-05
1.154574297e-05
1.206169371e-05
1.260922545e-05
1.321069345e-05
1.390455789e-05
1.464848104e-05
1.546888298e-05
1.641769693e-05
1.744577469e-05
1.858771247e-05
1.98411059e-05
2.123318363e-05
2.285062751e-05
2.461643874e-05
2.67268603e-05
2.907679841e-05
3.183099577e-05
3.498833231e-05
3.855147498e-05
4.277874586e-05
4.742987745e-05
5.274311195e-05
5.857419654e-05
6.451411108e-05
7.001398728e-05
7.27664107e-05
6.79602404e-05
5.005616692e-05
2.409904215e-05
7.653689234e-06
2.000718653e-06
3.667340554e-07
1.166083548e-08
3.824555149e-09
4.874545295e-10
4.004419093e-10
2.883438017e-10
1.929564603e-10
1.109817062e-10
3.622470252e-11
9.936238682e-12
3.814460111e-12
1.610548109e-12
6.260432785e-13
1.605348568e-13
3.670397245e-16
2.89726587e-16
2.304138504e-16
1.84011387e-16
1.472897305e-16
1.180321403e-16
9.460921618e-17
7.582458796e-17
6.075035274e-17
4.864421762e-17
3.892629186e-17
3.112628486e-17
2.48690443e-17
1.985325068e-17
1.583464153e-17
1.26181394e-17
1.004562328e-17
7.989891883e-18
6.348757525e-18
5.039736443e-18
3.9966276e-18
3.166232116e-18
2.505797206e-18
1.981058607e-18
1.564546028e-18
1.234264316e-18
9.726271806e-19
7.65585512e-19
6.019178561e-19
4.726769112e-19
3.707333697e-19
2.9040998e-19
2.271938135e-19
1.774986851e-19
1.384794704e-19
1.078802271e-19
8.391450746e-20
6.516884608e-20
5.052612431e-20
3.910441725e-20
3.0208223e-20
2.328970839e-20
1.791786715e-20
1.37539458e-20
1.053207889e-20
8.043829115e-21
6.125998941e-21
4.650976235e-21
3.519121711e-21
2.652734279e-21
1.991321065e-21
1.487855488e-21
1.105837667e-21
8.169856582e-22
5.994253454e-22
4.36272635e-22
3.145255919e-22
2.241806142e-22
1.575794261e-22
1.088537862e-22
7.353062856e-23
4.821259808e-23
3.031726368e-23
1.790522577e-23
9.507481419e-24
4.039024599e-24
6.930723277e-25
6.009308825e-29
6.009308825e-29
6.009308825e-29
6.009308825e-29
6.009308825e-29
6.009308825e-29
6.009308825e-29
6.009308825e-29
6.009308825e-29
6.009308825e-29
6.009308825e-29
6.009308825e-29
6.009308825e-29
6.009308825e-29
2.281424212e-26
2.839304686e-25
5.330925227e-25
7.72443911e-25
9.990579224e-25
1.208812428e-24
1.404551698e-24
1.376498304e-22
2.156067536e-22
2.669632102e-22
2.97403275e-22
3.232021096e-22
3.330745242e-22
3.34847252e-22
3.336737734e-22
3.340660456e-22
3.296222909e-22
3.278921041e-22
3.257810017e-22
3.232970015e-22
3.143732785e-22
3.090015046e-22
3.048920226e-22
3.04593861e-22
3.008700351e-22
3.007852614e-22
2.92098052e-22
2.902846167e-22
2.924390645e-22
2.930522066e-22
2.86049489e-22
2.792872012e-22
2.787085419e-22
2.817382651e-22
2.813730554e-22
2.801603541e-22
2.766561407e-22
2.736442877e-22
2.754665035e-22
2.748760957e-22
2.771245718e-22
2.774425409e-22
2.725064467e-22
2.714943749e-22
2.715126366e-22
2.702912375e-22
2.632064049e-22
2.608423002e-22
2.651344596e-22
2.669281289e-22
2.697057976e-22
2.642976451e-22
2.640543712e-22
2.644796628e-22
2.614675831e-22
2.5933824e-22
2.584657267e-22
2.575192811e-22
2.598436682e-22
2.612733643e-22
2.622598989e-22
2.558173319e-22
2.552378274e-22
2.583350728e-22
2.567254411e-22
2.533513875e-22
2.537993309e-22
2.552257705e-22
2.578391886e-22
2.556700658e-22
2.530228868e-22
2.489038001e-22
2.488627222e-22
2.422821014e-22
2.430396458e-22
2.409991165e-22
2.39267178e-22
2.417082453e-22
2.441336481e-22
2.390806677e-22
2.377188858e-22
2.377014489e-22
2.371261903e-22
2.384534076e-22
2.368893267e-22
2.370409428e-22
2.372572575e-22
2.320942958e-22
2.320083059e-22
2.28902301e-22
2.273958078e-22
2.269018811e-22
2.258720425e-22
2.280292317e-22
2.248518914e-22
2.269967758e-22
2.245312433e-22
2.250335796e-22
2.253452623e-22
2.269427748e-22
2.246418845e-22
2.268872278e-22
2.237925384e-22
2.187018396e-22
2.17880133e-22
2.186351422e-22
2.157087845e-22
2.109502146e-22
2.092150195e-22
2.120338077e-22
2.123358651e-22
2.077392374e-22
2.082779114e-22
2.06546818e-22
2.037560409e-22
2.022685307e-22
2.013466125e-22
2.033804849e-22
2.004005793e-22
1.943716793e-22
1.92121905e-22
1.906162982e-22
1.921301707e-22
1.880561813e-22
1.870425844e-22
1.888626774e-22
1.884557712e-22
1.862623066e-22
1.837019833e-22
1.800649514e-22
1.793419106e-22
1.837089298e-22
1.832234744e-22
1.791412819e-22
1.719328029e-22
1.724192276e-22
1.714979278e-22
1.673306523e-22
1.676901739e-22
1.695227367e-22
1.651671572e-22
1.665585579e-22
1.709172503e-22
1.681669742e-22
1.584704139e-22
1.584438052e-22
1.566598855e-22
1.558229269e-22
1.576679803e-22
1.542567237e-22
1.510142728e-22
1.485635394e-22
1.484053694e-22
1.482998404e-22
1.496947656e-22
1.472444444e-22
1.471196852e-22
1.390417434e-22
1.3316751e-22
1.298244971e-22
1.291006733e-22
1.272135121e-22
1.339873221e-22
1.333460461e-22
1.302304366e-22
1.235952377e-22
1.19487776e-22
1.162296814e-22
1.166534276e-22
1.12272682e-22
1.103031379e-22
1.086175132e-22
1.074268458e-22
1.04853579e-22
1.031011533e-22
1.01803287e-22
9.940647265e-23
9.692096832e-23
9.677376363e-23
9.187542953e-23
8.871004408e-23
8.36937109e-23
8.075997477e-23
7.89435925e-23
7.681851627e-23
7.868908643e-23
7.648865564e-23
7.051938412e-23
6.902222817e-23
6.073052769e-23
5.406628775e-23
5.224596885e-23
4.566751277e-23
4.443459252e-23
3.821132927e-23
3.765954739e-23
3.42935532e-23
2.617591435e-23
1.390635496e-23
4.978180493e-24
3.398822231e-06
3.400161178e-06
3.40267754e-06
3.406268268e-06
3.410819997e-06
3.416217293e-06
3.422357143e-06
3.429147722e-06
3.436511837e-06
3.444376407e-06
3.45267578e-06
3.461352994e-06
3.470358047e-06
3.479647311e-06
3.489187004e-06
3.498930503e-06
3.508841329e-06
3.518888135e-06
3.52904352e-06
3.539283147e-06
3.549721191e-06
3.560348376e-06
3.57101434e-06
3.581707712e-06
3.592417143e-06
3.603130848e-06
3.613835849e-06
3.624517277e-06
3.635158057e-06
3.645739461e-06
3.656242894e-06
3.666653148e-06
3.676963199e-06
3.687173961e-06
3.697289149e-06
3.707311397e-06
3.71724017e-06
3.727071667e-06
3.736800518e-06
3.74642301e-06
3.755940362e-06
3.76535791e-06
3.774683161e-06
3.783922915e-06
3.793081207e-06
3.802158693e-06
3.811152881e-06
3.820058713e-06
3.828869342e-06
3.837577333e-06
3.846177023e-06
3.854665177e-06
3.863046438e-06
3.871319886e-06
3.879484944e-06
3.88754673e-06
3.895512073e-06
3.903388314e-06
3.911180688e-06
3.918891912e-06
3.926522595e-06
3.934071978e-06
3.941538733e-06
3.948921491e-06
3.956218461e-06
3.963673219e-06
3.971073551e-06
3.978383643e-06
3.985602188e-06
3.992728281e-06
3.999761199e-06
4.006702831e-06
4.013558003e-06
4.020333168e-06
4.027035339e-06
4.033671636e-06
4.040249013e-06
4.046773148e-06
4.053247767e-06
4.059674597e-06
4.066053614e-06
4.072383422e-06
4.078661737e-06
4.084885956e-06
4.091053807e-06
4.097163931e-06
4.10321635e-06
4.109212574e-06
4.115155554e-06
4.121049409e-06
4.126898459e-06
4.132707813e-06
4.1384819e-06
4.144224452e-06
4.149938341e-06
4.155625643e-06
4.161287878e-06
4.166926354e-06
4.172542445e-06
4.178137682e-06
4.183713649e-06
4.189271942e-06
4.194814321e-06
4.200343184e-06
4.205862791e-06
4.211379396e-06
4.216893535e-06
4.222409479e-06
4.227932633e-06
4.233468757e-06
4.239023667e-06
4.244603089e-06
4.25021242e-06
4.255856478e-06
4.261539365e-06
4.267264455e-06
4.273034482e-06
4.278851675e-06
4.284717915e-06
4.290634905e-06
4.296604342e-06
4.302628121e-06
4.308708714e-06
4.314850294e-06
4.321054859e-06
4.327324152e-06
4.333662061e-06
4.340073373e-06
4.346563661e-06
4.353139049e-06
4.359805707e-06
4.366569439e-06
4.373435822e-06
4.38041029e-06
4.387498127e-06
4.394704448e-06
4.402034199e-06
4.40949213e-06
4.417082601e-06
4.42497092e-06
4.433002534e-06
4.441182518e-06
4.449516847e-06
4.458011302e-06
4.466671652e-06
4.475658846e-06
4.485213653e-06
4.494972327e-06
4.504941846e-06
4.515128585e-06
4.525538682e-06
4.53617939e-06
4.547057283e-06
4.558178663e-06
4.569549713e-06
4.581176589e-06
4.593065525e-06
4.605222942e-06
4.617655549e-06
4.630370421e-06
4.643375006e-06
4.656677085e-06
4.670284681e-06
4.684206e-06
4.698449282e-06
4.713022762e-06
4.72793489e-06
4.743194679e-06
4.758811663e-06
4.774795461e-06
4.791156034e-06
4.807903343e-06
4.825047933e-06
4.842600267e-06
4.860570826e-06
4.878970574e-06
4.897810578e-06
4.917102252e-06
4.936857502e-06
4.957091825e-06
4.977830582e-06
4.999112713e-06
5.020989263e-06
5.043472355e-06
5.066540521e-06
5.090185104e-06
5.114409256e-06
5.139221715e-06
5.164633868e-06
5.19065867e-06
5.217310316e-06
5.244604354e-06
5.272558443e-06
5.301195148e-06
5.330529389e-06
5.360576262e-06
5.391350927e-06
5.422866549e-06
5.457719359e-06
5.494417901e-06
5.531990503e-06
5.570455609e-06
5.609832277e-06
5.650140878e-06
5.69140566e-06
5.733654804e-06
5.776910118e-06
5.821195373e-06
5.866536937e-06
5.912965019e-06
5.960517737e-06
6.009230609e-06
6.059137116e-06
6.110282122e-06
6.162691806e-06
6.216395154e-06
6.271414081e-06
6.327741554e-06
6.385448057e-06
6.449922791e-06
6.522904732e-06
6.59776031e-06
6.67453997e-06
6.75329206e-06
6.834068752e-06
6.916931432e-06
7.001921586e-06
7.089137323e-06
7.178674195e-06
7.270508857e-06
7.364753225e-06
7.461521653e-06
7.560900549e-06
7.673248719e-06
7.793463659e-06
7.917130772e-06
8.044373439e-06
8.175284906e-06
8.309991116e-06
8.44867519e-06
8.591555852e-06
8.738861783e-06
8.890832817e-06
9.058147034e-06
9.235869172e-06
9.419471186e-06
9.609221113e-06
9.805458363e-06
1.000859417e-05
1.021900278e-05
1.043702072e-05
1.068231788e-05
1.093751814e-05
1.120214835e-05
1.147669299e-05
1.176155829e-05
1.205730384e-05
1.239447851e-05
1.275561135e-05
1.313078661e-05
1.352112468e-05
1.392791308e-05
1.439297601e-05
1.490926338e-05
1.545102208e-05
1.601453142e-05
1.662072144e-05
1.730509366e-05
1.802573623e-05
1.878533646e-05
1.962151378e-05
2.053417462e-05
2.150237924e-05
2.256501326e-05
2.375526009e-05
2.501484566e-05
2.64481839e-05
2.804164313e-05
2.97621684e-05
3.180073646e-05
3.3977844e-05
3.650523974e-05
3.927130096e-05
4.250129991e-05
4.611681636e-05
5.020905835e-05
5.482399186e-05
6.007988752e-05
6.615372395e-05
7.315521837e-05
8.117304184e-05
9.038604388e-05
0.0001009311039
0.0001129594975
0.0001264842238
0.0001417214404
0.000156988987
0.0001702374622
0.0001755816731
0.0001635505503
0.0001234288894
6.62816563e-05
2.482203796e-05
8.065238471e-06
2.114834388e-06
4.28229817e-07
6.74508441e-08
1.621427136e-08
4.615224675e-09
1.566557636e-09
6.294348105e-10
4.383443854e-10
2.740755106e-10
1.066747367e-10
3.618590515e-11
1.42796998e-11
7.098622098e-12
3.452059703e-12
1.572133721e-12
6.182373819e-13
1.335526367e-13
2.827678996e-16
2.251236804e-16
1.795879666e-16
1.43465966e-16
1.146477272e-16
9.162859484e-17
7.322478876e-17
5.848861931e-17
4.669973924e-17
3.726400148e-17
2.971359734e-17
2.367793632e-17
1.885178612e-17
1.499774874e-17
1.192161712e-17
9.467761092e-18
7.512525789e-18
5.95552785e-18
4.716778802e-18
3.732197469e-18
2.95025672e-18
2.32985048e-18
1.838063555e-18
1.448580975e-18
1.140414473e-18
8.968374221e-19
7.044987698e-19
5.527761776e-19
4.332221871e-19
3.391117847e-19
2.651133131e-19
2.069917712e-19
1.613936658e-19
1.256627121e-19
9.769820256e-20
7.583977133e-20
5.877651974e-20
4.547469717e-20
3.511976883e-20
2.707080585e-20
2.082404645e-20
1.598382462e-20
1.223994356e-20
9.349332814e-21
7.121860429e-21
5.408931717e-21
4.094604623e-21
3.0885217e-21
2.32037137e-21
1.735527558e-21
1.291602457e-21
9.557729001e-22
7.026636608e-22
5.126842003e-22
3.707571537e-22
2.652904775e-22
1.873963682e-22
1.302718915e-22
8.87344398e-23
5.883668339e-23
3.758498835e-23
2.271999546e-23
1.253124813e-23
5.74760562e-24
1.408941765e-24
6.009308825e-29
6.009308825e-29
6.009308825e-29
6.009308825e-29
6.009308825e-29
6.009308825e-29
6.009308825e-29
6.009308825e-29
6.009308825e-29
6.009308825e-29
6.009308825e-29
6.009308825e-29
6.009308825e-29
6.009308825e-29
6.009308825e-29
7.786526754e-26
3.560471058e-25
6.103412098e-25
8.364811764e-25
1.036280742e-24
1.208173499e-24
1.352922039e-24
1.565608384e-22
2.917493626e-22
3.820388974e-22
4.460139044e-22
4.868149329e-22
5.051948691e-22
5.155852232e-22
5.2308296e-22
5.248057678e-22
5.236076385e-22
5.21739542e-22
5.155849339e-22
5.055954262e-22
4.999833874e-22
4.959241967e-22
4.92011737e-22
4.871280363e-22
4.831388411e-22
4.745826983e-22
4.703410985e-22
4.671122918e-22
4.619801026e-22
4.578580684e-22
4.543094585e-22
4.533150712e-22
4.521599576e-22
4.495392434e-22
4.491004722e-22
4.481627656e-22
4.420242756e-22
4.408518074e-22
4.406631532e-22
4.416441846e-22
4.36420193e-22
4.334214487e-22
4.315094712e-22
4.283880284e-22
4.251674252e-22
4.210556554e-22
4.184722475e-22
4.209861547e-22
4.203833595e-22
4.220501875e-22
4.184811931e-22
4.193617656e-22
4.146464173e-22
4.146594025e-22
4.113974737e-22
4.114400566e-22
4.085341245e-22
4.113930426e-22
4.114090987e-22
4.103312566e-22
4.072347327e-22
4.033584664e-22
4.002140834e-22
4.005880737e-22
3.981581574e-22
4.012477561e-22
4.017039439e-22
3.989560173e-22
3.954154457e-22
3.930017916e-22
3.91000712e-22
3.892966604e-22
3.864630944e-22
3.855776373e-22
3.834067008e-22
3.822124055e-22
3.831190718e-22
3.822645109e-22
3.80852788e-22
3.756012805e-22
3.775507706e-22
3.729746716e-22
3.75454323e-22
3.751764841e-22
3.753531634e-22
3.720751167e-22
3.707340901e-22
3.651767948e-22
3.630375377e-22
3.572053302e-22
3.551306273e-22
3.51373329e-22
3.527637196e-22
3.502274701e-22
3.531123584e-22
3.526480706e-22
3.561814697e-22
3.543653342e-22
3.515727843e-22
3.474329627e-22
3.513431964e-22
3.451972658e-22
3.429347537e-22
3.423655754e-22
3.363878117e-22
3.307809053e-22
3.312808508e-22
3.258830657e-22
3.234566327e-22
3.249561184e-22
3.243090918e-22
3.241387198e-22
3.249338383e-22
3.203088908e-22
3.174170157e-22
3.144325962e-22
3.106463804e-22
3.048585283e-22
3.035947733e-22
2.995795464e-22
2.959245622e-22
2.958532476e-22
2.932064396e-22
2.904544939e-22
2.959439374e-22
2.959620342e-22
2.926824417e-22
2.872325308e-22
2.790496158e-22
2.736507589e-22
2.762141743e-22
2.775618998e-22
2.703827092e-22
2.607343172e-22
2.597277901e-22
2.562781141e-22
2.583358132e-22
2.606399397e-22
2.566634002e-22
2.528272229e-22
2.554924989e-22
2.589734426e-22
2.568881457e-22
2.499277842e-22
2.46042305e-22
2.426854619e-22
2.392809039e-22
2.435254309e-22
2.415822071e-22
2.363764155e-22
2.286810793e-22
2.314961163e-22
2.295191107e-22
2.250409358e-22
2.26215754e-22
2.22556895e-22
2.153956774e-22
2.05034983e-22
1.982452412e-22
1.985048397e-22
1.986431618e-22
2.009569757e-22
1.932449856e-22
1.914112897e-22
1.867272708e-22
1.835248469e-22
1.744885459e-22
1.683711416e-22
1.671732808e-22
1.658406847e-22
1.660261035e-22
1.664267445e-22
1.605064039e-22
1.576511139e-22
1.561808143e-22
1.494999821e-22
1.437837543e-22
1.383123874e-22
1.376622487e-22
1.340344715e-22
1.227174792e-22
1.193331822e-22
1.156820731e-22
1.092388056e-22
1.086581679e-22
1.054080497e-22
9.924923755e-23
9.383525235e-23
8.69438562e-23
8.121412805e-23
7.619969106e-23
7.037078181e-23
6.522263995e-23
5.884837888e-23
5.292259693e-23
4.571854943e-23
3.769592801e-23
2.32490216e-23
8.864360913e-24
4.300707611e-06
4.303288624e-06
4.308056938e-06
4.314756111e-06
4.323135006e-06
4.332944127e-06
4.34397947e-06
4.35609116e-06
4.369151791e-06
4.383038138e-06
4.39764027e-06
4.412869283e-06
4.428644289e-06
4.444886255e-06
4.46149876e-06
4.478443494e-06
4.495664911e-06
4.513112367e-06
4.53074095e-06
4.548510789e-06
4.56638492e-06
4.584338147e-06
4.602355812e-06
4.620422424e-06
4.638522473e-06
4.656639473e-06
4.674754336e-06
4.692843335e-06
4.710876472e-06
4.72881735e-06
4.74662572e-06
4.76426357e-06
4.781717885e-06
4.799000885e-06