/*--------------------------------*- C++ -*----------------------------------*\
| =========                 |                                                 |
| \\      /  F ield         | OpenFOAM: The Open Source CFD Toolbox           |
|  \\    /   O peration     | Version:  v2006                                 |
|   \\  /    A nd           | Website:  www.openfoam.com                      |
|    \\/     M anipulation  |                                                 |
\*---------------------------------------------------------------------------*/
FoamFile
{
    version     2.0;
    format      ascii;
    class       volScalarField;
    location    "0.09";
    object      O2;
}
// * * * * * * * * * * * * * * * * * * * * * * * * * * * * * * * * * * * * * //

dimensions      [0 0 0 0 0 0 0];


internalField   nonuniform List<scalar> 
72000
(
0.03192857169
0.0319295306
0.03193134069
0.03193391838
0.03193718
0.03194104648
0.03194544439
0.03195030638
0.03195557279
0.03196118962
0.0319671065
0.03197327558
0.03197966087
0.03198623448
0.03199296913
0.03199983953
0.03200682251
0.03201389736
0.03202104597
0.03202825283
0.03203550449
0.03204278935
0.03205009725
0.03205741882
0.03206474524
0.03207206774
0.03207937708
0.0320866633
0.03209391573
0.03210112352
0.0321082767
0.03211536759
0.03212239197
0.03212934882
0.03213623891
0.03214306325
0.03214982218
0.03215651532
0.03216314209
0.03216970262
0.03217619832
0.03218263178
0.03218900609
0.03219532396
0.03220158692
0.03220779492
0.03221394622
0.03222003757
0.03222606451
0.03223202181
0.03223790479
0.03224371098
0.03224944021
0.03225509313
0.03226066969
0.03226617094
0.03227169108
0.03227714689
0.03228254503
0.03228788904
0.03229318057
0.03229842007
0.03230360734
0.03230874177
0.0323138225
0.03231884825
0.03232381822
0.0323287313
0.03233358642
0.03233838301
0.03234312148
0.03234780339
0.03235243136
0.03235700879
0.03236153943
0.03236602717
0.03237047565
0.03237488793
0.03237926611
0.03238361126
0.03238792342
0.03239220187
0.03239644536
0.03240065243
0.03240482181
0.03240895263
0.03241304469
0.03241709854
0.03242111547
0.03242509739
0.0324290465
0.03243296527
0.03243685597
0.03244072061
0.03244456077
0.03244837766
0.03245217216
0.03245594496
0.03245969651
0.03246342739
0.0324671381
0.03247082924
0.03247450156
0.03247815613
0.03248179437
0.03248541813
0.03248902976
0.03249263194
0.03249622763
0.0324998199
0.03250341183
0.03250700637
0.03251060622
0.03251421372
0.03251783081
0.03252145902
0.03252509947
0.03252875296
0.03253242
0.03253610087
0.03253979556
0.0325435037
0.03254722412
0.03255095466
0.03255469514
0.03255844519
0.03256220452
0.03256598206
0.0325697836
0.03257361342
0.03257747505
0.03258137163
0.03258530603
0.03258928088
0.03259329868
0.03259736178
0.0326014724
0.03260563271
0.0326098448
0.03261411076
0.03261843312
0.0326228143
0.03262725639
0.03263176082
0.03263635677
0.03264105107
0.03264581626
0.0326506567
0.03265557595
0.03266057706
0.0326656628
0.03267083572
0.03267609825
0.03268145268
0.03268690122
0.03269244607
0.03269808939
0.03270383343
0.03270968051
0.03271563304
0.03272169359
0.03272786482
0.03273414948
0.0327405504
0.03274707047
0.03275371262
0.03276047988
0.03276737532
0.03277440209
0.0327815634
0.0327888625
0.03279630269
0.03280388727
0.03281161948
0.03281950255
0.03282753949
0.03283573304
0.03284408526
0.03285259706
0.03286126257
0.03287006066
0.032878929
0.03288760404
0.03289610248
0.03290466934
0.03291336783
0.03292221842
0.03293122907
0.03294040389
0.03294974587
0.03295925784
0.0329689428
0.03297880398
0.0329888446
0.03299906743
0.03300947485
0.03302006907
0.03303085243
0.03304182676
0.03305299229
0.03306434812
0.03307589283
0.03308762343
0.03309964894
0.03311187533
0.03312429584
0.03313691266
0.03314972545
0.03316273041
0.03317592161
0.03318931147
0.03320291035
0.0332167279
0.03323077194
0.03324504904
0.03325956836
0.03327435072
0.03328945464
0.03330484672
0.033320506
0.03333642756
0.03335261012
0.03336905382
0.03338575987
0.03340273031
0.03341996778
0.03343747474
0.03345525217
0.03347329707
0.03349160625
0.03351019434
0.03352906883
0.03354823086
0.03356767633
0.03358739634
0.03360736938
0.03362754479
0.03364778244
0.0336667442
0.03368529146
0.03370398968
0.03372294574
0.03374221382
0.03376182309
0.03378178188
0.03380207448
0.03382274554
0.03384381866
0.03386530114
0.03388721921
0.03390962048
0.0339325373
0.03395598599
0.03397997824
0.03400452781
0.03402965559
0.03405540666
0.03408189456
0.03410881536
0.03413617318
0.03416438568
0.03419351339
0.03422366413
0.0342549618
0.03428757707
0.03432156112
0.0343569904
0.03439398124
0.03443282765
0.03447376949
0.03451560041
0.0345596268
0.03460611116
0.03465532124
0.03470757433
0.03476300059
0.03482195
0.03488438465
0.034950205
0.035021289
0.03509824338
0.03518201642
0.0352742889
0.03537520465
0.03548760216
0.03561309864
0.03575379871
0.03591137523
0.03609110422
0.03629712781
0.03653420212
0.03680791686
0.03712795895
0.03750935684
0.03796494876
0.03851625821
0.03919213862
0.0400300426
0.04108206943
0.04241054102
0.04410242173
0.04619769322
0.04871645326
0.05150276028
0.05498943043
0.06539678565
0.1489821533
0.1798504323
0.1946000114
0.2016496785
0.2056692305
0.2081556302
0.2098003512
0.2108711778
0.2114880916
0.2119489264
0.212324069
0.2125721295
0.2127233739
0.2128209607
0.2128904521
0.2129425468
0.2129828397
0.2130145623
0.2130397942
0.2130599825
0.2130761821
0.213089198
0.2130996624
0.2131080746
0.213114835
0.2131202651
0.2131246235
0.2131281192
0.2131309205
0.2131331633
0.2131349573
0.213136391
0.2131375357
0.2131384486
0.213139176
0.213139755
0.2131402155
0.2131405812
0.2131408715
0.2131411016
0.2131412839
0.213141428
0.2131415419
0.2131416318
0.2131417027
0.2131417586
0.2131418025
0.213141837
0.2131418641
0.2131418853
0.2131419019
0.2131419149
0.213141925
0.2131419329
0.2131419391
0.2131419438
0.2131419475
0.2131419504
0.2131419526
0.2131419543
0.2131419556
0.2131419566
0.2131419574
0.213141958
0.2131419585
0.2131419588
0.2131419591
0.2131419593
0.2131419594
0.2131419595
0.2131419596
0.2131419597
0.2131419597
0.2131419597
0.2131419598
0.2131419598
0.2131419598
0.2131419598
0.2131419598
0.2131419598
0.2131419598
0.2131419598
0.2131419598
0.2131419598
0.2131419598
0.2131419598
0.2131419598
0.2131419598
0.2131419598
0.2131419598
0.2131419598
0.2131419598
0.2131419598
0.2131419598
0.2131419598
0.2131419598
0.2131419598
0.2131419598
0.2131419598
0.2131419598
0.2131419598
0.2131419598
0.2131419598
0.2131419598
0.2131419598
0.2131419598
0.2131419598
0.2131419598
0.2131419598
0.2131419598
0.2131419598
0.2131419598
0.2131419598
0.2131419598
0.2131419598
0.2131419598
0.2131419598
0.2131419598
0.2131419598
0.2131419598
0.2131419598
0.2131419598
0.2131419598
0.2131419598
0.2131419598
0.2131419598
0.2131419598
0.2131419598
0.2131419598
0.2131419598
0.2131419598
0.2131419598
0.2131419598
0.2131419598
0.2131419598
0.2131419598
0.2131419598
0.2131419598
0.2131419598
0.2131419598
0.2131419598
0.2131419598
0.2131419598
0.2131419598
0.2131419598
0.2131419598
0.2131419598
0.2131419598
0.2131419598
0.2131419598
0.2131419598
0.2131419598
0.2131419598
0.2131419598
0.2131419598
0.2131419598
0.2131419598
0.2131419598
0.2131419598
0.2131419598
0.2131419598
0.2131419598
0.2131419598
0.2131419598
0.2131419598
0.2131419598
0.2131419598
0.2131419598
0.2131419598
0.2131419598
0.2131419598
0.2131419598
0.2131419598
0.2131419598
0.2131419598
0.2131419598
0.2131419598
0.2131419598
0.2131419598
0.2131419598
0.2131419598
0.2131419598
0.2131419598
0.2131419598
0.2131419598
0.2131419598
0.2131419598
0.2131419598
0.2131419598
0.2131419598
0.2131419598
0.2131419598
0.2131419598
0.2131419598
0.2131419598
0.2131419598
0.2131419598
0.2131419598
0.2131419598
0.2131419598
0.2131419598
0.2131419598
0.2131419598
0.2131419598
0.2131419598
0.2131419598
0.2131419598
0.2131419598
0.2131419598
0.2131419598
0.2131419598
0.2131419598
0.2131419598
0.2131419598
0.2131419598
0.2131419598
0.2131419598
0.2131419598
0.2131419598
0.2131419598
0.2131419598
0.2131419598
0.2131419598
0.2131419598
0.2131419598
0.2131419598
0.2131419598
0.2131419598
0.2131419598
0.2131419598
0.2131419598
0.2131419598
0.2131419598
0.2131419598
0.2131419598
0.2131419598
0.2131419598
0.2131419598
0.2131419598
0.2131419598
0.2131419598
0.2131419598
0.2131419598
0.2131419598
0.2131419598
0.2131419598
0.2131419598
0.2131419598
0.2131419598
0.2131419598
0.2131419598
0.2131419598
0.2131419598
0.2131419598
0.2131419598
0.2131419598
0.2131419598
0.2131419598
0.2131419598
0.2131419598
0.2131419598
0.2131419598
0.2131419598
0.2131419598
0.2131419598
0.2131419598
0.2131419598
0.2131419598
0.2131419598
0.2131419598
0.2131419598
0.2131419598
0.2131419598
0.2131419598
0.2131419598
0.2131419598
0.2131419598
0.2131419598
0.2131419598
0.2131419598
0.2131419598
0.2131419598
0.2131419598
0.2131419598
0.2131419598
0.2131419598
0.2131419598
0.2131419598
0.2131419598
0.2131419598
0.2131419598
0.2131419598
0.2131419598
0.2131419598
0.03095221021
0.03095365898
0.03095625983
0.03095981276
0.03096414758
0.03096913086
0.03097465572
0.03098063591
0.03098700359
0.03099370095
0.03100067877
0.03100789474
0.03101531316
0.03102290287
0.03103063584
0.03103849047
0.03104644728
0.03105448845
0.03106259804
0.03107076188
0.03107896744
0.03108720566
0.03109547023
0.03110375489
0.03111205297
0.03112035693
0.03112865781
0.03113694477
0.03114520503
0.03115342449
0.03116158943
0.03116968934
0.03117772014
0.03118568383
0.031193585
0.03120142803
0.03120921566
0.03121694885
0.03122462771
0.03123225281
0.03123982613
0.03124735077
0.03125483003
0.03126226629
0.03126966008
0.03127700974
0.03128431133
0.03129155889
0.03129874479
0.03130586002
0.03131299319
0.03132013011
0.0313271795
0.03133414418
0.03134102894
0.03134783905
0.0313545803
0.03136126112
0.0313678875
0.03137446285
0.03138098842
0.03138746394
0.03139388808
0.03140025871
0.03140657278
0.03141282609
0.0314190173
0.03142514417
0.03143120386
0.03143719422
0.03144311512
0.03144896835
0.03145475708
0.0314604853
0.0314661573
0.03147177757
0.03147735056
0.03148288009
0.03148836862
0.03149381704
0.03149922474
0.03150458999
0.03150991026
0.03151518271
0.03152040464
0.03152557389
0.03153068919
0.03153575032
0.03154075812
0.0315457144
0.03155062143
0.03155548189
0.03156029824
0.03156507253
0.03156980625
0.03157450029
0.03157915504
0.03158377052
0.03158834648
0.03159288258
0.03159737834
0.03160183331
0.03160624717
0.03161061985
0.03161495182
0.03161924442
0.03162350027
0.03162772252
0.03163191448
0.03163607949
0.03164022074
0.03164434114
0.03164844319
0.03165252888
0.03165659958
0.03166065613
0.03166469879
0.03166872741
0.03167274148
0.03167674019
0.03168072254
0.03168468726
0.03168863265
0.03169260867
0.03169659829
0.03170056762
0.03170451889
0.03170845612
0.03171238328
0.03171630388
0.03172022098
0.03172413733
0.03172805543
0.0317319775
0.03173590549
0.03173984111
0.03174378587
0.03174774108
0.03175170785
0.03175568733
0.03175968187
0.0317636937
0.03176772474
0.0317717764
0.03177584958
0.03177994618
0.03178406967
0.03178822369
0.03179241108
0.03179663429
0.03180089538
0.03180519605
0.03180953778
0.03181392201
0.03181835003
0.03182282313
0.03182734256
0.03183190961
0.03183652566
0.03184119224
0.03184591099
0.0318506837
0.03185551223
0.03186039859
0.03186534487
0.03187035329
0.03187542611
0.0318805656
0.031885774
0.03189105357
0.03189640661
0.03190183546
0.03190734233
0.03191292948
0.03191859916
0.03192435334
0.03193019378
0.03193612169
0.03194210252
0.03194808949
0.03195416805
0.03196036783
0.03196683633
0.0319735683
0.03198043726
0.03198742414
0.03199452857
0.0320017528
0.03200909925
0.0320165704
0.03202416894
0.03203189797
0.03203976117
0.03204776237
0.03205590428
0.03206418904
0.03207261869
0.03208119623
0.03208992928
0.03209881471
0.03210784857
0.03211702941
0.03212635596
0.03213582706
0.03214544576
0.03215521525
0.03216513807
0.03217521564
0.03218544818
0.0321958361
0.03220645891
0.03221732378
0.03222837267
0.0322396148
0.0322510553
0.03226269804
0.03227454668
0.03228644585
0.03229852198
0.03231082189
0.03232335207
0.03233610731
0.03234908891
0.03236230005
0.03237574517
0.03238942999
0.03240336072
0.03241754228
0.03243197816
0.03244667208
0.03246163476
0.03247687495
0.03249239604
0.03250819343
0.03252426455
0.03254059757
0.03255695783
0.03257347068
0.03259015986
0.03260707347
0.03262429812
0.03264191225
0.03265997762
0.03267854901
0.03269765624
0.03271731701
0.03273756968
0.03275845503
0.03277977879
0.03280159357
0.0328241955
0.03284768466
0.03287206637
0.0328973747
0.03292366073
0.03295119211
0.0329797983
0.03300912656
0.03303896054
0.03306960683
0.03310158824
0.03313518251
0.03317065382
0.03320821703
0.03324755055
0.03328923502
0.03333365558
0.03338108588
0.03343178826
0.03348577946
0.03354303312
0.03360460332
0.03367109535
0.03374391978
0.0338228094
0.0339087094
0.03400268109
0.03410560083
0.03421829999
0.0343428284
0.0344821859
0.03463648439
0.03480953311
0.03500348502
0.03522366947
0.03547370834
0.03575944242
0.03608918668
0.03647150485
0.03691776192
0.03744213366
0.03806443288
0.03880485766
0.03969608448
0.0407747852
0.04209749721
0.04373820987
0.04578933806
0.04840060045
0.05175220089
0.05615458912
0.06205788212
0.07038907238
0.0823147542
0.09918600482
0.124387657
0.1638640601
0.18373661
0.1950232294
0.2014645063
0.2054348767
0.2079682744
0.2096431901
0.2107802016
0.211465781
0.2119633331
0.2123097866
0.2125448127
0.2127057606
0.2128125866
0.2128819657
0.2129351916
0.2129768321
0.2130097853
0.2130360404
0.2130570596
0.2130739165
0.2130874438
0.2130983076
0.2131070282
0.2131140278
0.2131196429
0.2131241439
0.2131277501
0.2131306366
0.2131329451
0.2131347899
0.2131362626
0.2131374373
0.2131383733
0.2131391185
0.2131397112
0.213140182
0.2131405558
0.2131408522
0.213141087
0.2131412728
0.2131414197
0.2131415356
0.2131416271
0.2131416992
0.2131417559
0.2131418005
0.2131418355
0.213141863
0.2131418845
0.2131419013
0.2131419145
0.2131419247
0.2131419327
0.2131419389
0.2131419437
0.2131419475
0.2131419503
0.2131419526
0.2131419543
0.2131419556
0.2131419566
0.2131419574
0.213141958
0.2131419585
0.2131419588
0.2131419591
0.2131419593
0.2131419594
0.2131419595
0.2131419596
0.2131419597
0.2131419597
0.2131419597
0.2131419598
0.2131419598
0.2131419598
0.2131419598
0.2131419598
0.2131419598
0.2131419598
0.2131419598
0.2131419598
0.2131419598
0.2131419598
0.2131419598
0.2131419598
0.2131419598
0.2131419598
0.2131419598
0.2131419598
0.2131419598
0.2131419598
0.2131419598
0.2131419598
0.2131419598
0.2131419598
0.2131419598
0.2131419598
0.2131419598
0.2131419598
0.2131419598
0.2131419598
0.2131419598
0.2131419598
0.2131419598
0.2131419598
0.2131419598
0.2131419598
0.2131419598
0.2131419598
0.2131419598
0.2131419598
0.2131419598
0.2131419598
0.2131419598
0.2131419598
0.2131419598
0.2131419598
0.2131419598
0.2131419598
0.2131419598
0.2131419598
0.2131419598
0.2131419598
0.2131419598
0.2131419598
0.2131419598
0.2131419598
0.2131419598
0.2131419598
0.2131419598
0.2131419598
0.2131419598
0.2131419598
0.2131419598
0.2131419598
0.2131419598
0.2131419598
0.2131419598
0.2131419598
0.2131419598
0.2131419598
0.2131419598
0.2131419598
0.2131419598
0.2131419598
0.2131419598
0.2131419598
0.2131419598
0.2131419598
0.2131419598
0.2131419598
0.2131419598
0.2131419598
0.2131419598
0.2131419598
0.2131419598
0.2131419598
0.2131419598
0.2131419598
0.2131419598
0.2131419598
0.2131419598
0.2131419598
0.2131419598
0.2131419598
0.2131419598
0.2131419598
0.2131419598
0.2131419598
0.2131419598
0.2131419598
0.2131419598
0.2131419598
0.2131419598
0.2131419598
0.2131419598
0.2131419598
0.2131419598
0.2131419598
0.2131419598
0.2131419598
0.2131419598
0.2131419598
0.2131419598
0.2131419598
0.2131419598
0.2131419598
0.2131419598
0.2131419598
0.2131419598
0.2131419598
0.2131419598
0.2131419598
0.2131419598
0.2131419598
0.2131419598
0.2131419598
0.2131419598
0.2131419598
0.2131419598
0.2131419598
0.2131419598
0.2131419598
0.2131419598
0.2131419598
0.2131419598
0.2131419598
0.2131419598
0.2131419598
0.2131419598
0.2131419598
0.2131419598
0.2131419598
0.2131419598
0.2131419598
0.2131419598
0.2131419598
0.2131419598
0.2131419598
0.2131419598
0.2131419598
0.2131419598
0.2131419598
0.2131419598
0.2131419598
0.2131419598
0.2131419598
0.2131419598
0.2131419598
0.2131419598
0.2131419598
0.2131419598
0.2131419598
0.2131419598
0.2131419598
0.2131419598
0.2131419598
0.2131419598
0.2131419598
0.2131419598
0.2131419598
0.2131419598
0.2131419598
0.2131419598
0.2131419598
0.2131419598
0.2131419598
0.2131419598
0.2131419598
0.2131419598
0.2131419598
0.2131419598
0.2131419598
0.2131419598
0.2131419598
0.2131419598
0.2131419598
0.2131419598
0.2131419598
0.2131419598
0.2131419598
0.2131419598
0.2131419598
0.2131419598
0.2131419598
0.2131419598
0.2131419598
0.2131419598
0.2131419598
0.2131419598
0.2131419598
0.2131419598
0.2131419598
0.2131419598
0.2131419598
0.2131419598
0.2131419598
0.2131419598
0.2131419598
0.2131419598
0.2131419598
0.2131419598
0.2131419598
0.2131419598
0.2131419598
0.2131419598
0.2131419598
0.2131419598
0.2131419598
0.2131419598
0.2131419598
0.2131419598
0.03028905138
0.03029069075
0.03029364536
0.03029766737
0.03030254873
0.0303081216
0.03031425564
0.03032085452
0.0303278445
0.03033516486
0.03034276534
0.03035060471
0.03035864724
0.03036685952
0.03037520754
0.03038367487
0.03039224308
0.03040089476
0.03040961438
0.03041838801
0.03042740092
0.03043665182
0.03044593352
0.03045524139
0.03046456994
0.03047391246
0.03048326013
0.03049260114
0.03050192025
0.03051119911
0.03052041812
0.030529561
0.03053862322
0.03054761135
0.03055653495
0.03056540195
0.03057421675
0.03058298024
0.03059169145
0.03060035006
0.03060895856
0.0306175214
0.03062604344
0.03063452813
0.0306429762
0.03065138531
0.03065975013
0.03066806274
0.03067631312
0.03068448997
0.030692582
0.03070058115
0.0307084834
0.03071629276
0.03072401796
0.03073166815
0.03073925217
0.0307467781
0.03075425156
0.03076167553
0.03076905061
0.0307763757
0.03078364861
0.03079086651
0.03079802551
0.0308053512
0.03081264179
0.03081985995
0.03082700047
0.03083405876
0.03084103435
0.03084792961
0.03085474876
0.03086149684
0.03086817898
0.0308748005
0.03088136735
0.03088788481
0.03089435608
0.03090078199
0.03090716139
0.03091349154
0.03091976864
0.03092598845
0.03093214685
0.03093824047
0.03094426717
0.03095022621
0.03095611839
0.03096194582
0.03096771144
0.0309734186
0.03097907037
0.0309846692
0.03099021668
0.0309957136
0.03100116
0.03100655545
0.03101189925
0.03101719047
0.03102242807
0.0310276109
0.03103273785
0.0310378081
0.03104282133
0.03104777841
0.03105268282
0.03105753842
0.03106234921
0.03106711907
0.03107185167
0.03107655032
0.03108121778
0.0310858561
0.03109046659
0.03109504974
0.03109960539
0.03110413284
0.03110863096
0.03111309836
0.03111753353
0.03112193498
0.03112630144
0.03113063223
0.03113492758
0.03113918853
0.03114341693
0.03114761591
0.03115178875
0.03115593849
0.03116006795
0.03116417985
0.03116827666
0.03117236053
0.03117643325
0.03118049637
0.03118455112
0.03118859852
0.03119263911
0.03119677836
0.03120091431
0.03120504881
0.03120918407
0.03121332211
0.03121746489
0.03122160758
0.03122574203
0.0312298882
0.03123404857
0.03123822557
0.0312424214
0.03124663702
0.03125087363
0.03125513238
0.03125941433
0.03126372044
0.03126805167
0.031272409
0.03127679354
0.0312812066
0.03128564966
0.03129012437
0.03129463252
0.03129917601
0.03130375691
0.03130837747
0.03131304002
0.03131774679
0.03132249992
0.03132730166
0.03133215426
0.03133706005
0.03134202127
0.03134704018
0.03135211909
0.03135726009
0.03136246522
0.03136773637
0.0313730754
0.03137848612
0.03138397925
0.03138957466
0.03139530132
0.03140116097
0.0314071321
0.03141320285
0.03141936954
0.03142563197
0.0314319913
0.03143844941
0.0314450087
0.03145167227
0.03145844459
0.03146533395
0.03147234109
0.03147946632
0.03148671062
0.03149407395
0.03150148598
0.03150898743
0.03151660552
0.03152434042
0.03153219204
0.03154016062
0.0315482478
0.03155645571
0.03156478732
0.03157324548
0.03158183292
0.03159055315
0.03159941197
0.031608418
0.03161758264
0.03162692162
0.03163643072
0.0316461078
0.03165594545
0.03166591524
0.031676044
0.03168631382
0.03169672218
0.03170732293
0.03171812156
0.03172912261
0.03174033156
0.03175175638
0.03176340647
0.03177529019
0.03178741532
0.0317999196
0.03181272547
0.03182580331
0.03183916004
0.03185266984
0.03186640167
0.03188041304
0.03189470905
0.03190927354
0.03192411435
0.03193927702
0.03195482358
0.03197081362
0.0319873034
0.03200415733
0.0320215464
0.03203956571
0.03205825381
0.03207766289
0.03209785854
0.03211890622
0.03214087558
0.03216354678
0.03218723856
0.03221203512
0.03223800422
0.03226519985
0.03229368787
0.03232338642
0.03235439966
0.03238693883
0.03242127996
0.03245767277
0.0324963337
0.03253754329
0.03258162956
0.03262945502
0.03268082863
0.03273608635
0.03279572561
0.03286011991
0.03292963469
0.03300505869
0.03308725128
0.03317689489
0.03327495651
0.0333840344
0.03350424708
0.03363717723
0.03378464825
0.03394944319
0.03413551311
0.03434361773
0.03457779728
0.03484448384
0.03514656587
0.03549235103
0.03588836102
0.03634758661
0.03688049249
0.03750420346
0.03823699535
0.03910449643
0.04013751796
0.04137743346
0.042879679
0.0447132027
0.04697551398
0.04980164759
0.05336213776
0.05797151342
0.06403284808
0.07235007382
0.08387855833
0.09920989603
0.1187329457
0.1419244541
0.1658733293
0.1813358048
0.1914934519
0.1976857169
0.2023487616
0.205672911
0.207976882
0.2096638929
0.2107256015
0.2114281116
0.2119221225
0.2122656607
0.2125091265
0.2126828721
0.212808725
0.2128882102
0.2129399389
0.2129808016
0.2130132167
0.2130390775
0.2130597344
0.2130762495
0.2130894734
0.2131000525
0.2131085199
0.2131152955
0.2131207118
0.2131250426
0.2131285012
0.2131312616
0.2131334636
0.2131352182
0.2131366154
0.2131377271
0.2131386106
0.2131393123
0.213139869
0.2131403104
0.2131406599
0.2131409364
0.213141155
0.2131413276
0.2131414638
0.213141571
0.2131416555
0.2131417219
0.2131417741
0.213141815
0.213141847
0.2131418721
0.2131418917
0.2131419071
0.213141919
0.2131419283
0.2131419355
0.2131419411
0.2131419455
0.2131419488
0.2131419514
0.2131419534
0.2131419549
0.2131419561
0.213141957
0.2131419577
0.2131419582
0.2131419586
0.2131419589
0.2131419592
0.2131419593
0.2131419595
0.2131419596
0.2131419596
0.2131419597
0.2131419597
0.2131419597
0.2131419598
0.2131419598
0.2131419598
0.2131419598
0.2131419598
0.2131419598
0.2131419598
0.2131419598
0.2131419598
0.2131419598
0.2131419598
0.2131419598
0.2131419598
0.2131419598
0.2131419598
0.2131419598
0.2131419598
0.2131419598
0.2131419598
0.2131419598
0.2131419598
0.2131419598
0.2131419598
0.2131419598
0.2131419598
0.2131419598
0.2131419598
0.2131419598
0.2131419598
0.2131419598
0.2131419598
0.2131419598
0.2131419598
0.2131419598
0.2131419598
0.2131419598
0.2131419598
0.2131419598
0.2131419598
0.2131419598
0.2131419598
0.2131419598
0.2131419598
0.2131419598
0.2131419598
0.2131419598
0.2131419598
0.2131419598
0.2131419598
0.2131419598
0.2131419598
0.2131419598
0.2131419598
0.2131419598
0.2131419598
0.2131419598
0.2131419598
0.2131419598
0.2131419598
0.2131419598
0.2131419598
0.2131419598
0.2131419598
0.2131419598
0.2131419598
0.2131419598
0.2131419598
0.2131419598
0.2131419598
0.2131419598
0.2131419598
0.2131419598
0.2131419598
0.2131419598
0.2131419598
0.2131419598
0.2131419598
0.2131419598
0.2131419598
0.2131419598
0.2131419598
0.2131419598
0.2131419598
0.2131419598
0.2131419598
0.2131419598
0.2131419598
0.2131419598
0.2131419598
0.2131419598
0.2131419598
0.2131419598
0.2131419598
0.2131419598
0.2131419598
0.2131419598
0.2131419598
0.2131419598
0.2131419598
0.2131419598
0.2131419598
0.2131419598
0.2131419598
0.2131419598
0.2131419598
0.2131419598
0.2131419598
0.2131419598
0.2131419598
0.2131419598
0.2131419598
0.2131419598
0.2131419598
0.2131419598
0.2131419598
0.2131419598
0.2131419598
0.2131419598
0.2131419598
0.2131419598
0.2131419598
0.2131419598
0.2131419598
0.2131419598
0.2131419598
0.2131419598
0.2131419598
0.2131419598
0.2131419598
0.2131419598
0.2131419598
0.2131419598
0.2131419598
0.2131419598
0.2131419598
0.2131419598
0.2131419598
0.2131419598
0.2131419598
0.2131419598
0.2131419598
0.2131419598
0.2131419598
0.2131419598
0.2131419598
0.2131419598
0.2131419598
0.2131419598
0.2131419598
0.2131419598
0.2131419598
0.2131419598
0.2131419598
0.2131419598
0.2131419598
0.2131419598
0.2131419598
0.2131419598
0.2131419598
0.2131419598
0.2131419598
0.2131419598
0.2131419598
0.2131419598
0.2131419598
0.2131419598
0.2131419598
0.2131419598
0.2131419598
0.2131419598
0.2131419598
0.2131419598
0.2131419598
0.2131419598
0.2131419598
0.2131419598
0.2131419598
0.2131419598
0.2131419598
0.2131419598
0.2131419598
0.2131419598
0.2131419598
0.2131419598
0.2131419598
0.2131419598
0.2131419598
0.2131419598
0.2131419598
0.2131419598
0.2131419598
0.2131419598
0.2131419598
0.2131419598
0.2131419598
0.2131419598
0.2131419598
0.2131419598
0.2131419598
0.2131419598
0.2131419598
0.2131419598
0.2131419598
0.2131419598
0.2131419598
0.2131419598
0.2131419598
0.2131419598
0.2131419598
0.2131419598
0.2131419598
0.2131419598
0.2131419598
0.2131419598
0.2131419598
0.2131419598
0.2131419598
0.2131419598
0.2131419598
0.02975090979
0.02975263257
0.02975574188
0.02975997622
0.02976510642
0.02977093995
0.02977732889
0.02978417697
0.02979141185
0.02979897176
0.02980680595
0.02981487639
0.02982314989
0.02983160572
0.02984084979
0.02985022225
0.02985970205
0.02986927022
0.02987891063
0.02988861013
0.02989835891
0.02990814962
0.02991797685
0.0299278367
0.02993772531
0.02994763767
0.02995756631
0.02996749977
0.02997742123
0.02998730805
0.02999713246
0.03000686259
0.03001649341
0.03002604402
0.03003553158
0.03004496868
0.03005436127
0.0300637091
0.03007300814
0.0300822552
0.0300914536
0.03010060984
0.0301097316
0.0301188244
0.03012788973
0.03013692497
0.03014592376
0.03015487652
0.03016377104
0.03017259337
0.03018132951
0.03018996797
0.03019880083
0.03020770699
0.03021652027
0.03022525431
0.03023392151
0.03024253158
0.03025109068
0.03025960148
0.03026806372
0.03027647502
0.03028483206
0.03029313159
0.03030137063
0.0303095461
0.03031765248
0.03032568273
0.03033362788
0.03034147741
0.03034923188
0.03035689484
0.03036447201
0.0303719699
0.03037939422
0.03038675033
0.0303940466
0.03040129079
0.03040848707
0.0304156362
0.03042273627
0.03042978341
0.03043677239
0.03044369728
0.0304505523
0.0304573326
0.03046403495
0.03047065806
0.03047720272
0.03048367152
0.03049006837
0.03049639762
0.03050266321
0.0305088681
0.03051501407
0.03052110168
0.03052713056
0.03053309976
0.03053900809
0.03054485419
0.03055063647
0.03055635306
0.03056200205
0.03056758172
0.03057313257
0.03057880639
0.03058441104
0.03058995145
0.03059543247
0.03060085873
0.03060623455
0.03061156383
0.03061684985
0.03062209492
0.03062730027
0.03063246613
0.03063759185
0.0306426761
0.03064771705
0.03065271262
0.03065766067
0.03066255924
0.03066740697
0.03067220347
0.03067694924
0.03068164518
0.03068629239
0.03069089433
0.03069545414
0.03069997458
0.0307044583
0.03070890822
0.03071332697
0.03071771671
0.03072207919
0.03072641577
0.03073072755
0.03073501543
0.03073928028
0.03074352318
0.03074774611
0.03075195131
0.03075614107
0.03076031772
0.03076448371
0.03076864178
0.03077279473
0.03077694449
0.03078109306
0.0307852371
0.03078936815
0.03079350206
0.03079764004
0.03080178306
0.0308059319
0.03081008723
0.03081424964
0.0308184198
0.03082259849
0.0308267868
0.03083098607
0.03083519786
0.03083942385
0.03084366584
0.03084792582
0.03085220609
0.03085650965
0.03086083831
0.03086519385
0.03086957848
0.03087399439
0.03087844393
0.03088292932
0.03088745286
0.03089201685
0.03089662349
0.03090127501
0.0309059738
0.03091072282
0.0309155266
0.03092039262
0.03092533198
0.03093035631
0.03093546788
0.03094066064
0.03094592937
0.03095127156
0.03095668665
0.03096217528
0.03096773885
0.03097337929
0.03097909896
0.03098490048
0.03099074064
0.03099664983
0.03100265313
0.03100875263
0.03101494188
0.03102121613
0.03102757788
0.03103403036
0.03104057496
0.03104721209
0.03105394228
0.03106076658
0.03106781152
0.03107498055
0.03108225388
0.0310896356
0.03109713022
0.03110474329
0.03111248232
0.03112035912
0.03112837789
0.031136539
0.03114484341
0.03115328965
0.03116187579
0.03117060833
0.0311794918
0.03118853368
0.03119774745
0.03120714021
0.03121671519
0.03122647439
0.03123643202
0.03124654029
0.03125685384
0.03126740429
0.03127820425
0.03128926573
0.03130060054
0.03131222185
0.03132414546
0.03133636762
0.03134889149
0.03136160835
0.03137463971
0.03138802408
0.03140180674
0.03141604574
0.03143078022
0.03144605238
0.03146189365
0.03147832357
0.03149542349
0.03151324415
0.03153184902
0.03155130403
0.03157167477
0.03159314645
0.03161565322
0.03163929014
0.03166415666
0.03169034896
0.03171800279
0.03174723389
0.03177806533
0.03181064155
0.03184516546
0.03188216084
0.03192195264
0.03196449643
0.03201006758
0.03205906257
0.03211190088
0.03216904756
0.03223110957
0.03229839712
0.03237139994
0.03245098135
0.03253784623
0.0326337616
0.03273955126
0.03285591233
0.03298415077
0.03312582738
0.03328319962
0.03345967667
0.03365667665
0.03387699962
0.03412751901
0.03440981985
0.03473017112
0.03509492968
0.0355117793
0.03598951284
0.03654150635
0.03718198324
0.0379274848
0.03880006903
0.03982933162
0.04104490561
0.04249236896
0.04423056338
0.04633337957
0.04889837071
0.052065589
0.05602607196
0.06109108086
0.06769335139
0.07648858414
0.08822589781
0.1032873056
0.1213824772
0.140687919
0.1586755478
0.1723124302
0.1825363456
0.190153037
0.1959006992
0.1999936499
0.2037340961
0.206392421
0.2084663088
0.2098371937
0.2107713843
0.2114417777
0.2119225767
0.2122640175
0.2125101559
0.2126871099
0.2128152859
0.2129043359
0.2129527353
0.2129913527
0.213021928
0.213046277
0.2130657046
0.2130811831
0.2130935421
0.2131034138
0.2131112822
0.213117566
0.2131225754
0.2131265665
0.2131297473
0.2131322778
0.2131342906
0.2131358905
0.2131371607
0.2131381685
0.2131389675
0.2131396002
0.213140101
0.2131404969
0.2131408097
0.2131410565
0.2131412512
0.2131414045
0.2131415251
0.2131416199
0.2131416944
0.2131417528
0.2131417985
0.2131418344
0.2131418624
0.2131418842
0.2131419013
0.2131419146
0.2131419249
0.2131419329