/*--------------------------------*- C++ -*----------------------------------*\
| =========                 |                                                 |
| \\      /  F ield         | OpenFOAM: The Open Source CFD Toolbox           |
|  \\    /   O peration     | Version:  v2006                                 |
|   \\  /    A nd           | Website:  www.openfoam.com                      |
|    \\/     M anipulation  |                                                 |
\*---------------------------------------------------------------------------*/
FoamFile
{
    version     2.0;
    format      ascii;
    class       volScalarField;
    location    "0.09";
    object      OH;
}
// * * * * * * * * * * * * * * * * * * * * * * * * * * * * * * * * * * * * * //

dimensions      [0 0 0 0 0 0 0];


internalField   nonuniform List<scalar> 
72000
(
2.995398484e-05
2.995996129e-05
2.997142191e-05
2.998792009e-05
3.000898445e-05
3.003412994e-05
3.006289023e-05
3.009482338e-05
3.012953346e-05
3.016665676e-05
3.020584959e-05
3.024677931e-05
3.028920106e-05
3.033292846e-05
3.037777464e-05
3.042356321e-05
3.047013173e-05
3.051733528e-05
3.056504802e-05
3.061316295e-05
3.066158769e-05
3.071024062e-05
3.075904829e-05
3.080794344e-05
3.085686386e-05
3.090574867e-05
3.095453482e-05
3.100315518e-05
3.105153879e-05
3.109961417e-05
3.114731591e-05
3.11945933e-05
3.124141725e-05
3.128777886e-05
3.133368033e-05
3.13791255e-05
3.142411417e-05
3.146864151e-05
3.151270191e-05
3.155629491e-05
3.159942945e-05
3.164212315e-05
3.168439772e-05
3.172627269e-05
3.176776009e-05
3.18088615e-05
3.184956748e-05
3.188985859e-05
3.192970747e-05
3.196908152e-05
3.200794905e-05
3.204629636e-05
3.208412628e-05
3.212144221e-05
3.215823918e-05
3.219452798e-05
3.223162547e-05
3.226827644e-05
3.230452485e-05
3.234039436e-05
3.237589621e-05
3.241103397e-05
3.2445807e-05
3.248021279e-05
3.25142477e-05
3.254790538e-05
3.258118134e-05
3.26140689e-05
3.264656198e-05
3.267865787e-05
3.271035977e-05
3.274167841e-05
3.277263174e-05
3.2803243e-05
3.283353816e-05
3.286354376e-05
3.289328479e-05
3.292278202e-05
3.295204998e-05
3.298109616e-05
3.300992156e-05
3.303852195e-05
3.306688975e-05
3.309501622e-05
3.312289361e-05
3.315051718e-05
3.317788662e-05
3.320500668e-05
3.323188699e-05
3.325854124e-05
3.328498491e-05
3.33112352e-05
3.333730813e-05
3.336321765e-05
3.338897509e-05
3.341458913e-05
3.344006638e-05
3.34654125e-05
3.349063123e-05
3.351572779e-05
3.354070673e-05
3.356557338e-05
3.359033426e-05
3.361499789e-05
3.363957529e-05
3.366408009e-05
3.368852839e-05
3.371293862e-05
3.373733114e-05
3.376172737e-05
3.378614885e-05
3.381061637e-05
3.383514917e-05
3.38597642e-05
3.388447575e-05
3.390929534e-05
3.39342319e-05
3.395929211e-05
3.398448083e-05
3.400980135e-05
3.403525521e-05
3.40608411e-05
3.408655202e-05
3.411237057e-05
3.413829709e-05
3.416432998e-05
3.419046505e-05
3.421676902e-05
3.424328327e-05
3.427003818e-05
3.4297059e-05
3.432436812e-05
3.435198617e-05
3.437993243e-05
3.440822516e-05
3.443688172e-05
3.446591883e-05
3.449535278e-05
3.452519972e-05
3.455547541e-05
3.458619844e-05
3.461738639e-05
3.464905507e-05
3.468121615e-05
3.471401311e-05
3.474748458e-05
3.478150903e-05
3.481611709e-05
3.485133434e-05
3.488718316e-05
3.492368402e-05
3.496085617e-05
3.499871795e-05
3.503728694e-05
3.507658017e-05
3.511661447e-05
3.51574067e-05
3.51989741e-05
3.524133456e-05
3.528450681e-05
3.532851046e-05
3.537336593e-05
3.541909429e-05
3.54657171e-05
3.55132563e-05
3.556173422e-05
3.561117373e-05
3.566159829e-05
3.571303206e-05
3.576549967e-05
3.58190262e-05
3.587363701e-05
3.592935774e-05
3.59862138e-05
3.604423017e-05
3.610343097e-05
3.616383823e-05
3.622546959e-05
3.628833382e-05
3.635238881e-05
3.641749566e-05
3.648324754e-05
3.655497872e-05
3.663231044e-05
3.671065941e-05
3.679046832e-05
3.687188439e-05
3.695497143e-05
3.703976866e-05
3.7126309e-05
3.721462516e-05
3.730475177e-05
3.739672577e-05
3.749058467e-05
3.758636376e-05
3.768409624e-05
3.778381435e-05
3.788555093e-05
3.798933575e-05
3.809518874e-05
3.820312325e-05
3.831315147e-05
3.842528116e-05
3.853920743e-05
3.865524066e-05
3.877346209e-05
3.889390508e-05
3.901658199e-05
3.91414619e-05
3.926845725e-05
3.939773642e-05
3.952941547e-05
3.966361137e-05
3.980041025e-05
3.993988894e-05
4.008214292e-05
4.022734805e-05
4.037594158e-05
4.052772772e-05
4.068259731e-05
4.084055509e-05
4.100163479e-05
4.11658785e-05
4.133333475e-05
4.150405877e-05
4.167811237e-05
4.185555861e-05
4.203645191e-05
4.222079573e-05
4.240857505e-05
4.260003198e-05
4.279530244e-05
4.29944591e-05
4.319753448e-05
4.340455415e-05
4.361546028e-05
4.382993104e-05
4.404722456e-05
4.429052882e-05
4.45449276e-05
4.480463038e-05
4.507049391e-05
4.534302602e-05
4.562256228e-05
4.59092821e-05
4.620304482e-05
4.650464138e-05
4.681451759e-05
4.713286742e-05
4.746013011e-05
4.779702062e-05
4.814406405e-05
4.850168164e-05
4.887027911e-05
4.925027599e-05
4.96420918e-05
5.004651052e-05
5.046465166e-05
5.091425864e-05
5.139751924e-05
5.18986788e-05
5.241886248e-05
5.295954209e-05
5.35223684e-05
5.410930763e-05
5.472159475e-05
5.536072345e-05
5.602853073e-05
5.67273543e-05
5.746032422e-05
5.825543451e-05
5.909149268e-05
5.997120012e-05
6.089815313e-05
6.187576233e-05
6.290636563e-05
6.399457671e-05
6.515662732e-05
6.640657497e-05
6.773811959e-05
6.915807914e-05
7.067514964e-05
7.229591102e-05
7.407531587e-05
7.601173209e-05
7.810596659e-05
8.037538982e-05
8.28836003e-05
8.567472139e-05
8.873436563e-05
9.208683311e-05
9.587686107e-05
0.0001000477287
0.0001046016324
0.0001097087452
0.0001153494113
0.0001215310486
0.0001283262953
0.0001355702895
0.0001431382323
0.0001507949398
0.0001577143326
0.0001637307246
0.0001698525682
0.0001814563584
0.0001655182884
8.428503419e-07
2.889298479e-07
1.198011095e-07
7.934466861e-08
5.473466566e-08
3.45077906e-08
1.87428816e-08
7.745586308e-09
3.573640299e-09
1.569490469e-09
7.807380124e-10
4.001896231e-10
2.642811723e-10
2.026680917e-10
1.587935832e-10
1.259027008e-10
1.004631333e-10
8.043454132e-11
6.450392283e-11
5.175773139e-11
4.152986636e-11
3.331206255e-11
2.670517702e-11
2.139401533e-11
1.712568144e-11
1.369730488e-11
1.094555287e-11
8.738486802e-12
6.969866483e-12
5.553831554e-12
4.42112796e-12
3.515942827e-12
2.793264941e-12
2.216865282e-12
1.757595181e-12
1.392017051e-12
1.1013112e-12
8.703774957e-13
6.871131979e-13
5.418292502e-13
4.267764358e-13
3.357614832e-13
2.638405954e-13
2.070709487e-13
1.623109344e-13
1.270603914e-13
9.933143535e-14
7.75453963e-14
6.044970449e-14
4.70516594e-14
3.65652905e-14
2.836898113e-14
2.197164327e-14
1.698573596e-14
1.310579623e-14
1.009133117e-14
7.753216056e-15
5.942909752e-15
4.543887584e-15
3.464859556e-15
2.634396433e-15
1.996686076e-15
1.508186419e-15
1.134971787e-15
8.506519426e-16
6.347330632e-16
4.713230053e-16
3.481262466e-16
2.556419608e-16
1.865483235e-16
1.352117436e-16
9.731310341e-17
6.954151652e-17
4.937283043e-17
3.488839212e-17
2.46253898e-17
1.748547685e-17
1.264421307e-17
9.489582898e-18
7.582817535e-18
6.681376185e-18
6.681376185e-18
6.681376185e-18
6.681376185e-18
6.681376185e-18
6.681376185e-18
6.681376185e-18
6.681376185e-18
6.681376185e-18
6.681376185e-18
6.681376185e-18
6.681376185e-18
6.681376185e-18
6.681376185e-18
6.75328597e-18
6.881014002e-18
7.014639151e-18
7.14633752e-18
7.276436076e-18
7.406406181e-18
7.637340127e-18
7.88235128e-18
8.029361816e-18
8.120854283e-18
8.188189991e-18
8.239191251e-18
8.262418369e-18
8.276963664e-18
8.274382185e-18
8.282485798e-18
8.274122936e-18
8.27756655e-18
8.263762765e-18
8.254963093e-18
8.242262305e-18
8.231980329e-18
8.225633807e-18
8.223643474e-18
8.225122846e-18
8.210819628e-18
8.199107569e-18
8.193831865e-18
8.194562223e-18
8.199406897e-18
8.187226698e-18
8.164781791e-18
8.156467906e-18
8.154071867e-18
8.151373333e-18
8.149511106e-18
8.151543404e-18
8.137735417e-18
8.134131245e-18
8.132375503e-18
8.134463877e-18
8.140123583e-18
8.125837553e-18
8.121018272e-18
8.124229875e-18
8.111577839e-18
8.106865618e-18
8.09198739e-18
8.090714776e-18
8.09352877e-18
8.099520917e-18
8.085497611e-18
8.08221451e-18
8.076985863e-18
8.077873769e-18
8.062972572e-18
8.056729721e-18
8.053922352e-18
8.057355637e-18
8.067555636e-18
8.064116723e-18
8.046036756e-18
8.045802742e-18
8.055430854e-18
8.050576579e-18
8.034111722e-18
8.029535238e-18
8.029671087e-18
8.036007661e-18
8.022207535e-18
8.013928761e-18
8.007885774e-18
8.011523546e-18
8.002754665e-18
7.993057714e-18
7.973353036e-18
7.957195066e-18
7.959447036e-18
7.960705885e-18
7.961681392e-18
7.947262401e-18
7.942359989e-18
7.940348999e-18
7.945426528e-18
7.933107666e-18
7.927721353e-18
7.923885675e-18
7.918548192e-18
7.921780414e-18
7.906885076e-18
7.901749809e-18
7.905564823e-18
7.895114584e-18
7.897706241e-18
7.881791881e-18
7.876492743e-18
7.870409638e-18
7.869183774e-18
7.868448055e-18
7.870903902e-18
7.875552526e-18
7.864652377e-18
7.85525777e-18
7.845107598e-18
7.838464937e-18
7.834379522e-18
7.828169275e-18
7.827156223e-18
7.812012535e-18
7.810920864e-18
7.814879746e-18
7.801025665e-18
7.802664588e-18
7.794167293e-18
7.774130174e-18
7.763767648e-18
7.757077544e-18
7.754550278e-18
7.754605269e-18
7.736588658e-18
7.732444353e-18
7.7151228e-18
7.70683566e-18
7.697557441e-18
7.69284183e-18
7.692241305e-18
7.695673739e-18
7.683800624e-18
7.682258657e-18
7.666095293e-18
7.662177139e-18
7.67112788e-18
7.666903684e-18
7.653601331e-18
7.63055563e-18
7.62814764e-18
7.616667121e-18
7.594015679e-18
7.586007332e-18
7.587651302e-18
7.570807176e-18
7.566493298e-18
7.572774411e-18
7.562931165e-18
7.538838695e-18
7.535075812e-18
7.522318673e-18
7.500049733e-18
7.485564409e-18
7.475464102e-18
7.463185432e-18
7.452400743e-18
7.445010607e-18
7.436646851e-18
7.429818929e-18
7.421631336e-18
7.417993128e-18
7.390775262e-18
7.370986218e-18
7.360015305e-18
7.3574246e-18
7.341079365e-18
7.33790868e-18
7.337653735e-18
7.317716778e-18
7.30654041e-18
7.281895514e-18
7.267455126e-18
7.264973176e-18
7.250749496e-18
7.232864683e-18
7.206174843e-18
7.188586052e-18
7.173337491e-18
7.159762891e-18
7.147999607e-18
7.142137556e-18
7.119698888e-18
7.104738834e-18
7.089677845e-18
7.081088859e-18
7.055700729e-18
7.03939164e-18
7.032138277e-18
7.010069471e-18
6.996703639e-18
6.981280302e-18
6.965477815e-18
6.957039556e-18
6.929876838e-18
6.915801339e-18
6.896444473e-18
6.866681498e-18
6.85352497e-18
6.824792655e-18
6.807526283e-18
6.793717592e-18
6.760964304e-18
6.729062698e-18
6.699141403e-18
3.274345664e-05
3.275394293e-05
3.27735153e-05
3.280120859e-05
3.283606271e-05
3.287718302e-05
3.292379135e-05
3.297513421e-05
3.303063405e-05
3.308972988e-05
3.315192673e-05
3.321678749e-05
3.328394031e-05
3.3353064e-05
3.342386426e-05
3.349607586e-05
3.356945625e-05
3.364379037e-05
3.371889165e-05
3.379460536e-05
3.387082673e-05
3.39474404e-05
3.402431356e-05
3.410134996e-05
3.417846266e-05
3.425556398e-05
3.43325593e-05
3.44093431e-05
3.448579867e-05
3.456180345e-05
3.463724149e-05
3.471202261e-05
3.478610187e-05
3.48594768e-05
3.493216464e-05
3.500418162e-05
3.50755314e-05
3.514620428e-05
3.521618561e-05
3.52854694e-05
3.535406908e-05
3.542201536e-05
3.548934683e-05
3.555609721e-05
3.562228532e-05
3.568791055e-05
3.575295273e-05
3.581737457e-05
3.588112567e-05
3.59441467e-05
3.600565233e-05
3.606568408e-05
3.612492336e-05
3.618338348e-05
3.624108148e-05
3.629804095e-05
3.635429268e-05
3.640991644e-05
3.646496302e-05
3.651946075e-05
3.657342137e-05
3.662684564e-05
3.667972851e-05
3.673206304e-05
3.678384473e-05
3.683508524e-05
3.688575647e-05
3.69358388e-05
3.69853195e-05
3.703419114e-05
3.708245551e-05
3.713012802e-05
3.717723733e-05
3.722382087e-05
3.726992013e-05
3.731557747e-05
3.736083339e-05
3.740572148e-05
3.74502645e-05
3.749447325e-05
3.753834761e-05
3.758187886e-05
3.762505271e-05
3.766785286e-05
3.771026475e-05
3.775227889e-05
3.779389339e-05
3.783511492e-05
3.78759584e-05
3.791644697e-05
3.795660309e-05
3.799645643e-05
3.803603188e-05
3.807535123e-05
3.811443159e-05
3.815328551e-05
3.819192206e-05
3.823034832e-05
3.826857028e-05
3.830659433e-05
3.834442681e-05
3.83820747e-05
3.841954662e-05
3.845685449e-05
3.84940151e-05
3.853104932e-05
3.856798128e-05
3.860483917e-05
3.864165494e-05
3.86784623e-05
3.871529501e-05
3.875218565e-05
3.878916423e-05
3.882625706e-05
3.886348602e-05
3.890086849e-05
3.893841772e-05
3.897614352e-05
3.901405311e-05
3.905215179e-05
3.909044346e-05
3.912893064e-05
3.916761374e-05
3.920667644e-05
3.924606821e-05
3.928567804e-05
3.9325529e-05
3.936566315e-05
3.940612372e-05
3.944695079e-05
3.948818138e-05
3.952984976e-05
3.957198812e-05
3.961462691e-05
3.96577951e-05
3.97015203e-05
3.974582905e-05
3.979074728e-05
3.983630192e-05
3.988252798e-05
3.992944705e-05
3.997708797e-05
4.002547903e-05
4.007464466e-05
4.012460047e-05
4.017537347e-05
4.022701008e-05
4.027956192e-05
4.033306959e-05
4.038756877e-05
4.044309269e-05
4.049967373e-05
4.055734291e-05
4.061613014e-05
4.067606461e-05
4.073717527e-05
4.079949132e-05
4.08630428e-05
4.092786103e-05
4.0993979e-05
4.106143144e-05
4.113025464e-05
4.12004862e-05
4.127216471e-05
4.134532946e-05
4.142002043e-05
4.149627872e-05
4.157414694e-05
4.165366929e-05
4.173489092e-05
4.181785811e-05
4.190261772e-05
4.198921793e-05
4.207770691e-05
4.216813245e-05
4.226054281e-05
4.23549847e-05
4.245150183e-05
4.255178895e-05
4.265811753e-05
4.276685364e-05
4.287835478e-05
4.29941152e-05
4.311412666e-05
4.323718103e-05
4.336310618e-05
4.349192166e-05
4.362368121e-05
4.375844602e-05
4.389628135e-05
4.403725723e-05
4.418144978e-05
4.432894222e-05
4.447982132e-05
4.463416766e-05
4.47920584e-05
4.495356974e-05
4.511878602e-05
4.52878366e-05
4.546075329e-05
4.56375639e-05
4.58183223e-05
4.600308569e-05
4.619190077e-05
4.638488856e-05
4.658216149e-05
4.678381811e-05
4.698994477e-05
4.72006176e-05
4.741592569e-05
4.763588471e-05
4.786065965e-05
4.809057813e-05
4.832581611e-05
4.856652707e-05
4.881285953e-05
4.906496099e-05
4.934768508e-05
4.964227134e-05
4.994375891e-05
5.025234269e-05
5.056814394e-05
5.089132051e-05
5.122204158e-05
5.156049269e-05
5.190688216e-05
5.226143103e-05
5.26243909e-05
5.299600448e-05
5.337648836e-05
5.376621269e-05
5.416551695e-05
5.457463307e-05
5.49935718e-05
5.542268746e-05
5.586230225e-05
5.63460697e-05
5.684723539e-05
5.736095358e-05
5.78879055e-05
5.842915505e-05
5.89857938e-05
5.955877095e-05
6.014885325e-05
6.075687591e-05
6.138359682e-05
6.20300074e-05
6.269716864e-05
6.340515928e-05
6.415570375e-05
6.493241298e-05
6.573706195e-05
6.657055955e-05
6.743418667e-05
6.832936675e-05
6.925747827e-05
7.02204303e-05
7.123734815e-05
7.22999825e-05
7.339893772e-05
7.454111229e-05
7.573102405e-05
7.697298837e-05
7.827130831e-05
7.964739979e-05
8.109255571e-05
8.260730938e-05
8.419670744e-05
8.586670437e-05
8.763804665e-05
8.952560655e-05
9.151398653e-05
9.36134008e-05
9.582580803e-05
9.823349069e-05
0.0001007896129
0.0001035104249
0.0001064271647
0.000109579235
0.0001129533377
0.0001165708722
0.0001204912923
0.0001247196449
0.0001292824191
0.0001341479558
0.0001394474898
0.0001452076702
0.0001514639287
0.0001582991563
0.0001657815131
0.0001739378377
0.0001828657405
0.0001925360146
0.0002029670617
0.0002140678103
0.000225689766
0.0002374770292
0.0002486998172
0.0002581803099
0.0002625305587
0.0002558716126
0.0002254004644
0.0001547632308
7.316834702e-05
2.774737908e-05
9.083759851e-06
1.313121013e-06
6.958401595e-07
2.717297305e-07
2.258766209e-07
1.65334285e-07
1.094708974e-07
6.359372553e-08
2.482943009e-08
9.737686682e-09
4.563928822e-09
2.262401637e-09
1.107134972e-09
4.773054461e-10
2.079552378e-10
1.641516102e-10
1.305465451e-10
1.042561075e-10
8.3450565e-11
6.687396982e-11
5.36031458e-11
4.296026046e-11
3.441958799e-11
2.756056441e-11
2.205463859e-11
1.763535601e-11
1.409016507e-11
1.124834591e-11
8.971505731e-12
7.149118669e-12
5.691597457e-12
4.526873126e-12
3.597048772e-12
2.855391226e-12
2.264392688e-12
1.793912048e-12
1.41972668e-12
1.122423338e-12
8.864380647e-13
6.993089748e-13
5.51072129e-13
4.337676653e-13
3.410377974e-13
2.678132149e-13
2.100546365e-13
1.645454778e-13
1.2872883e-13
1.005728534e-13
7.846557376e-14
6.112883259e-14
4.755047463e-14
3.69296669e-14
2.863347881e-14
2.216223449e-14
1.712188053e-14
1.320202878e-14
1.015848223e-14
7.79931191e-15
5.973885306e-15
4.564107231e-15
3.477514172e-15
2.641804391e-15
2.000524841e-15
1.509652092e-15
1.134912443e-15
8.496618459e-16
6.332204121e-16
4.695643218e-16
3.463002659e-16
2.538621528e-16
1.848834216e-16
1.336962899e-16
9.596177632e-17
6.835508682e-17
4.834189775e-17
3.399735538e-17
2.385832096e-17
1.682598075e-17
1.206803563e-17
8.96974919e-18
7.074019024e-18
6.681376185e-18
6.681376185e-18
6.681376185e-18
6.681376185e-18
6.681376185e-18
6.681376185e-18
6.681376185e-18
6.681376185e-18
6.681376185e-18
6.681376185e-18
6.681376185e-18
6.681376185e-18
6.681376185e-18
6.681376185e-18
6.694268098e-18
6.84220981e-18
6.983378597e-18
7.118988914e-18
7.247382561e-18
7.366224049e-18
7.477124865e-18
7.936455766e-18
8.216723367e-18
8.408120821e-18
8.52880648e-18
8.628922869e-18
8.676546401e-18
8.694346965e-18
8.698130696e-18
8.704055213e-18
8.693762415e-18
8.690231358e-18
8.683932474e-18
8.676130707e-18
8.648138174e-18
8.629926868e-18
8.615641342e-18
8.613872266e-18
8.601762793e-18
8.599619652e-18
8.571244806e-18
8.563157151e-18
8.567793018e-18
8.567749621e-18
8.543237619e-18
8.517284432e-18
8.510643506e-18
8.516258388e-18
8.512556019e-18
8.507227903e-18
8.494993369e-18
8.483114899e-18
8.486344384e-18
8.482880074e-18
8.488347082e-18
8.48822784e-18
8.471035478e-18
8.464660129e-18
8.461896001e-18
8.454917587e-18
8.429768836e-18
8.417787888e-18
8.427410292e-18
8.430854443e-18
8.4378796e-18
8.418723114e-18
8.41527522e-18
8.413686314e-18
8.401679392e-18
8.391601136e-18
8.385631722e-18
8.380383922e-18
8.386250353e-18
8.38997037e-18
8.391710116e-18
8.36990786e-18
8.366065747e-18
8.373882504e-18
8.366545944e-18
8.352670014e-18
8.350804278e-18
8.352679257e-18
8.358419239e-18
8.348746611e-18
8.336989308e-18
8.320539676e-18
8.316932035e-18
8.29229871e-18
8.288850273e-18
8.276648762e-18
8.265569943e-18
8.268713099e-18
8.272814152e-18
8.254950703e-18
8.247099255e-18
8.243775303e-18
8.239061158e-18
8.240439864e-18
8.232689775e-18
8.230094258e-18
8.228100803e-18
8.210200626e-18
8.207368515e-18
8.194588838e-18
8.186689679e-18
8.182168539e-18
8.175559987e-18
8.178471367e-18
8.164607075e-18
8.16710219e-18
8.15665307e-18
8.156105846e-18
8.155702568e-18
8.159450372e-18
8.150508299e-18
8.154200334e-18
8.141276404e-18
8.121708739e-18
8.11502596e-18
8.113418785e-18
8.100814578e-18
8.082594907e-18
8.072948639e-18
8.077049614e-18
8.074470552e-18
8.056228181e-18
8.053325194e-18
8.042725151e-18
8.028273131e-18
8.018018555e-18
8.010278985e-18
8.0121535e-18
7.998709557e-18
7.975287486e-18
7.96252962e-18
7.951855003e-18
7.950824337e-18
7.933704272e-18
7.926464791e-18
7.928491498e-18
7.924108753e-18
7.913755403e-18
7.902043075e-18
7.886665956e-18
7.880164158e-18
7.889590434e-18
7.883313552e-18
7.864823447e-18
7.835173403e-18
7.828888771e-18
7.818221937e-18
7.79741353e-18
7.791337743e-18
7.790596546e-18
7.771263315e-18
7.76967456e-18
7.777660732e-18
7.763211794e-18
7.726725435e-18
7.718205015e-18
7.703896358e-18
7.691849849e-18
7.688352425e-18
7.669786627e-18
7.651809133e-18
7.636634073e-18
7.628960981e-18
7.621613818e-18
7.618744319e-18
7.603802808e-18
7.595393343e-18
7.561502149e-18
7.533935236e-18
7.514702435e-18
7.504479305e-18
7.49067486e-18
7.503490212e-18
7.494149057e-18
7.475927685e-18
7.446593162e-18
7.423619261e-18
7.403333754e-18
7.394313861e-18
7.37055522e-18
7.35268463e-18
7.335069172e-18
7.319281137e-18
7.300235366e-18
7.284104331e-18
7.269856026e-18
7.252453307e-18
7.233966319e-18
7.222672869e-18
7.19737531e-18
7.177173588e-18
7.150574359e-18
7.130512034e-18
7.114199325e-18
7.096705536e-18
7.091276861e-18
7.073698941e-18
7.044728691e-18
7.029009065e-18
6.992004152e-18
6.959326446e-18
6.940783343e-18
6.907543384e-18
6.890759682e-18
6.858824437e-18
6.844467795e-18
6.822047395e-18
6.78533095e-18
6.736505804e-18
6.699435762e-18
3.73151316e-05
3.733180486e-05
3.736268956e-05
3.740606857e-05
3.746028273e-05
3.752379892e-05
3.759531775e-05
3.767375136e-05
3.775821081e-05
3.784788692e-05
3.794206807e-05
3.804014529e-05
3.81415857e-05
3.824591619e-05
3.835274077e-05
3.846162409e-05
3.857220546e-05
3.86841694e-05
3.879723908e-05
3.891116837e-05
3.902492432e-05
3.913832859e-05
3.925211146e-05
3.936616747e-05
3.948038905e-05
3.959466155e-05
3.970885464e-05
3.9822814e-05
3.993635727e-05
4.004927952e-05
4.01613732e-05
4.027246791e-05
4.038249468e-05
4.049148213e-05
4.059949036e-05
4.070656612e-05
4.081272007e-05
4.091792625e-05
4.102214048e-05
4.112533391e-05
4.122752555e-05
4.132877298e-05
4.142915219e-05
4.152872892e-05
4.162753852e-05
4.172557981e-05
4.182281742e-05
4.191918733e-05
4.201460479e-05
4.210897625e-05
4.22022219e-05
4.229429118e-05
4.238520782e-05
4.247497799e-05
4.256362586e-05
4.265122147e-05
4.273784741e-05
4.282358758e-05
4.290850175e-05
4.299262127e-05
4.307595354e-05
4.315848962e-05
4.324021268e-05
4.332110329e-05
4.340113536e-05
4.347915927e-05
4.35561352e-05
4.363221612e-05
4.370737826e-05
4.378160254e-05
4.385488222e-05
4.392723848e-05
4.399872018e-05
4.406939106e-05
4.413931939e-05
4.420857469e-05
4.427722698e-05
4.434533447e-05
4.441293465e-05
4.448004321e-05
4.454665678e-05
4.461275715e-05
4.467831631e-05
4.474330254e-05
4.4807687e-05
4.487144992e-05
4.493458538e-05
4.499710291e-05
4.505902719e-05
4.512039555e-05
4.518124905e-05
4.524163595e-05
4.530159854e-05
4.536117198e-05
4.542038251e-05
4.547924789e-05
4.553777967e-05
4.559598639e-05
4.565387625e-05
4.571145817e-05
4.576874095e-05
4.582573322e-05
4.588244501e-05
4.593889191e-05
4.599510514e-05
4.605113443e-05
4.610699319e-05
4.61627245e-05
4.621838035e-05
4.62740152e-05
4.632968326e-05
4.638543698e-05
4.644132482e-05
4.649738878e-05
4.655366317e-05
4.661017459e-05
4.666694283e-05
4.672398224e-05
4.678130337e-05
4.683891464e-05
4.689682406e-05
4.69550412e-05
4.701358057e-05
4.707247127e-05
4.713172852e-05
4.719136793e-05
4.725142363e-05
4.731194021e-05
4.737296861e-05
4.743456328e-05
4.749677832e-05
4.755966475e-05
4.762327113e-05
4.768764398e-05
4.775282771e-05
4.78188646e-05
4.788579485e-05
4.795365645e-05
4.802248313e-05
4.809199195e-05
4.81625507e-05
4.823421556e-05
4.830703618e-05
4.838106018e-05
4.845633496e-05
4.853350997e-05
4.861354468e-05
4.869506681e-05
4.877813267e-05
4.886279405e-05
4.894910035e-05
4.903710566e-05
4.912685982e-05
4.921841053e-05
4.931180431e-05
4.940708726e-05
4.950430595e-05
4.960350839e-05
4.970474496e-05
4.980806912e-05
4.991353752e-05
5.002120956e-05
5.013114672e-05
5.024341207e-05
5.035806932e-05
5.047518258e-05
5.059481766e-05
5.071704409e-05
5.084193487e-05
5.096956379e-05
5.110000706e-05
5.12333411e-05
5.136964606e-05
5.150900165e-05
5.165148768e-05
5.179718677e-05
5.194618209e-05
5.209855881e-05
5.225440551e-05
5.241384156e-05
5.257707505e-05
5.274443519e-05
5.291636125e-05
5.309294166e-05
5.327396321e-05
5.345933011e-05
5.364905271e-05
5.384319035e-05
5.404182491e-05
5.424505118e-05
5.445297413e-05
5.466571007e-05
5.488339377e-05
5.510620475e-05
5.533424816e-05
5.556762927e-05
5.580645535e-05
5.605081672e-05
5.630706407e-05
5.657167071e-05
5.684235975e-05
5.711925148e-05
5.740246945e-05
5.769214683e-05
5.798844668e-05
5.82915593e-05
5.860163591e-05
5.891884017e-05
5.924335233e-05
5.95753802e-05
5.99151907e-05
6.026304255e-05
6.061918995e-05
6.098397523e-05
6.135755472e-05
6.174010969e-05
6.213175842e-05
6.253236292e-05
6.294246844e-05
6.3373007e-05
6.382759597e-05
6.429339771e-05
6.477071148e-05
6.525982036e-05
6.576103259e-05
6.627471821e-05
6.680114106e-05
6.734087796e-05
6.789448826e-05
6.84608108e-05
6.904144922e-05
6.96374433e-05
7.02493117e-05
7.08956794e-05
7.156769976e-05
7.225787868e-05
7.296682893e-05
7.369491598e-05
7.444277757e-05
7.521150197e-05
7.600241919e-05
7.681688724e-05
7.765629442e-05
7.853798455e-05
7.945556437e-05
8.040257122e-05
8.138032254e-05
8.23905184e-05
8.343523716e-05
8.451636032e-05
8.563558573e-05
8.681343493e-05
8.803478852e-05
8.930097988e-05
9.061425674e-05
9.197644522e-05
9.339007367e-05
9.487586238e-05
9.642573667e-05
9.803738222e-05
9.971652997e-05
0.0001014694068
0.000103319054
0.0001052674416
0.0001073094482
0.0001094294158
0.0001116629163
0.0001140329868
0.0001165275364
0.000119154832
0.0001219372637
0.0001248877319
0.0001280110772
0.0001313349515
0.0001348912101
0.000138637026
0.0001426651421
0.0001469950899
0.0001516407584
0.0001566984113
0.0001620614085
0.0001678951043
0.0001742062908
0.0001810523928
0.0001885138999
0.0001965923591
0.0002054072525
0.0002149822453
0.0002255225685
0.0002371108027
0.0002497763373
0.0002636346457
0.0002786040615
0.0002946659876
0.0003115764887
0.0003293450533
0.0003463883848
0.0003609399063
0.000368810137
0.0003638343535
0.0003298788476
0.0002444256499
0.0001286120558
5.36685567e-05
2.021664876e-05
8.181720869e-06
3.533383085e-06
1.951232319e-06
1.056514194e-06
5.615878515e-07
3.563530589e-07
2.447290357e-07
1.544014152e-07
6.945613842e-08
3.053719429e-08
1.506141154e-08
8.151614092e-09
4.385531319e-09
2.26889792e-09
1.078491502e-09
3.928484904e-10
1.602089976e-10
1.275492714e-10
1.017499117e-10
8.128411877e-11
6.495644875e-11
5.191440271e-11
4.148728136e-11
3.313814823e-11
2.645887317e-11
2.111282778e-11
1.683496374e-11
1.341531405e-11
1.068094195e-11
8.49734388e-12
6.75448713e-12
5.364195662e-12
4.256409823e-12
3.374254992e-12
2.672411765e-12
2.114573403e-12
1.671545965e-12
1.320039808e-12
1.041406034e-12
8.207352602e-13
6.461360764e-13
5.081316087e-13
3.991574944e-13
3.131953911e-13
2.45459187e-13
1.921386629e-13
1.502130394e-13
1.172828745e-13
9.144816528e-14
7.120392944e-14
5.535996038e-14
4.297553762e-14
3.330793984e-14
2.577147062e-14
1.990463558e-14
1.534430098e-14
1.180504839e-14
9.062703676e-15
6.941517336e-15
5.303771918e-15
4.041743577e-15
3.071242397e-15
2.326578601e-15
1.756557993e-15
1.321343849e-15
9.899864457e-16
7.384699459e-16
5.481975897e-16
4.047924298e-16
2.971549727e-16
2.167427726e-16
1.56988077e-16
1.128552858e-16
8.049003231e-17
5.695598464e-17
4.001668781e-17
2.797602611e-17
1.955390494e-17
1.378122378e-17
9.937787081e-18
7.479612163e-18
6.681376185e-18
6.681376185e-18
6.681376185e-18
6.681376185e-18
6.681376185e-18
6.681376185e-18
6.681376185e-18
6.681376185e-18
6.681376185e-18
6.681376185e-18
6.681376185e-18
6.681376185e-18
6.681376185e-18
6.681376185e-18
6.681376185e-18
6.725458588e-18
6.883069235e-18
7.027145708e-18
7.155270775e-18
7.26847205e-18
7.365862048e-18
7.447872833e-18
7.923103631e-18
8.331076922e-18
8.607396116e-18
8.806077449e-18
8.936528897e-18
8.999218095e-18
9.035468706e-18
9.061843165e-18
9.071026459e-18
9.070676717e-18
9.067673921e-18
9.051693166e-18
9.022947305e-18
9.006270603e-18
8.994257364e-18
8.983436227e-18
8.969707252e-18
8.958019594e-18
8.931794749e-18
8.918041261e-18
8.907794244e-18
8.890940567e-18
8.876098647e-18
8.86165399e-18
8.855465133e-18
8.849987947e-18
8.840114144e-18
8.837343582e-18
8.833769435e-18
8.813810097e-18
8.808333258e-18
8.806332328e-18
8.808231781e-18
8.791808128e-18
8.780801343e-18
8.772602772e-18
8.760909446e-18
8.74875488e-18
8.733173156e-18
8.721492431e-18
8.726572656e-18
8.722645371e-18
8.7263334e-18
8.713450092e-18
8.714152625e-18
8.697477462e-18
8.695001494e-18
8.682376747e-18
8.680281664e-18
8.669417052e-18
8.676588505e-18
8.675852478e-18
8.671545426e-18
8.660859792e-18
8.647601149e-18
8.636021168e-18
8.634865368e-18
8.624929362e-18
8.631691371e-18
8.63121903e-18
8.621378911e-18
8.608210874e-18
8.597655616e-18
8.588139227e-18
8.579749653e-18
8.56727594e-18
8.560528261e-18
8.549828017e-18
8.541817516e-18
8.540915767e-18
8.535284653e-18
8.528637023e-18
8.509734319e-18
8.512965153e-18
8.496520764e-18
8.501858587e-18
8.498493129e-18
8.496987045e-18
8.485063292e-18
8.479138278e-18
8.460701015e-18
8.45156108e-18
8.431416559e-18
8.422796945e-18
8.408111224e-18
8.409227862e-18
8.39804445e-18
8.403541555e-18
8.399424656e-18
8.408528938e-18
8.402189124e-18
8.39328802e-18
8.37820122e-18
8.387761192e-18
8.366863881e-18
8.356722112e-18
8.352175228e-18
8.33150422e-18
8.311180027e-18
8.309278218e-18
8.289440316e-18
8.278200212e-18
8.278851447e-18
8.272807459e-18
8.268054079e-18
8.266228115e-18
8.248328861e-18
8.235595508e-18
8.222871791e-18
8.20819054e-18
8.186955198e-18
8.17892273e-18
8.162319209e-18
8.146603791e-18
8.142253264e-18
8.130706155e-18
8.118588932e-18
8.131359891e-18
8.128502344e-18
8.115702781e-18
8.095830887e-18
8.068018177e-18
8.047573046e-18
8.051204227e-18
8.051091648e-18
8.024924917e-18
7.989508066e-18
7.979718775e-18
7.962329317e-18
7.961315029e-18
7.962257697e-18
7.944629643e-18
7.927862946e-18
7.930207524e-18
7.935813386e-18
7.924469147e-18
7.897733611e-18
7.879255145e-18
7.862019536e-18
7.843971323e-18
7.849550244e-18
7.836759001e-18
7.814258599e-18
7.784092783e-18
7.786068461e-18
7.773803399e-18
7.753842013e-18
7.750817316e-18
7.732906536e-18
7.703812192e-18
7.66469991e-18
7.636302705e-18
7.629333613e-18
7.622483723e-18
7.622359619e-18
7.592591183e-18
7.579579765e-18
7.557711216e-18
7.539468223e-18
7.503412425e-18
7.475733594e-18
7.462425304e-18
7.448166014e-18
7.438500817e-18
7.429500849e-18
7.402032173e-18
7.383805597e-18
7.370191343e-18
7.341223639e-18
7.314681219e-18
7.289208269e-18
7.278123396e-18
7.258156689e-18
7.21476996e-18
7.195090333e-18
7.175015099e-18
7.146260632e-18
7.135221081e-18
7.116177162e-18
7.08798144e-18
7.062242644e-18
7.031971227e-18
7.004335251e-18
6.978810348e-18
6.950701454e-18
6.924809425e-18
6.895820022e-18
6.868546086e-18
6.838129106e-18
6.80608191e-18
6.756035185e-18
6.708478496e-18
4.121799843e-05
4.124372061e-05
4.129087223e-05
4.135644286e-05
4.14376183e-05
4.153177841e-05
4.163682709e-05
4.175128525e-05
4.187394285e-05
4.200367096e-05
4.213948439e-05
4.228060136e-05
4.242631774e-05
4.257593546e-05
4.272786289e-05
4.288253406e-05
4.303948394e-05
4.319829011e-05
4.335858168e-05
4.352003521e-05
4.368236261e-05
4.384536479e-05
4.400892061e-05
4.417291106e-05
4.43372174e-05
4.450170941e-05
4.466622864e-05
4.483056786e-05
4.499445398e-05
4.51575449e-05
4.531944939e-05
4.547977083e-05
4.563840243e-05