/*--------------------------------*- C++ -*----------------------------------*\
| =========                 |                                                 |
| \\      /  F ield         | OpenFOAM: The Open Source CFD Toolbox           |
|  \\    /   O peration     | Version:  v2006                                 |
|   \\  /    A nd           | Website:  www.openfoam.com                      |
|    \\/     M anipulation  |                                                 |
\*---------------------------------------------------------------------------*/
FoamFile
{
    version     2.0;
    format      ascii;
    class       volScalarField;
    location    "0.09";
    object      p_0;
}
// * * * * * * * * * * * * * * * * * * * * * * * * * * * * * * * * * * * * * //

dimensions      [1 -1 -2 0 0 0 0];


internalField   nonuniform List<scalar> 
72000
(
101340.8897
101340.8894
101340.8891
101340.8887
101340.8882
101340.8877
101340.8871
101340.8866
101340.886
101340.8854
101340.8848
101340.8842
101340.8836
101340.883
101340.8823
101340.8817
101340.8811
101340.8804
101340.8798
101340.8791
101340.8785
101340.8778
101340.8772
101340.8765
101340.8758
101340.8752
101340.8745
101340.8738
101340.8731
101340.8724
101340.8717
101340.871
101340.8703
101340.8696
101340.8689
101340.8682
101340.8674
101340.8667
101340.8659
101340.8652
101340.8644
101340.8637
101340.8629
101340.8622
101340.8614
101340.8606
101340.8598
101340.859
101340.8582
101340.8574
101340.8566
101340.8557
101340.8549
101340.8541
101340.8532
101340.8524
101340.8515
101340.8506
101340.8498
101340.8489
101340.848
101340.8471
101340.8462
101340.8453
101340.8444
101340.8434
101340.8425
101340.8416
101340.8406
101340.8396
101340.8387
101340.8377
101340.8367
101340.8357
101340.8347
101340.8337
101340.8327
101340.8316
101340.8306
101340.8296
101340.8285
101340.8274
101340.8264
101340.8253
101340.8242
101340.8231
101340.822
101340.8208
101340.8197
101340.8186
101340.8174
101340.8163
101340.8151
101340.8139
101340.8127
101340.8115
101340.8103
101340.8091
101340.8079
101340.8067
101340.8054
101340.8042
101340.8029
101340.8016
101340.8003
101340.799
101340.7977
101340.7964
101340.7951
101340.7937
101340.7924
101340.791
101340.7897
101340.7883
101340.7869
101340.7855
101340.7841
101340.7826
101340.7812
101340.7797
101340.7783
101340.7768
101340.7753
101340.7738
101340.7723
101340.7708
101340.7693
101340.7677
101340.7662
101340.7646
101340.763
101340.7614
101340.7598
101340.7582
101340.7566
101340.7549
101340.7533
101340.7516
101340.75
101340.7483
101340.7466
101340.7449
101340.7431
101340.7414
101340.7397
101340.7379
101340.7361
101340.7343
101340.7325
101340.7307
101340.7288
101340.727
101340.7251
101340.7233
101340.7214
101340.7194
101340.7175
101340.7156
101340.7136
101340.7116
101340.7097
101340.7077
101340.7056
101340.7036
101340.7015
101340.6995
101340.6974
101340.6953
101340.6932
101340.691
101340.6889
101340.6867
101340.6845
101340.6823
101340.68
101340.6778
101340.6755
101340.6732
101340.6709
101340.6686
101340.6662
101340.6639
101340.6615
101340.6591
101340.6566
101340.6542
101340.6517
101340.6492
101340.6466
101340.6441
101340.6415
101340.6389
101340.6363
101340.6336
101340.6309
101340.6282
101340.6254
101340.6227
101340.6199
101340.617
101340.6142
101340.6113
101340.6083
101340.6054
101340.6024
101340.5993
101340.5963
101340.5932
101340.59
101340.5869
101340.5836
101340.5804
101340.5771
101340.5737
101340.5704
101340.5669
101340.5635
101340.5599
101340.5564
101340.5528
101340.5491
101340.5454
101340.5416
101340.5378
101340.5339
101340.53
101340.526
101340.522
101340.5178
101340.5137
101340.5094
101340.5051
101340.5007
101340.4963
101340.4917
101340.4871
101340.4824
101340.4777
101340.4728
101340.4679
101340.4628
101340.4577
101340.4525
101340.4471
101340.4417
101340.4362
101340.4305
101340.4248
101340.4189
101340.4129
101340.4068
101340.4005
101340.3941
101340.3876
101340.3809
101340.374
101340.367
101340.3598
101340.3525
101340.3449
101340.3372
101340.3293
101340.3212
101340.3128
101340.3043
101340.2955
101340.2864
101340.2771
101340.2675
101340.2577
101340.2476
101340.2371
101340.2263
101340.2152
101340.2038
101340.192
101340.1798
101340.1672
101340.1542
101340.1407
101340.1268
101340.1124
101340.0975
101340.0822
101340.0663
101340.0499
101340.033
101340.0157
101339.9979
101339.9798
101339.9614
101339.9429
101339.9246
101339.9069
101339.8903
101339.8757
101339.8642
101339.8575
101339.8582
101339.8694
101339.8943
101339.9374
101340.0084
101340.0699
101340.0492
101340.479
101340.7282
101340.7844
101340.9434
101341.0507
101341.1599
101341.2557
101341.3424
101341.4188
101341.487
101341.5497
101341.6063
101341.6566
101341.7025
101341.7447
101341.784
101341.8207
101341.8553
101341.8882
101341.9194
101341.9492
101341.9777
101342.0051
101342.0316
101342.0571
101342.0818
101342.1057
101342.129
101342.1517
101342.1738
101342.1953
101342.2164
101342.237
101342.2572
101342.277
101342.2964
101342.3155
101342.3343
101342.3527
101342.3709
101342.3888
101342.4064
101342.4238
101342.441
101342.4579
101342.4747
101342.4912
101342.5076
101342.5237
101342.5397
101342.5556
101342.5712
101342.5868
101342.6021
101342.6174
101342.6325
101342.6475
101342.6623
101342.6771
101342.6917
101342.7062
101342.7206
101342.735
101342.7492
101342.7633
101342.7773
101342.7912
101342.8051
101342.8188
101342.8325
101342.846
101342.8595
101342.8729
101342.8863
101342.8996
101342.9127
101342.9259
101342.9389
101342.9519
101342.9648
101342.9776
101342.9904
101343.0031
101343.0158
101343.0284
101343.0409
101343.0534
101343.0658
101343.0782
101343.0905
101343.1027
101343.1149
101343.127
101343.1391
101343.1512
101343.1631
101343.1751
101343.1869
101343.1987
101343.2105
101343.2222
101343.2339
101343.2455
101343.2571
101343.2686
101343.2801
101343.2915
101343.3028
101343.3141
101343.3254
101343.3366
101343.3477
101343.3589
101343.3699
101343.3809
101343.3919
101343.4028
101343.4136
101343.4244
101343.4351
101343.4458
101343.4565
101343.4671
101343.4776
101343.4881
101343.4985
101343.5089
101343.5192
101343.5295
101343.5397
101343.5498
101343.56
101343.57
101343.58
101343.5899
101343.5998
101343.6096
101343.6194
101343.6291
101343.6387
101343.6483
101343.6578
101343.6673
101343.6767
101343.686
101343.6953
101343.7045
101343.7137
101343.7228
101343.7318
101343.7408
101343.7497
101343.7585
101343.7673
101343.776
101343.7846
101343.7932
101343.8017
101343.8101
101343.8185
101343.8268
101343.835
101343.8432
101343.8513
101343.8593
101343.8673
101343.8751
101343.883
101343.8907
101343.8984
101343.906
101343.9135
101343.921
101343.9283
101343.9357
101343.9429
101343.9501
101343.9571
101343.9642
101343.9711
101343.978
101343.9848
101343.9915
101343.9981
101344.0047
101344.0112
101344.0176
101344.0239
101344.0302
101344.0363
101344.0424
101344.0485
101344.0544
101344.0603
101344.0661
101344.0718
101344.0775
101344.083
101344.0885
101344.0939
101344.0993
101344.1045
101344.1097
101344.1148
101344.1199
101344.1248
101344.1297
101344.1345
101344.1393
101344.1439
101344.1485
101344.153
101344.1575
101344.1618
101344.1661
101344.1703
101344.1745
101344.1786
101344.1826
101344.1865
101344.1904
101344.1942
101344.1979
101344.2016
101344.2051
101344.2087
101344.2121
101344.2155
101344.2188
101344.2221
101344.2253
101344.2284
101344.2314
101344.2344
101344.2374
101344.2402
101344.243
101344.2458
101344.2485
101344.2511
101344.2537
101344.2562
101344.2586
101344.261
101344.2634
101344.2656
101344.2679
101344.2701
101344.2722
101344.2743
101344.2763
101344.2783
101344.2802
101344.2821
101344.2839
101344.2857
101344.2874
101344.2891
101344.2908
101344.2924
101344.2939
101344.2954
101344.2969
101344.2984
101344.2998
101344.3011
101344.3024
101344.3037
101344.305
101344.3062
101344.3074
101344.3085
101344.3097
101344.3107
101344.3118
101344.3128
101344.3138
101344.3148
101344.3157
101344.3166
101344.3175
101344.3184
101344.3192
101344.32
101344.3208
101344.3216
101344.3224
101344.3231
101344.3238
101344.3246
101344.3253
101344.3259
101344.3266
101344.3273
101344.3281
101340.8896
101340.8892
101340.8888
101340.8884
101340.888
101340.8875
101340.887
101340.8864
101340.8858
101340.8852
101340.8847
101340.8841
101340.8834
101340.8828
101340.8822
101340.8816
101340.8809
101340.8803
101340.8797
101340.879
101340.8784
101340.8777
101340.877
101340.8764
101340.8757
101340.875
101340.8743
101340.8737
101340.873
101340.8723
101340.8716
101340.8709
101340.8702
101340.8694
101340.8687
101340.868
101340.8673
101340.8665
101340.8658
101340.865
101340.8643
101340.8635
101340.8628
101340.862
101340.8612
101340.8604
101340.8596
101340.8588
101340.858
101340.8572
101340.8564
101340.8556
101340.8547
101340.8539
101340.853
101340.8522
101340.8513
101340.8505
101340.8496
101340.8487
101340.8478
101340.8469
101340.846
101340.8451
101340.8442
101340.8432
101340.8423
101340.8414
101340.8404
101340.8395
101340.8385
101340.8375
101340.8365
101340.8355
101340.8345
101340.8335
101340.8325
101340.8315
101340.8304
101340.8294
101340.8283
101340.8272
101340.8262
101340.8251
101340.824
101340.8229
101340.8218
101340.8206
101340.8195
101340.8184
101340.8172
101340.8161
101340.8149
101340.8137
101340.8125
101340.8113
101340.8101
101340.8089
101340.8077
101340.8065
101340.8052
101340.804
101340.8027
101340.8014
101340.8001
101340.7989
101340.7975
101340.7962
101340.7949
101340.7936
101340.7922
101340.7909
101340.7895
101340.7881
101340.7867
101340.7853
101340.7839
101340.7825
101340.781
101340.7796
101340.7781
101340.7767
101340.7752
101340.7737
101340.7722
101340.7706
101340.7691
101340.7676
101340.766
101340.7645
101340.7629
101340.7613
101340.7597
101340.7581
101340.7565
101340.7548
101340.7532
101340.7515
101340.7498
101340.7482
101340.7465
101340.7447
101340.743
101340.7413
101340.7395
101340.7378
101340.736
101340.7342
101340.7324
101340.7306
101340.7287
101340.7269
101340.725
101340.7232
101340.7213
101340.7194
101340.7174
101340.7155
101340.7135
101340.7116
101340.7096
101340.7076
101340.7056
101340.7035
101340.7015
101340.6994
101340.6973
101340.6952
101340.6931
101340.691
101340.6888
101340.6867
101340.6845
101340.6823
101340.68
101340.6778
101340.6755
101340.6732
101340.6709
101340.6686
101340.6663
101340.6639
101340.6615
101340.6591
101340.6566
101340.6542
101340.6517
101340.6492
101340.6467
101340.6441
101340.6416
101340.639
101340.6363
101340.6337
101340.631
101340.6283
101340.6255
101340.6228
101340.62
101340.6171
101340.6143
101340.6114
101340.6085
101340.6055
101340.6025
101340.5995
101340.5964
101340.5934
101340.5902
101340.5871
101340.5838
101340.5806
101340.5773
101340.574
101340.5706
101340.5672
101340.5637
101340.5602
101340.5567
101340.5531
101340.5494
101340.5457
101340.542
101340.5382
101340.5343
101340.5304
101340.5264
101340.5224
101340.5183
101340.5141
101340.5099
101340.5056
101340.5013
101340.4968
101340.4923
101340.4877
101340.4831
101340.4783
101340.4735
101340.4686
101340.4636
101340.4585
101340.4533
101340.448
101340.4426
101340.4371
101340.4315
101340.4258
101340.42
101340.414
101340.4079
101340.4017
101340.3954
101340.3889
101340.3822
101340.3755
101340.3685
101340.3614
101340.3541
101340.3467
101340.3391
101340.3312
101340.3232
101340.315
101340.3065
101340.2978
101340.2889
101340.2798
101340.2704
101340.2607
101340.2507
101340.2405
101340.2299
101340.2191
101340.2079
101340.1963
101340.1844
101340.1722
101340.1596
101340.1465
101340.1331
101340.1193
101340.105
101340.0904
101340.0754
101340.06
101340.0442
101340.0282
101340.0119
101339.9956
101339.9794
101339.9636
101339.9484
101339.9345
101339.9224
101339.9131
101339.9077
101339.9077
101339.9152
101339.9308
101339.9558
101339.9996
101340.0695
101340.1404
101340.2742
101340.7318
101340.9604
101340.9267
101341.0323
101341.1218
101341.2035
101341.2827
101341.3604
101341.4292
101341.4926
101341.5532
101341.6078
101341.657
101341.702
101341.7437
101341.7827
101341.8194
101341.8541
101341.8868
101341.9181
101341.9479
101341.9765
101342.004
101342.0304
101342.056
101342.0807
101342.1047
101342.128
101342.1507
101342.1728
101342.1944
101342.2155
101342.2362
101342.2564
101342.2762
101342.2957
101342.3148
101342.3336
101342.352
101342.3702
101342.3881
101342.4058
101342.4232
101342.4404
101342.4574
101342.4741
101342.4907
101342.507
101342.5232
101342.5392
101342.5551
101342.5707
101342.5863
101342.6017
101342.6169
101342.632
101342.647
101342.6619
101342.6766
101342.6913
101342.7058
101342.7202
101342.7345
101342.7488
101342.7629
101342.7769
101342.7908
101342.8047
101342.8184
101342.8321
101342.8456
101342.8591
101342.8726
101342.8859
101342.8992
101342.9124
101342.9255
101342.9385
101342.9515
101342.9644
101342.9773
101342.9901
101343.0028
101343.0154
101343.028
101343.0406
101343.053
101343.0655
101343.0778
101343.0901
101343.1024
101343.1146
101343.1267
101343.1388
101343.1508
101343.1628
101343.1747
101343.1866
101343.1984
101343.2102
101343.2219
101343.2335
101343.2452
101343.2567
101343.2682
101343.2797
101343.2911
101343.3025
101343.3138
101343.325
101343.3362
101343.3474
101343.3585
101343.3695
101343.3805
101343.3915
101343.4024
101343.4132
101343.424
101343.4348
101343.4455
101343.4561
101343.4667
101343.4772
101343.4877
101343.4981
101343.5085
101343.5188
101343.5291
101343.5393
101343.5495
101343.5596
101343.5696
101343.5796
101343.5895
101343.5994
101343.6092
101343.619
101343.6287
101343.6383
101343.6479
101343.6574
101343.6669
101343.6763
101343.6856
101343.6949
101343.7041
101343.7133
101343.7224
101343.7314
101343.7404
101343.7493
101343.7581
101343.7669
101343.7756
101343.7842
101343.7928
101343.8013
101343.8097
101343.8181
101343.8264
101343.8346
101343.8428
101343.8509
101343.8589
101343.8668
101343.8747
101343.8825
101343.8903
101343.898
101343.9056
101343.9131
101343.9205
101343.9279
101343.9352
101343.9425
101343.9496
101343.9567
101343.9637
101343.9707
101343.9775
101343.9843
101343.9911
101343.9977
101344.0043
101344.0107
101344.0171
101344.0235
101344.0297
101344.0359
101344.042
101344.048
101344.054
101344.0599
101344.0657
101344.0714
101344.077
101344.0826
101344.0881
101344.0935
101344.0989
101344.1041
101344.1093
101344.1144
101344.1195
101344.1244
101344.1293
101344.1341
101344.1389
101344.1435
101344.1481
101344.1526
101344.1571
101344.1614
101344.1657
101344.17
101344.1741
101344.1782
101344.1822
101344.1861
101344.19
101344.1938
101344.1975
101344.2012
101344.2048
101344.2083
101344.2118
101344.2151
101344.2185
101344.2217
101344.2249
101344.228
101344.2311
101344.2341
101344.237
101344.2399
101344.2427
101344.2455
101344.2482
101344.2508
101344.2534
101344.2559
101344.2583
101344.2607
101344.2631
101344.2654
101344.2676
101344.2698
101344.2719
101344.274
101344.276
101344.278
101344.2799
101344.2818
101344.2837
101344.2854
101344.2872
101344.2889
101344.2905
101344.2921
101344.2937
101344.2952
101344.2967
101344.2982
101344.2996
101344.3009
101344.3023
101344.3036
101344.3048
101344.306
101344.3072
101344.3084
101344.3095
101344.3106
101344.3117
101344.3127
101344.3137
101344.3147
101344.3156
101344.3165
101344.3174
101344.3183
101344.3191
101344.32
101344.3208
101344.3216
101344.3223
101344.3231
101344.3238
101344.3245
101344.3252
101344.3259
101344.3266
101344.3273
101344.3281
101340.8894
101340.889
101340.8886
101340.8882
101340.8877
101340.8873
101340.8867
101340.8862
101340.8856
101340.8851
101340.8845
101340.8839
101340.8833
101340.8827
101340.882
101340.8814
101340.8808
101340.8801
101340.8795
101340.8788
101340.8782
101340.8775
101340.8769
101340.8762
101340.8755
101340.8748
101340.8742
101340.8735
101340.8728
101340.8721
101340.8714
101340.8707
101340.87
101340.8693
101340.8685
101340.8678
101340.8671
101340.8663
101340.8656
101340.8648
101340.8641
101340.8633
101340.8625
101340.8618
101340.861
101340.8602
101340.8594
101340.8586
101340.8578
101340.857
101340.8562
101340.8553
101340.8545
101340.8537
101340.8528
101340.852
101340.8511
101340.8502
101340.8493
101340.8485
101340.8476
101340.8467
101340.8458
101340.8449
101340.8439
101340.843
101340.8421
101340.8411
101340.8402
101340.8392
101340.8382
101340.8373
101340.8363
101340.8353
101340.8343
101340.8333
101340.8322
101340.8312
101340.8302
101340.8291
101340.8281
101340.827
101340.8259
101340.8248
101340.8237
101340.8226
101340.8215
101340.8204
101340.8193
101340.8181
101340.817
101340.8158
101340.8147
101340.8135
101340.8123
101340.8111
101340.8099
101340.8087
101340.8075
101340.8062
101340.805
101340.8037
101340.8025
101340.8012
101340.7999
101340.7986
101340.7973
101340.796
101340.7947
101340.7934
101340.792
101340.7906
101340.7893
101340.7879
101340.7865
101340.7851
101340.7837
101340.7823
101340.7808
101340.7794
101340.7779
101340.7765
101340.775
101340.7735
101340.772
101340.7705
101340.7689
101340.7674
101340.7658
101340.7643
101340.7627
101340.7611
101340.7595
101340.7579
101340.7563
101340.7547
101340.753
101340.7514
101340.7497
101340.748
101340.7463
101340.7446
101340.7429
101340.7411
101340.7394
101340.7376
101340.7359
101340.7341
101340.7323
101340.7305
101340.7286
101340.7268
101340.7249
101340.7231
101340.7212
101340.7193
101340.7173
101340.7154
101340.7135
101340.7115
101340.7095
101340.7075
101340.7055
101340.7035
101340.7014
101340.6994
101340.6973
101340.6952
101340.6931
101340.6909
101340.6888
101340.6866
101340.6844
101340.6822
101340.68
101340.6778
101340.6755
101340.6732
101340.6709
101340.6686
101340.6663
101340.6639
101340.6615
101340.6591
101340.6567
101340.6542
101340.6518
101340.6493
101340.6468
101340.6442
101340.6416
101340.6391
101340.6364
101340.6338
101340.6311
101340.6284
101340.6257
101340.6229
101340.6201
101340.6173
101340.6145
101340.6116
101340.6087
101340.6057
101340.6027
101340.5997
101340.5967
101340.5936
101340.5905
101340.5873
101340.5841
101340.5809
101340.5776
101340.5743
101340.571
101340.5676
101340.5641
101340.5606
101340.5571
101340.5535
101340.5499
101340.5462
101340.5425
101340.5387
101340.5349
101340.531
101340.527
101340.523
101340.5189
101340.5148
101340.5106
101340.5063
101340.502
101340.4976
101340.4931
101340.4886
101340.4839
101340.4792
101340.4744
101340.4695
101340.4646
101340.4595
101340.4544
101340.4491
101340.4438
101340.4384
101340.4328
101340.4271
101340.4214
101340.4155
101340.4095
101340.4033
101340.3971
101340.3906
101340.3841
101340.3774
101340.3705
101340.3635
101340.3564
101340.349
101340.3415
101340.3338
101340.3259
101340.3178
101340.3095
101340.301
101340.2923
101340.2833
101340.2741
101340.2646
101340.2549
101340.2449
101340.2347
101340.2241
101340.2132
101340.2021
101340.1906
101340.1788
101340.1666
101340.1542
101340.1413
101340.1282
101340.1147
101340.101
101340.0869
101340.0726
101340.0581
101340.0435
101340.0289
101340.0145
101340.0004
101339.9869
101339.9745
101339.9636
101339.9548
101339.9489
101339.9467
101339.9495
101339.9577
101339.9719
101339.9978
101340.0538
101340.1498
101340.2769
101340.444
101340.6916
101340.8519
101340.9455
101341.0367
101341.1323
101341.2365
101341.3128
101341.3808
101341.4446
101341.5029
101341.5593
101341.6111
101341.6586
101341.7031
101341.7447
101341.783
101341.8191
101341.8535
101341.8863
101341.9174
101341.9472
101341.9757
101342.0032
101342.0297
101342.0552
101342.08
101342.104
101342.1273
101342.15
101342.1721
101342.1937
101342.2148
101342.2355
101342.2557
101342.2755
101342.295
101342.3141
101342.3329
101342.3514
101342.3696
101342.3875
101342.4052
101342.4226
101342.4398
101342.4568
101342.4735
101342.4901
101342.5065
101342.5227
101342.5387
101342.5545
101342.5702
101342.5858
101342.6012
101342.6164
101342.6315
101342.6465
101342.6614
101342.6762
101342.6908
101342.7053
101342.7198
101342.7341
101342.7483
101342.7624
101342.7764
101342.7904
101342.8042
101342.818
101342.8316
101342.8452
101342.8587
101342.8721
101342.8855
101342.8987
101342.9119
101342.9251
101342.9381
101342.9511
101342.964
101342.9769
101342.9896
101343.0024
101343.015
101343.0276
101343.0401
101343.0526
101343.065
101343.0774
101343.0897
101343.1019
101343.1141
101343.1263
101343.1384
101343.1504
101343.1624
101343.1743
101343.1862
101343.198
101343.2097
101343.2215
101343.2331
101343.2447
101343.2563
101343.2678
101343.2793
101343.2907
101343.302
101343.3133
101343.3246
101343.3358
101343.347
101343.3581
101343.3691
101343.3801
101343.3911
101343.402
101343.4128
101343.4236
101343.4343
101343.445
101343.4557
101343.4663
101343.4768
101343.4873
101343.4977
101343.5081
101343.5184
101343.5287
101343.5389
101343.549
101343.5591
101343.5692
101343.5791
101343.5891
101343.599
101343.6088
101343.6185
101343.6282
101343.6379
101343.6474
101343.657
101343.6664
101343.6758
101343.6852
101343.6944
101343.7036
101343.7128
101343.7219
101343.7309
101343.7399
101343.7488
101343.7576
101343.7664
101343.7751
101343.7837
101343.7923
101343.8008
101343.8092
101343.8176
101343.8259
101343.8341
101343.8423
101343.8504
101343.8584
101343.8664
101343.8742
101343.8821
101343.8898
101343.8975
101343.9051
101343.9126
101343.9201
101343.9274
101343.9347
101343.942
101343.9491
101343.9562
101343.9633
101343.9702
101343.9771
101343.9838
101343.9906
101343.9972
101344.0038
101344.0103
101344.0167
101344.023
101344.0293
101344.0354
101344.0415
101344.0476
101344.0535
101344.0594
101344.0652
101344.0709
101344.0766
101344.0821
101344.0876
101344.0931
101344.0984
101344.1037
101344.1089
101344.114
101344.119
101344.124
101344.1289
101344.1337
101344.1384
101344.1431
101344.1477
101344.1522
101344.1566
101344.161
101344.1653
101344.1695
101344.1737
101344.1778
101344.1818
101344.1857
101344.1896
101344.1934
101344.1971
101344.2008
101344.2044
101344.2079
101344.2114
101344.2148
101344.2181
101344.2213
101344.2245
101344.2277
101344.2307
101344.2337
101344.2367
101344.2395
101344.2424
101344.2451
101344.2478
101344.2504
101344.253
101344.2555
101344.258
101344.2604
101344.2627
101344.265
101344.2673
101344.2695
101344.2716
101344.2737
101344.2757
101344.2777
101344.2797
101344.2815
101344.2834
101344.2852
101344.2869
101344.2886
101344.2903
101344.2919
101344.2935
101344.295
101344.2965
101344.2979
101344.2994
101344.3007
101344.3021
101344.3034
101344.3046
101344.3059
101344.307
101344.3082
101344.3093
101344.3104
101344.3115
101344.3125
101344.3135
101344.3145
101344.3155
101344.3164
101344.3173
101344.3182
101344.319
101344.3199
101344.3207
101344.3215
101344.3223
101344.323
101344.3238
101344.3245
101344.3252
101344.3259
101344.3266
101344.3273
101344.3281
101340.8894
101340.8889
101340.8884
101340.888
101340.8876
101340.8871
101340.8865
101340.886
101340.8855
101340.8849
101340.8843
101340.8837
101340.8831
101340.8825
101340.8819
101340.8812
101340.8806
101340.88
101340.8793
101340.8787
101340.878
101340.8774
101340.8767
101340.876
101340.8753
101340.8747
101340.874
101340.8733
101340.8726
101340.8719
101340.8712
101340.8705
101340.8698
101340.8691
101340.8683
101340.8676
101340.8669
101340.8661
101340.8654
101340.8646
101340.8639
101340.8631
101340.8623
101340.8616
101340.8608
101340.86
101340.8592
101340.8584
101340.8576
101340.8568
101340.8559
101340.8551
101340.8543
101340.8534
101340.8526
101340.8517
101340.8509
101340.85
101340.8491
101340.8482
101340.8473
101340.8464
101340.8455
101340.8446
101340.8437
101340.8428
101340.8418
101340.8409
101340.8399
101340.839
101340.838
101340.837
101340.836
101340.835
101340.834
101340.833
101340.832
101340.831
101340.8299
101340.8289
101340.8278
101340.8268
101340.8257
101340.8246
101340.8235
101340.8224
101340.8213
101340.8202
101340.819
101340.8179
101340.8168
101340.8156
101340.8144
101340.8133
101340.8121
101340.8109
101340.8097
101340.8085
101340.8072
101340.806
101340.8048
101340.8035
101340.8023
101340.801
101340.7997
101340.7984
101340.7971
101340.7958
101340.7945
101340.7931
101340.7918
101340.7904
101340.7891
101340.7877
101340.7863
101340.7849
101340.7835
101340.7821
101340.7806
101340.7792
101340.7777
101340.7763
101340.7748
101340.7733
101340.7718
101340.7703
101340.7688
101340.7672
101340.7657
101340.7641
101340.7625
101340.761
101340.7594
101340.7577
101340.7561
101340.7545
101340.7529
101340.7512
101340.7495
101340.7479
101340.7462
101340.7445
101340.7427
101340.741
101340.7393
101340.7375
101340.7357
101340.734
101340.7322
101340.7304
101340.7285
101340.7267
101340.7248
101340.723
101340.7211
101340.7192
101340.7173
101340.7153
101340.7134
101340.7114
101340.7094
101340.7074
101340.7054
101340.7034
101340.7014
101340.6993
101340.6972
101340.6952
101340.693
101340.6909
101340.6888
101340.6866
101340.6844
101340.6822
101340.68
101340.6778
101340.6755
101340.6733
101340.671
101340.6687
101340.6663
101340.664
101340.6616
101340.6592
101340.6568
101340.6543
101340.6519
101340.6494
101340.6469
101340.6443
101340.6418
101340.6392
101340.6366
101340.6339
101340.6313
101340.6286
101340.6258
101340.6231
101340.6203
101340.6175
101340.6147
101340.6118
101340.6089
101340.606
101340.603
101340.6
101340.597
101340.5939
101340.5908
101340.5876
101340.5845
101340.5812
101340.578
101340.5747
101340.5713
101340.568
101340.5645
101340.5611
101340.5575
101340.554
101340.5504
101340.5467
101340.543
101340.5392
101340.5354
101340.5316
101340.5276
101340.5236
101340.5196
101340.5155
101340.5113
101340.5071
101340.5028
101340.4984
101340.494
101340.4894
101340.4848
101340.4802
101340.4754
101340.4706
101340.4657
101340.4606
101340.4555
101340.4503
101340.4451
101340.4397
101340.4342
101340.4286
101340.4229
101340.417
101340.4111
101340.405
101340.3988
101340.3925
101340.386
101340.3794
101340.3726
101340.3657
101340.3587
101340.3514
101340.344
101340.3364
101340.3287
101340.3207
101340.3126
101340.3042
101340.2957
101340.2869
101340.2779
101340.2686
101340.2591
101340.2494
101340.2394
101340.2291
101340.2186
101340.2077
101340.1966
101340.1853
101340.1736
101340.1616
101340.1493
101340.1368
101340.124
101340.111
101340.0978
101340.0845
101340.0711
101340.0577
101340.0444
101340.0315
101340.019
101340.0074
101339.9969
101339.9879
101339.981
101339.9767
101339.9754
101339.9775
101339.9832
101339.9935
101340.0163
101340.0743
101340.1798
101340.3378
101340.5212
101340.7238
101340.8844
101340.9916
101341.0904
101341.1743
101341.2438
101341.3351
101341.4246
101341.4846
101341.533
101341.575
101341.6229
101341.6703
101341.7123
101341.7506
101341.7878
101341.8235
101341.8571
101341.8886
101341.919
101341.9486
101341.9769
101342.0041
101342.0304
101342.0558
101342.0805
101342.1043
101342.1276
101342.1502
101342.1722
101342.1938
101342.2148
101342.2355
101342.2556
101342.2755
101342.2949
101342.314
101342.3328
101342.3512
101342.3694
101342.3873
101342.405
101342.4224
101342.4396
101342.4565
101342.4733
101342.4899
101342.5062
101342.5224
101342.5384
101342.5543
101342.5699
101342.5855
101342.6009
101342.6161
101342.6313
101342.6462
101342.6611
101342.6759
101342.6905
101342.705
101342.7195
101342.7338
101342.748
101342.7621
101342.7761
101342.7901
101342.8039
101342.8177
101342.8313
101342.8449
101342.8584
101342.8718
101342.8852
101342.8984
101342.9116
101342.9247
101342.9378
101342.9508
101342.9637
101342.9765
101342.9893
101343.002
101343.0147
101343.0273
101343.0398
101343.0523
101343.0647
101343.0771
101343.0894
101343.1016
101343.1138
101343.1259
101343.138
101343.15
101343.162
101343.1739
101343.1858
101343.1976
101343.2094
101343.2211
101343.2328
101343.2444
101343.2559
101343.2675
101343.2789
101343.2903
101343.3017
101343.313
101343.3242
101343.3354
101343.3466
101343.3577
101343.3687
101343.3797
101343.3907
101343.4016
101343.4124
101343.4232
101343.434
101343.4447
101343.4553
101343.4659
101343.4764
101343.4869
101343.4973
101343.5077
101343.518
101343.5283
101343.5385
101343.5486
101343.5587
101343.5688
101343.5788
101343.5887
101343.5986
101343.6084
101343.6181
101343.6278
101343.6375
101343.6471
101343.6566
101343.666
101343.6754
101343.6848
101343.694
101343.7033
101343.7124
101343.7215
101343.7305
101343.7395
101343.7484
101343.7572
101343.766
101343.7747
101343.7833
101343.7919
101343.8004
101343.8088
101343.8172
101343.8255
101343.8337
101343.8419
101343.85
101343.858
101343.866
101343.8738
101343.8817
101343.8894
101343.8971
101343.9047
101343.9122
101343.9197
101343.927
101343.9344
101343.9416
101343.9488
101343.9558
101343.9629
101343.9698
101343.9767
101343.9835
101343.9902
101343.9968
101344.0034
101344.0099
101344.0163
101344.0226
101344.0289
101344.0351
101344.0412
101344.0472
101344.0531
101344.059
101344.0648
101344.0705
101344.0762
101344.0818
101344.0873
101344.0927
101344.098
101344.1033
101344.1085
101344.1136
101344.1186
101344.1236
101344.1285
101344.1333
101344.1381
101344.1427
101344.1473
101344.1518
101344.1563
101344.1607
101344.165
101344.1692
101344.1734
101344.1774
101344.1815
101344.1854
101344.1893
101344.1931
101344.1968
101344.2005
101344.2041
101344.2076
101344.2111
101344.2144
101344.2178
101344.221
101344.2242
101344.2274
101344.2304
101344.2334
101344.2364
101344.2393
101344.2421
101344.2448
101344.2475
101344.2502
101344.2528
101344.2553
101344.2577
101344.2602
101344.2625
101344.2648
101344.2671
101344.2692
101344.2714
101344.2735
101344.2755
101344.2775
101344.2794
101344.2813
101344.2832
101344.285
101344.2867
101344.2884
101344.2901
101344.2917
101344.2933
101344.2948
101344.2963
101344.2978
101344.2992
101344.3006
101344.3019
101344.3032
101344.3045
101344.3057
101344.3069
101344.3081
101344.3092
101344.3103
101344.3114
101344.3124
101344.3135
101344.3144
101344.3154
101344.3163
101344.3172
101344.3181
101344.319
101344.3198
101344.3206
101344.3214
101344.3222
101344.323
101344.3237
101344.3245
101344.3252
101344.3259
101344.3266
101344.3273
101344.3281
101340.8895
101340.8888
101340.8883
101340.8879
101340.8874
101340.8869
101340.8864
101340.8858
101340.8853
101340.8847
101340.8841
101340.8835
101340.8829
101340.8823
101340.8817
101340.8811
101340.8804
101340.8798
101340.8791
101340.8785
101340.8778
101340.8772
101340.8765
101340.8758
101340.8752
101340.8745
101340.8738
101340.8731
101340.8724
101340.8717
101340.871
101340.8703
101340.8696
101340.8688
101340.8681
101340.8674
101340.8667
101340.8659
101340.8652
101340.8644
101340.8636
101340.8629
101340.8621
101340.8613
101340.8605
101340.8598
101340.859
101340.8582
101340.8573
101340.8565