/*--------------------------------*- C++ -*----------------------------------*\
| =========                 |                                                 |
| \\      /  F ield         | OpenFOAM: The Open Source CFD Toolbox           |
|  \\    /   O peration     | Version:  v2006                                 |
|   \\  /    A nd           | Website:  www.openfoam.com                      |
|    \\/     M anipulation  |                                                 |
\*---------------------------------------------------------------------------*/
FoamFile
{
    version     2.0;
    format      ascii;
    class       surfaceScalarField;
    location    "0.09";
    object      phi;
}
// * * * * * * * * * * * * * * * * * * * * * * * * * * * * * * * * * * * * * //

dimensions      [1 0 -1 0 0 0 0];
oriented        oriented;


internalField   nonuniform List<scalar> 
143280
(
-9.305186012e-10
-1.488389595e-11
-9.188967035e-10
-1.162226082e-11
-9.093665584e-10
-9.530659176e-12
-9.017117929e-10
-7.655432577e-12
-8.953150329e-10
-6.397562928e-12
-8.89838915e-10
-5.477032929e-12
-8.850390949e-10
-4.800822764e-12
-8.807415786e-10
-4.298585774e-12
-8.768197959e-10
-3.922898608e-12
-8.731809109e-10
-3.640030262e-12
-8.697552684e-10
-3.426802259e-12
-8.664899889e-10
-3.266439131e-12
-8.633442597e-10
-3.146881489e-12
-8.602861864e-10
-3.059210863e-12
-8.572904488e-10
-2.996853901e-12
-8.543366939e-10
-2.954844816e-12
-8.514084827e-10
-2.929270445e-12
-8.484924656e-10
-2.917042805e-12
-8.455776602e-10
-2.915795618e-12
-8.426547214e-10
-2.923892588e-12
-8.397159355e-10
-2.939703022e-12
-8.367555049e-10
-2.961311706e-12
-8.337687579e-10
-2.987592913e-12
-8.30751595e-10
-3.017975357e-12
-8.277005986e-10
-3.051777078e-12
-8.246130013e-10
-3.088348186e-12
-8.214866456e-10
-3.127078552e-12
-8.183199586e-10
-3.167383608e-12
-8.151119282e-10
-3.208701773e-12
-8.118620423e-10
-3.25053305e-12
-8.085701652e-10
-3.292500212e-12
-8.052363932e-10
-3.334370913e-12
-8.018609767e-10
-3.37599069e-12
-7.984442456e-10
-3.41727962e-12
-7.949865067e-10
-3.458260428e-12
-7.91487946e-10
-3.499053998e-12
-7.879485498e-10
-3.53985981e-12
-7.843681248e-10
-3.580857889e-12
-7.807464009e-10
-3.622125737e-12
-7.770833085e-10
-3.663463231e-12
-7.733791179e-10
-3.704531445e-12
-7.696344395e-10
-3.7449914e-12
-7.658501671e-10
-3.784560638e-12
-7.620273047e-10
-3.823130213e-12
-7.581669159e-10
-3.860641653e-12
-7.542701195e-10
-3.897040587e-12
-7.503380794e-10
-3.932282739e-12
-7.463719445e-10
-3.96638366e-12
-7.423727069e-10
-3.999500226e-12
-7.383412003e-10
-4.031790708e-12
-7.342785974e-10
-4.062915234e-12
-7.301864795e-10
-4.092464811e-12
-7.260662007e-10
-4.120665003e-12
-7.219187616e-10
-4.147867768e-12
-7.177450429e-10
-4.174190882e-12
-7.135455344e-10
-4.20002433e-12
-7.093208254e-10
-4.225264793e-12
-7.050718385e-10
-4.249577973e-12
-7.007993456e-10
-4.27311233e-12
-6.965041373e-10
-4.295847641e-12
-6.921870913e-10
-4.317695148e-12
-6.878492002e-10
-4.338539084e-12
-6.834915885e-10
-4.358247322e-12
-6.7911545e-10
-4.376750361e-12
-6.747217725e-10
-4.394255426e-12
-6.703118398e-10
-4.410466954e-12
-6.658872399e-10
-4.425083414e-12
-6.614492191e-10
-4.438447943e-12
-6.569987961e-10
-4.450790764e-12
-6.525368529e-10
-4.462251039e-12
-6.480642341e-10
-4.472868833e-12
-6.435818473e-10
-4.4825834e-12
-6.390906794e-10
-4.491317763e-12
-6.34591781e-10
-4.499010067e-12
-6.300862499e-10
-4.505614421e-12
-6.255752356e-10
-4.511079945e-12
-6.210599081e-10
-4.515386497e-12
-6.165414088e-10
-4.518562633e-12
-6.120208306e-10
-4.520656047e-12
-6.074991991e-10
-4.521732828e-12
-6.02977462e-10
-4.521869602e-12
-5.984564898e-10
-4.521141608e-12
-5.939370931e-10
-4.519606866e-12
-5.894200543e-10
-4.517291856e-12
-5.849061668e-10
-4.514183614e-12
-5.803962752e-10
-4.510229256e-12
-5.758912944e-10
-4.505357232e-12
-5.713922046e-10
-4.499501028e-12
-5.669000353e-10
-4.492610795e-12
-5.624158395e-10
-4.484662386e-12
-5.579406747e-10
-4.475650943e-12
-5.534755819e-10
-4.465593442e-12
-5.49021562e-10
-4.454530128e-12
-5.445795668e-10
-4.442510754e-12
-5.401504983e-10
-4.42958547e-12
-5.357352199e-10
-4.415793563e-12
-5.313345759e-10
-4.401154699e-12
-5.269494167e-10
-4.385662285e-12
-5.225806154e-10
-4.369295244e-12
-5.1822906e-10
-4.352037713e-12
-5.138956383e-10
-4.333889979e-12
-5.095812175e-10
-4.314872561e-12
-5.052866337e-10
-4.295015954e-12
-5.010126915e-10
-4.274351083e-12
-4.967601624e-10
-4.252910799e-12
-4.925298326e-10
-4.230679736e-12
-4.883225176e-10
-4.207628249e-12
-4.841390416e-10
-4.183747366e-12
-4.799802541e-10
-4.159011973e-12
-4.758470256e-10
-4.133401116e-12
-4.717402507e-10
-4.106891181e-12
-4.676608462e-10
-4.079460899e-12
-4.636097396e-10
-4.051100326e-12
-4.595878567e-10
-4.02181255e-12
-4.555961113e-10
-3.991610908e-12
-4.516353987e-10
-3.960515444e-12
-4.477065928e-10
-3.928549053e-12
-4.438105466e-10
-3.895734601e-12
-4.399480932e-10
-3.862093162e-12
-4.361200509e-10
-3.827641479e-12
-4.323272294e-10
-3.792389223e-12
-4.285704271e-10
-3.756348755e-12
-4.248504149e-10
-3.719548561e-12
-4.211679518e-10
-3.682000023e-12
-4.175238299e-10
-3.643671957e-12
-4.139188505e-10
-3.60455349e-12
-4.103537721e-10
-3.564688692e-12
-4.068293523e-10
-3.524076765e-12
-4.033464112e-10
-3.482654099e-12
-3.999058118e-10
-3.440376037e-12
-3.965084375e-10
-3.397220827e-12
-3.931551793e-10
-3.353178692e-12
-3.898469321e-10
-3.308243935e-12
-3.865845929e-10
-3.262412469e-12
-3.833690585e-10
-3.215682418e-12
-3.802012252e-10
-3.168052338e-12
-3.770819904e-10
-3.119519661e-12
-3.740122292e-10
-3.070105247e-12
-3.709927115e-10
-3.019913056e-12
-3.680243546e-10
-2.968795226e-12
-3.65108221e-10
-2.916606107e-12
-3.622452746e-10
-2.863444593e-12
-3.59436455e-10
-2.80933521e-12
-3.566826591e-10
-2.754322114e-12
-3.53984748e-10
-2.698443703e-12
-3.513436371e-10
-2.641643943e-12
-3.487603777e-10
-2.58379024e-12
-3.46236023e-10
-2.524882962e-12
-3.437715186e-10
-2.465031043e-12
-3.413677776e-10
-2.404269066e-12
-3.390257627e-10
-2.342548837e-12
-3.367464748e-10
-2.279833851e-12
-3.34530902e-10
-2.216137446e-12
-3.323800369e-10
-2.151456367e-12
-3.30294887e-10
-2.085775629e-12
-3.28276485e-10
-2.019070312e-12
-3.263259027e-10
-1.951300606e-12
-3.244442576e-10
-1.882420282e-12
-3.226327281e-10
-1.812367095e-12
-3.208925328e-10
-1.741099538e-12
-3.1922492e-10
-1.668585777e-12
-3.176310607e-10
-1.594901671e-12
-3.161120323e-10
-1.520138818e-12
-3.146686805e-10
-1.444527923e-12
-3.133018472e-10
-1.368071915e-12
-3.120126886e-10
-1.290455536e-12
-3.108023679e-10
-1.211671082e-12
-3.09672611e-10
-1.13115523e-12
-3.086248063e-10
-1.049244906e-12
-3.07660841e-10
-9.654395483e-13
-3.0678198e-10
-8.803606562e-13
-3.059910174e-10
-7.924783322e-13
-3.052882468e-10
-7.04292538e-13
-3.046740797e-10
-6.156857004e-13
-3.041514585e-10
-5.241260955e-13
-3.037212347e-10
-4.317041614e-13
-3.033865674e-10
-3.361120257e-13
-3.031478685e-10
-2.400945964e-13
-3.030070317e-10
-1.421695323e-13
-3.029657005e-10
-4.258368737e-14
-3.030271544e-10
6.029341079e-14
-3.031937394e-10
1.655334561e-13
-3.034674212e-10
2.727708628e-13
-3.038502449e-10
3.820548346e-13
-3.043440612e-10
4.932077978e-13
-3.049510519e-10
6.065624711e-13
-3.056735789e-10
7.222995586e-13
-3.065141228e-10
8.405380371e-13
-3.074752667e-10
9.613799467e-13
-3.085596819e-10
1.084912966e-12
-3.09770113e-10
1.211210016e-12
-3.111093706e-10
1.340335684e-12
-3.125803039e-10
1.472327612e-12
-3.141859509e-10
1.607373041e-12
-3.159296027e-10
1.745723562e-12
-3.178146791e-10
1.887506193e-12
-3.198446574e-10
2.032776489e-12
-3.220227886e-10
2.181305997e-12
-3.243526956e-10
2.333464527e-12
-3.268386955e-10
2.489943783e-12
-3.294851196e-10
2.650755862e-12
-3.322962878e-10
2.815885852e-12
-3.352765596e-10
2.985369915e-12
-3.384306256e-10
3.159534333e-12
-3.417635353e-10
3.338735572e-12
-3.452804393e-10
3.52306787e-12
-3.48986706e-10
3.712743398e-12
-3.528880034e-10
3.9080541e-12
-3.569903489e-10
4.10933874e-12
-3.612998434e-10
4.316683412e-12
-3.658226154e-10
4.530107309e-12
-3.705649342e-10
4.749738505e-12
-3.755332666e-10
4.975771238e-12
-3.807347834e-10
5.208904433e-12
-3.861773559e-10
5.449835395e-12
-3.91868961e-10
5.698666555e-12
-3.978172621e-10
5.955083039e-12
-4.040307897e-10
6.219952849e-12
-4.105188391e-10
6.494034894e-12
-4.172907071e-10
6.777332814e-12
-4.243567915e-10
7.070948974e-12
-4.317281081e-10
7.375501277e-12
-4.394154978e-10
7.690814111e-12
-4.474300518e-10
8.017136737e-12
-4.557835787e-10
8.355184211e-12
-4.64488521e-10
8.705587981e-12
-4.73558376e-10
9.069399631e-12
-4.830079274e-10
9.447901536e-12
-4.928523435e-10
9.841474444e-12
-5.031072703e-10
1.025059796e-11
-5.137891979e-10
1.06761155e-11
-5.24914956e-10
1.111836905e-11
-5.365008596e-10
1.157685103e-11
-5.485652152e-10
1.20535637e-11
-5.611292403e-10
1.255142634e-11
-5.742134576e-10
1.306976635e-11
-5.878407635e-10
1.361099846e-11
-6.020396583e-10
1.418071768e-11
-6.1683676e-10
1.477743194e-11
-6.322561168e-10
1.539794528e-11
-6.483243451e-10
1.604517926e-11
-6.650705189e-10
1.67216344e-11
-6.82523341e-10
1.742698136e-11
-7.007140798e-10
1.816382754e-11
-7.19680233e-10
1.893844304e-11
-7.394610473e-10
1.975258216e-11
-7.600960682e-10
2.060658895e-11
-7.816261335e-10
2.150179415e-11
-8.040944845e-10
2.244065337e-11
-8.275481534e-10
2.342692098e-11
-8.520348631e-10
2.446133971e-11
-8.776091112e-10
2.555071251e-11
-9.043334107e-10
2.670307522e-11
-9.322714983e-10
2.791966415e-11
-9.614897818e-10
2.92031413e-11
-9.920570989e-10
3.055599042e-11
-1.024042257e-09
3.197815565e-11
-1.057527613e-09
3.348316616e-11
-1.092611876e-09
3.508729863e-11
-1.129390828e-09
3.678767466e-11
-1.167964281e-09
3.858828244e-11
-1.208441119e-09
4.049813031e-11
-1.25093754e-09
4.252446644e-11
-1.295580651e-09
4.467811846e-11
-1.342514013e-09
4.69754462e-11
-1.391897918e-09
4.943310507e-11
-1.443902314e-09
5.206064011e-11
-1.498718208e-09
5.487900248e-11
-1.556554756e-09
5.790623516e-11
-1.617637337e-09
6.115842405e-11
-1.682217622e-09
6.466097195e-11
-1.750576926e-09
6.844483202e-11
-1.823026184e-09
7.253885327e-11
-1.899895566e-09
7.696217156e-11
-1.981578376e-09
8.177779974e-11
-2.068530997e-09
8.704897535e-11
-2.161254546e-09
9.282014108e-11
-2.260310961e-09
9.915117077e-11
-2.366323949e-09
1.061058461e-10
-2.480018699e-09
1.13784705e-10
-2.602188385e-09
1.222557477e-10
-2.733761559e-09
1.316542526e-10
-2.875865681e-09
1.421787743e-10
-3.029749284e-09
1.539504054e-10
-3.196849621e-09
1.671600571e-10
-3.37888699e-09
1.820906867e-10
-3.577978525e-09
1.99139724e-10
-3.796529793e-09
2.185918874e-10
-4.037349399e-09
2.408548708e-10
-4.303913833e-09
2.665983006e-10
-4.600542441e-09
2.966652424e-10
-4.932340167e-09
3.318456662e-10
-5.305341728e-09
3.730593143e-10
-5.726998972e-09
4.217408186e-10
-6.206174357e-09
4.792930443e-10
-6.752863547e-09
5.468561935e-10
-7.377909586e-09
6.252764458e-10
-8.091665081e-09
7.140691312e-10
-8.899215528e-09
8.07983253e-10
-9.790591495e-09
8.919386516e-10
-1.071673342e-08
9.269448315e-10
-1.156209787e-08
8.464749028e-10
-1.215907153e-08
5.986519116e-10
-1.222274033e-08
6.526730361e-11
-1.185820396e-08
-3.640397134e-10
-1.275941681e-08
9.009102392e-10
-1.412900602e-08
1.374233733e-09
-1.40468833e-08
-8.18369356e-11
-1.386997647e-08
-1.746900143e-10
-1.331324894e-08
-5.542916373e-10
-1.260567538e-08
-7.0608869e-10
-1.188712328e-08
-7.174719122e-10
-1.121844135e-08
-6.680334599e-10
-1.062875893e-08
-5.893497484e-10
-1.0138326e-08
-4.902940999e-10
-9.735292104e-09
-4.024342735e-10
-9.39019321e-09
-3.447161667e-10
-9.078668274e-09
-3.112941562e-10
-8.795829551e-09
-2.827072386e-10
-8.542339067e-09
-2.534075365e-10
-8.315545009e-09
-2.267391729e-10
-8.111901322e-09
-2.036060426e-10
-7.927500067e-09
-1.843748906e-10
-7.759579261e-09
-1.679021719e-10
-7.605978156e-09
-1.535879811e-10
-7.464879551e-09
-1.410894952e-10
-7.334736637e-09
-1.301367868e-10
-7.214244342e-09
-1.204884026e-10
-7.102324885e-09
-1.119172475e-10
-6.998080145e-09
-1.042437926e-10
-6.900689268e-09
-9.73908686e-11
-6.809443565e-09
-9.124637016e-11
-6.723733765e-09
-8.571093039e-11
-6.64301356e-09
-8.072162244e-11
-6.566799722e-09
-7.621539425e-11
-6.494673108e-09
-7.212819069e-11
-6.426260609e-09
-6.8414001e-11
-6.361236729e-09
-6.502523642e-11
-6.299317383e-09
-6.192050553e-11
-6.240248186e-09
-5.907013174e-11
-6.18380279e-09
-5.644609037e-11
-6.129778636e-09
-5.40246034e-11
-6.07799223e-09
-5.178661568e-11
-6.0282766e-09
-4.971561241e-11
-5.980479628e-09
-4.779674088e-11
-5.934462668e-09
-4.60165383e-11
-5.890099334e-09
-4.43627487e-11
-5.84727441e-09
-4.282420873e-11
-5.805882629e-09
-4.139097586e-11
-5.765827553e-09
-4.005422555e-11
-5.727020722e-09
-3.880597887e-11
-5.68938074e-09
-3.763916851e-11
-5.65283257e-09
-3.654743098e-11
-5.617306952e-09
-3.552497426e-11
-5.582739941e-09
-3.456647103e-11
-5.54907247e-09
-3.366703282e-11
-5.516249916e-09
-3.282219962e-11
-5.484221699e-09
-3.202792444e-11
-5.452940886e-09
-3.128055397e-11
-5.422363848e-09
-3.057678693e-11
-5.392449941e-09
-2.991363888e-11
-5.363161239e-09
-2.928840373e-11
-5.334462289e-09
-2.869861388e-11
-5.306319908e-09
-2.814201017e-11
-5.27870299e-09
-2.761651932e-11
-5.251582342e-09
-2.71202395e-11
-5.224930514e-09
-2.665142606e-11
-5.198721663e-09
-2.620847719e-11
-5.172931418e-09
-2.578991966e-11
-5.147536763e-09
-2.539439403e-11
-5.122515939e-09
-2.502064225e-11
-5.09784835e-09
-2.466749595e-11
-5.07351448e-09
-2.433386858e-11
-5.049495819e-09
-2.401874957e-11
-5.025774791e-09
-2.372120011e-11
-5.002334682e-09
-2.344034955e-11
-4.979159583e-09
-2.31753916e-11
-4.956234328e-09
-2.292557989e-11
-4.933544439e-09
-2.269022236e-11
-4.911076084e-09
-2.246867573e-11
-4.888816034e-09
-2.226033955e-11
-4.866751624e-09
-2.206465129e-11
-4.844870725e-09
-2.188108206e-11
-4.823161709e-09
-2.17091336e-11
-4.801613424e-09
-2.154833646e-11
-4.780215165e-09
-2.139824869e-11
-4.758956641e-09
-2.125845532e-11
-4.737827956e-09
-2.112856749e-11
-4.716819576e-09
-2.100822142e-11
-4.695922306e-09
-2.089707673e-11
-4.675127269e-09
-2.079481411e-11
-4.654425888e-09
-2.070113242e-11
-4.633809869e-09
-2.061574551e-11
-4.61327119e-09
-2.053837862e-11
-4.592802096e-09
-2.046876494e-11
-4.572395092e-09
-2.040664282e-11
-4.552042942e-09
-2.035175308e-11
-4.531738671e-09
-2.030383731e-11
-4.511475562e-09
-2.026263678e-11
-4.491247158e-09
-2.022789226e-11
-4.471047263e-09
-2.01993443e-11
-4.450869943e-09
-2.017673408e-11
-4.430709518e-09
-2.015980505e-11
-4.410560563e-09
-2.014830433e-11
-4.390417899e-09
-2.014198454e-11
-4.370276589e-09
-2.014060553e-11
-4.350131926e-09
-2.0143936e-11
-4.329979424e-09
-2.015175479e-11
-4.309814807e-09
-2.016385188e-11
-4.289633999e-09
-2.018002922e-11
-4.269433109e-09
-2.020010079e-11
-4.249208424e-09
-2.02238926e-11
-4.228956393e-09
-2.025124245e-11
-4.208673617e-09
-2.028199909e-11
-4.18835684e-09
-2.031602146e-11
-4.168002936e-09
-2.035317756e-11
-4.147608907e-09
-2.03933432e-11
-4.127171866e-09
-2.043640107e-11
-4.10668904e-09
-2.048223924e-11
-4.086157759e-09
-2.05307502e-11
-4.065575454e-09
-2.058182965e-11
-4.044939658e-09
-2.063537563e-11
-4.024247998e-09
-2.069128749e-11
-4.003498202e-09
-2.074946532e-11
-3.982688096e-09
-2.080980928e-11
-3.961815603e-09
-2.087221897e-11
-3.94087875e-09
-2.093659341e-11
-3.919875665e-09
-2.100283028e-11
-3.898804583e-09
-2.107082634e-11
-3.877663844e-09
-2.114047694e-11
-3.856451895e-09
-2.1211676e-11
-3.835167295e-09
-2.128431658e-11
-3.813808711e-09
-2.135829036e-11
-3.792374921e-09
-2.14334882e-11
-3.770864816e-09
-2.15098002e-11
-3.749277396e-09
-2.158711587e-11
-3.727611774e-09
-2.166532421e-11
-3.705867173e-09
-2.174431436e-11
-3.684042927e-09
-2.182397513e-11
-3.66213848e-09
-2.190419582e-11
-3.640153386e-09
-2.198486602e-11
-3.618087308e-09
-2.206587584e-11
-3.595940014e-09
-2.214711626e-11
-3.573711383e-09
-2.222847908e-11
-3.551401399e-09
-2.23098572e-11
-3.529010148e-09
-2.239114448e-11
-3.506537824e-09
-2.247223624e-11
-3.483984721e-09
-2.255302899e-11
-3.461351235e-09
-2.263342077e-11
-3.438637863e-09
-2.271331108e-11
-3.415845198e-09
-2.279260094e-11
-3.392973932e-09
-2.287119293e-11
-3.370024855e-09
-2.294899121e-11
-3.346998848e-09
-2.302590151e-11
-3.323896889e-09
-2.310183124e-11
-3.300720046e-09
-2.317668921e-11
-3.277469478e-09
-2.325038586e-11
-3.254146435e-09
-2.332283312e-11
-3.230752254e-09
-2.339394432e-11
-3.20728836e-09
-2.346363415e-11
-3.183756262e-09
-2.353181872e-11
-3.160157553e-09
-2.359841544e-11
-3.136493909e-09
-2.3663343e-11
-3.112767083e-09
-2.372652123e-11
-3.088978911e-09
-2.378787119e-11
-3.065131302e-09
-2.384731513e-11
-3.041226244e-09
-2.390477627e-11
-3.017265795e-09
-2.396017903e-11
-2.993252089e-09
-2.401344899e-11
-2.96918733e-09
-2.406451266e-11
-2.945073794e-09
-2.411329763e-11
-2.920913824e-09
-2.415973257e-11
-2.896709836e-09
-2.420374708e-11
-2.872464313e-09
-2.424527179e-11
-2.848179809e-09
-2.428423851e-11
-2.823858943e-09
-2.43205799e-11
-2.799504404e-09
-2.435422968e-11
-2.775118947e-09
-2.438512272e-11
-2.750705395e-09
-2.441319474e-11
-2.726266634e-09
-2.443838259e-11
-2.701805615e-09
-2.446062434e-11
-2.677325351e-09
-2.44798589e-11
-2.652828917e-09
-2.449602644e-11
-2.628319446e-09
-2.450906835e-11
-2.603800128e-09
-2.451892701e-11
-2.579274208e-09
-2.452554618e-11
-2.554744988e-09
-2.452887077e-11
-2.530215818e-09
-2.452884695e-11
-2.5056901e-09
-2.452542238e-11
-2.481171287e-09
-2.451854581e-11
-2.456662879e-09
-2.450816746e-11
-2.432168423e-09
-2.449423899e-11
-2.407691512e-09
-2.44767134e-11
-2.383235783e-09
-2.445554519e-11
-2.35880492e-09
-2.443069034e-11
-2.334402647e-09
-2.440210624e-11
-2.310032731e-09
-2.43697519e-11
-2.285698978e-09
-2.433358786e-11
-2.261405234e-09
-2.429357619e-11
-2.237155383e-09
-2.424968071e-11
-2.212953341e-09
-2.420186672e-11
-2.188803061e-09
-2.415010141e-11
-2.164708528e-09
-2.409435344e-11
-2.140673756e-09
-2.403459341e-11
-2.116702786e-09
-2.397079381e-11
-2.092799686e-09
-2.390292879e-11
-2.06896855e-09
-2.383097439e-11
-2.04521349e-09
-2.375490853e-11
-2.021538643e-09
-2.367471133e-11
-1.99794816e-09
-2.35903646e-11
-1.97444621e-09
-2.350185217e-11
-1.951036974e-09
-2.340916005e-11
-1.927724647e-09
-2.331227622e-11
-1.904513432e-09
-2.32111907e-11
-1.881407538e-09
-2.310589572e-11
-1.85841118e-09
-2.299638542e-11
-1.835528575e-09
-2.288265644e-11
-1.812763941e-09
-2.276470728e-11
-1.790121495e-09
-2.264253876e-11
-1.767605446e-09
-2.251615388e-11
-1.745220002e-09
-2.238555792e-11
-1.72296936e-09
-2.22507583e-11
-1.700857707e-09
-2.211176487e-11
-1.678889219e-09
-2.196858953e-11
-1.657068057e-09
-2.182124648e-11
-1.635398368e-09
-2.166975241e-11
-1.61388428e-09
-2.151412593e-11
-1.5925299e-09
-2.135438813e-11
-1.571339314e-09
-2.11905622e-11
-1.550316584e-09
-2.102267362e-11
-1.529465746e-09
-2.085075006e-11
-1.508790805e-09
-2.067482122e-11
-1.488295738e-09
-2.049491898e-11
-1.467984486e-09
-2.031107741e-11
-1.447860956e-09
-2.012333242e-11
-1.427929016e-09
-1.993172198e-11
-1.408192495e-09
-1.973628593e-11
-1.38865518e-09
-1.953706592e-11
-1.369320813e-09
-1.933410548e-11
-1.350193091e-09
-1.912744963e-11
-1.331275663e-09
-1.891714496e-11
-1.312572133e-09
-1.870323969e-11
-1.29408605e-09
-1.848578323e-11
-1.275820916e-09
-1.826482623e-11
-1.25778018e-09
-1.804042049e-11
-1.23996724e-09
-1.781261849e-11
-1.222385438e-09
-1.758147383e-11
-1.205038065e-09
-1.734704044e-11
-1.187928358e-09
-1.710937268e-11
-1.171059498e-09
-1.686852523e-11
-1.154434614e-09
-1.662455262e-11
-1.138056781e-09
-1.637750915e-11
-1.12192902e-09
-1.612744879e-11
-1.106054297e-09
-1.587442462e-11
-1.09043553e-09
-1.561848869e-11
-1.075075581e-09
-1.535969185e-11
-1.059977267e-09
-1.509808311e-11
-1.045143355e-09
-1.48337097e-11
-1.030576565e-09
-1.456661629e-11
-1.016279578e-09
-1.429684477e-11
-1.002255033e-09
-1.402443395e-11
-9.885055314e-10
-1.37494187e-11
-9.750336462e-10
-1.347182975e-11
-9.618419218e-10
-1.319169288e-11
-9.489328816e-10
-1.290902851e-11
-9.363090341e-10
-1.262385071e-11
-9.239728801e-10
-1.233616672e-11
-9.119269207e-10
-1.204597582e-11
-9.001736658e-10
-1.175326868e-11
-8.88715645e-10
-1.145802589e-11
-8.775554185e-10
-1.11602172e-11
-8.666955892e-10
-1.08597998e-11
-8.561388178e-10
-1.055671722e-11
-8.458878378e-10
-1.025089698e-11
-8.359454739e-10
-9.942249122e-12
-8.263146618e-10
-9.630663786e-12
-8.169984713e-10
-9.316007952e-12
-8.080001319e-10
-8.998123057e-12
-7.99323063e-10
-8.676820428e-12
-7.909709082e-10
-8.351877111e-12
-7.829475749e-10
-8.023029928e-12
-7.75257282e-10
-7.6899685e-12
-7.679046144e-10
-7.352326988e-12
-7.608945907e-10
-7.009672311e-12
-7.542327437e-10
-6.661490398e-12
-7.479252198e-10
-6.307167515e-12
-7.419789034e-10
-5.945965201e-12
-7.364015735e-10
-5.576988581e-12
-7.312021025e-10
-5.199143463e-12
-7.263907122e-10
-4.811079578e-12
-7.219792751e-10
-4.411145686e-12
-7.17981638e-10
-3.997366102e-12
-7.144140737e-10
-3.567314422e-12
-7.112951711e-10
-3.118673304e-12
-7.086440982e-10
-2.650862832e-12
-7.064799114e-10
-2.16399414e-12
-7.0481726e-10
-1.662473437e-12
-7.035372937e-10
-1.279799859e-12
-7.028648001e-10
-6.723349985e-13
-3.230512807e-13
-2.021250111e-09
-3.207876115e-11
-2.00454042e-09
-2.833232372e-11
-1.989968097e-09
-2.410352901e-11
-1.977005612e-09
-2.061864762e-11
-1.965540795e-09
-1.78632772e-11
-1.955302555e-09
-1.571630827e-11
-1.946043342e-09
-1.406117863e-11
-1.937556126e-09
-1.278702898e-11
-1.929672335e-09
-1.180797447e-11
-1.922256049e-09
-1.105763767e-11
-1.915199323e-09
-1.048487015e-11
-1.908416502e-09
-1.005060627e-11
-1.901839089e-09
-9.725636247e-12
-1.895411991e-09
-9.487636434e-12
-1.889090824e-09
-9.319328502e-12
-1.882839669e-09
-9.207281826e-12
-1.876629169e-09
-9.141023656e-12
-1.870435057e-09
-9.112376392e-12
-1.864237016e-09
-9.115025794e-12
-1.858017259e-09
-9.144805736e-12
-1.85176117e-09
-9.196916277e-12
-1.84545857e-09
-9.265003862e-12
-1.839101578e-09
-9.345646851e-12
-1.832682963e-09
-9.437622069e-12
-1.826196573e-09
-9.539172371e-12
-1.819637384e-09
-9.648516243e-12
-1.813001442e-09
-9.763975205e-12
-1.806285835e-09
-9.883923169e-12
-1.799488665e-09
-1.000678298e-11
-1.792608951e-09
-1.013113819e-11
-1.785646377e-09
-1.025594474e-11
-1.778601166e-09
-1.038043275e-11
-1.771474148e-09
-1.050383913e-11
-1.764266464e-09
-1.062577258e-11
-1.756979184e-09
-1.074632831e-11
-1.749613121e-09
-1.086588271e-11
-1.742168656e-09
-1.098506682e-11
-1.734645743e-09
-1.110448942e-11
-1.727044055e-09
-1.122450909e-11
-1.71936363e-09
-1.134456022e-11
-1.711605197e-09
-1.146361314e-11
-1.703770004e-09
-1.158081252e-11
-1.695859701e-09
-1.169547319e-11
-1.687876092e-09
-1.180733486e-11
-1.679821069e-09
-1.191624834e-11
-1.671696676e-09
-1.202201222e-11
-1.663505135e-09
-1.212440119e-11
-1.655248825e-09
-1.222327562e-11
-1.646930372e-09
-1.231854666e-11
-1.638553054e-09
-1.24097181e-11
-1.630119507e-09
-1.249708986e-11
-1.62163053e-09
-1.2582094e-11
-1.613086948e-09
-1.266492953e-11
-1.604490514e-09
-1.274501305e-11
-1.595843092e-09
-1.282235685e-11
-1.587146617e-09
-1.289727192e-11
-1.578402737e-09
-1.29699455e-11
-1.569612779e-09
-1.304036019e-11
-1.560778268e-09
-1.310846616e-11
-1.551900841e-09
-1.317412927e-11
-1.542982267e-09
-1.323712701e-11
-1.534024484e-09
-1.329717544e-11
-1.525029626e-09
-1.335394529e-11
-1.515999851e-09
-1.340734363e-11
-1.506936702e-09
-1.345819229e-11
-1.497842546e-09
-1.350537442e-11
-1.488720734e-09
-1.354760422e-11
-1.479573783e-09
-1.358606115e-11
-1.470403601e-09
-1.36215856e-11
-1.461211912e-09
-1.365450448e-11
-1.452000491e-09
-1.368480623e-11
-1.44277124e-09
-1.371230606e-11
-1.433526197e-09
-1.373679256e-11
-1.424267499e-09
-1.375810781e-11
-1.414997362e-09
-1.377612501e-11
-1.405718112e-09
-1.379068503e-11
-1.396432132e-09
-1.380171205e-11
-1.38714175e-09
-1.380928837e-11
-1.377849186e-09
-1.381356767e-11
-1.368556517e-09
-1.381476213e-11
-1.359265646e-09
-1.381311701e-11
-1.349978315e-09
-1.380886911e-11
-1.340696142e-09
-1.380219889e-11
-1.331420689e-09
-1.379318813e-11
-1.322153544e-09
-1.378179592e-11
-1.312896406e-09
-1.376785587e-11
-1.303651128e-09
-1.375114418e-11
-1.294419695e-09
-1.373145761e-11
-1.285204199e-09
-1.370864382e-11
-1.276006795e-09
-1.368261216e-11
-1.266829651e-09
-1.365334328e-11
-1.257674904e-09
-1.362089031e-11
-1.248544618e-09
-1.358536151e-11
-1.239440765e-09
-1.354690227e-11
-1.230365216e-09
-1.350566285e-11
-1.22131976e-09
-1.346176481e-11
-1.212306143e-09
-1.341527308e-11
-1.203326115e-09
-1.336617533e-11
-1.194381471e-09
-1.331440635e-11
-1.185474035e-09
-1.325992128e-11
-1.176605619e-09
-1.320273293e-11
-1.167777989e-09
-1.314290602e-11
-1.158992838e-09
-1.308054674e-11
-1.15025175e-09
-1.301579061e-11
-1.141556284e-09
-1.294869919e-11
-1.13290814e-09
-1.287911398e-11
-1.124309145e-09
-1.280687635e-11
-1.115761137e-09
-1.273197091e-11
-1.107265941e-09
-1.265437941e-11
-1.098825418e-09
-1.257405119e-11
-1.090441466e-09
-1.249092225e-11
-1.082116021e-09
-1.240493561e-11
-1.073851032e-09
-1.231606853e-11
-1.065648435e-09
-1.222433642e-11
-1.057510141e-09
-1.212978296e-11
-1.049438018e-09
-1.203246831e-11
-1.041433893e-09
-1.193245929e-11
-1.033499552e-09
-1.182982136e-11
-1.025636744e-09
-1.172461144e-11
-1.017847196e-09
-1.161687252e-11
-1.010132617e-09
-1.150663196e-11
-1.002494736e-09
-1.13938827e-11
-9.949354265e-10
-1.127850957e-11
-9.874564665e-10
-1.116061713e-11
-9.800593442e-10
-1.104046926e-11
-9.72745544e-10
-1.091805612e-11
-9.655167542e-10
-1.079321749e-11
-9.583747689e-10
-1.066584631e-11
-9.513214031e-10
-1.053585732e-11
-9.443585396e-10
-1.040313702e-11
-9.374881021e-10
-1.026762124e-11
-9.307120268e-10
-1.012928652e-11
-9.240322554e-10
-9.988120307e-12
-9.17450732e-10
-9.844114454e-12
-9.109693956e-10
-9.697270754e-12
-9.045901774e-10
-9.547594199e-12
-8.983150084e-10
-9.395081072e-12
-8.921457584e-10
-9.239812624e-12
-8.860840613e-10
-9.082127803e-12
-8.801318957e-10
-8.921533559e-12
-8.742916144e-10
-8.757509632e-12
-8.685653382e-10
-8.590387067e-12
-8.629551429e-10
-8.420235962e-12
-8.574631499e-10
-8.247055529e-12
-8.520914054e-10
-8.070959972e-12
-8.468418062e-10
-7.892044011e-12
-8.417164493e-10
-7.709976636e-12
-8.367175569e-10
-7.524633915e-12
-8.318471506e-10
-7.336326658e-12
-8.271072028e-10
-7.145139631e-12
-8.224998159e-10
-6.950895906e-12
-8.180271784e-10
-6.753473759e-12
-8.136914393e-10
-6.552926531e-12
-8.094947313e-10
-6.349267384e-12
-8.054392189e-10
-6.142449845e-12
-8.015271116e-10
-5.932403711e-12
-7.977606836e-10
-5.719023772e-12
-7.941422794e-10
-5.502192856e-12
-7.906743484e-10
-5.281742386e-12
-7.873594103e-10
-5.057558915e-12
-7.842000653e-10
-4.829528421e-12
-7.811988051e-10
-4.597832841e-12
-7.783580165e-10
-4.362667396e-12
-7.756796473e-10
-4.124700579e-12
-7.731656115e-10
-3.883968573e-12
-7.708184633e-10
-3.639514807e-12
-7.686405867e-10
-3.391501431e-12
-7.666355654e-10
-3.13816476e-12
-7.648061617e-10
-2.880662015e-12
-7.631561876e-10
-2.617441325e-12
-7.616880996e-10
-2.350477931e-12
-7.604068475e-10
-2.075747897e-12
-7.593143427e-10
-1.798789244e-12
-7.584104987e-10
-1.52148185e-12
-7.577026585e-10
-1.233864232e-12
-7.571928656e-10
-9.433253298e-13
-7.568846066e-10
-6.461138656e-13
-7.567818907e-10
-3.444497981e-13
-7.568908266e-10
-3.473835195e-14
-7.572113325e-10
2.765560217e-13
-7.577474397e-10
5.951914455e-13
-7.585028838e-10
9.199438533e-13
-7.594817681e-10
1.250813033e-12
-7.606885897e-10
1.588255348e-12
-7.621282633e-10
1.932506908e-12
-7.638055179e-10
2.283713605e-12
-7.657251571e-10
2.642130348e-12
-7.678921287e-10
3.008019887e-12
-7.703114882e-10
3.381591023e-12
-7.729884245e-10
3.763064246e-12
-7.759282406e-10
4.152625005e-12
-7.79136247e-10
4.550344036e-12
-7.826178081e-10
4.956311246e-12
-7.863786522e-10
5.371075601e-12
-7.904249727e-10
5.795351729e-12
-7.947632436e-10
6.229544915e-12
-7.994000725e-10
6.673841084e-12
-8.043414817e-10
7.127423727e-12
-8.095942191e-10
7.591385215e-12
-8.151664329e-10
8.067813837e-12
-8.21066148e-10
8.556594528e-12
-8.273013985e-10
9.057717632e-12
-8.338806807e-10
9.571676877e-12
-8.408125986e-10
1.009890054e-11
-8.481058825e-10
1.063986545e-11
-8.557697462e-10
1.119514307e-11
-8.638139056e-10
1.176544166e-11
-8.722485146e-10
1.235148357e-11
-8.810840221e-10
1.295389496e-11
-8.903312384e-10
1.357311552e-11
-9.0000123e-10
1.420941358e-11
-9.101048169e-10
1.486266291e-11
-9.206533425e-10
1.553357477e-11
-9.316596085e-10
1.622430094e-11
-9.431377345e-10
1.693685135e-11
-9.551028187e-10
1.767230297e-11
-9.675721659e-10
1.843254393e-11
-9.805616288e-10
1.921692847e-11
-9.940835837e-10
2.002286105e-11
-1.008152159e-09
2.085203275e-11
-1.022784967e-09
2.170903041e-11
-1.038000721e-09
2.259557153e-11
-1.053817596e-09
2.351094408e-11
-1.070254015e-09
2.445564347e-11
-1.087329716e-09
2.543169763e-11
-1.105065685e-09
2.644099039e-11
-1.123484325e-09
2.748598879e-11
-1.14260997e-09
2.856990575e-11
-1.162467196e-09
2.969336654e-11
-1.183081419e-09
3.085769572e-11
-1.204479526e-09
3.206521583e-11
-1.226688664e-09
3.331653948e-11
-1.249735043e-09
3.461023587e-11
-1.27364858e-09
3.595204366e-11
-1.298464311e-09
3.73499942e-11
-1.324221273e-09
3.880744457e-11
-1.350955444e-09
4.032394612e-11
-1.378697471e-09
4.189948087e-11
-1.407483147e-09
4.353787169e-11
-1.437353866e-09
4.524160162e-11
-1.468353246e-09
4.70158419e-11
-1.500526599e-09
4.886483032e-11
-1.533916619e-09
5.078566001e-11
-1.568569873e-09
5.278486911e-11
-1.604541702e-09
5.48775043e-11
-1.641890271e-09
5.70681909e-11
-1.680676601e-09
5.936016563e-11
-1.720970234e-09
6.176330633e-11
-1.76284109e-09
6.428070406e-11
-1.806349669e-09
6.69062506e-11
-1.85155222e-09
6.963669829e-11
-1.898526096e-09
7.249997094e-11
-1.947363481e-09
7.551894523e-11
-1.998153455e-09
7.869176304e-11
-2.050986187e-09
8.202220028e-11
-2.105960148e-09
8.552096967e-11
-2.163187329e-09
8.920153647e-11
-2.222789146e-09
9.308681348e-11
-2.28488256e-09
9.71885748e-11
-2.349588711e-09
1.015080935e-10
-2.417046035e-09
1.060665937e-10
-2.487399089e-09
1.108791254e-10
-2.560805733e-09
1.159661465e-10
-2.637469729e-09
1.213843028e-10
-2.717597073e-09
1.271516733e-10
-2.801370828e-09
1.332626387e-10
-2.888995735e-09
1.397479127e-10
-2.980727735e-09
1.466796062e-10
-3.076864979e-09