/*--------------------------------*- C++ -*----------------------------------*\
| =========                 |                                                 |
| \\      /  F ield         | OpenFOAM: The Open Source CFD Toolbox           |
|  \\    /   O peration     | Version:  v2006                                 |
|   \\  /    A nd           | Website:  www.openfoam.com                      |
|    \\/     M anipulation  |                                                 |
\*---------------------------------------------------------------------------*/
FoamFile
{
    version     2.0;
    format      ascii;
    class       surfaceScalarField;
    location    "0.09";
    object      phi_0;
}
// * * * * * * * * * * * * * * * * * * * * * * * * * * * * * * * * * * * * * //

dimensions      [1 0 -1 0 0 0 0];
oriented        oriented;


internalField   nonuniform List<scalar> 
143280
(
-9.305187353e-10
-1.488384269e-11
-9.188968007e-10
-1.16222029e-11
-9.09366616e-10
-9.530598305e-12
-9.017118089e-10
-7.655370334e-12
-8.953150068e-10
-6.397500271e-12
-8.89838848e-10
-5.476971023e-12
-8.850389893e-10
-4.800762758e-12
-8.807414381e-10
-4.298528791e-12
-8.76819625e-10
-3.922845685e-12
-8.731807155e-10
-3.639982324e-12
-8.697550547e-10
-3.426760063e-12
-8.664897637e-10
-3.266403257e-12
-8.633440302e-10
-3.146852307e-12
-8.602859596e-10
-3.059188533e-12
-8.572902314e-10
-2.996838351e-12
-8.543364919e-10
-2.954835773e-12
-8.514083015e-10
-2.929267439e-12
-8.484923095e-10
-2.917045211e-12
-8.455775324e-10
-2.915802701e-12
-8.42654624e-10
-2.923903523e-12
-8.397158694e-10
-2.939716969e-12
-8.367554697e-10
-2.961327845e-12
-8.337687525e-10
-2.987610504e-12
-8.307516172e-10
-3.017993772e-12
-8.277006458e-10
-3.051795834e-12
-8.246130705e-10
-3.088366967e-12
-8.21486734e-10
-3.127097228e-12
-8.183200632e-10
-3.167402244e-12
-8.151120469e-10
-3.20872059e-12
-8.118621734e-10
-3.250552417e-12
-8.08570308e-10
-3.292520598e-12
-8.052365481e-10
-3.334392843e-12
-8.018611449e-10
-3.376014692e-12
-7.984444292e-10
-3.417306165e-12
-7.949867087e-10
-3.458289868e-12
-7.914881699e-10
-3.499086523e-12
-7.879487995e-10
-3.539895384e-12
-7.843684042e-10
-3.580896241e-12
-7.807467133e-10
-3.62216634e-12
-7.770836567e-10
-3.663505288e-12
-7.733795037e-10
-3.704573913e-12
-7.696348631e-10
-3.745033024e-12
-7.658506273e-10
-3.784599992e-12
-7.620277985e-10
-3.823165812e-12
-7.581674384e-10
-3.860671974e-12
-7.542706641e-10
-3.897064199e-12
-7.503386382e-10
-3.932298355e-12
-7.46372508e-10
-3.966390265e-12
-7.423732649e-10
-3.999497132e-12
-7.383417422e-10
-4.031777612e-12
-7.342791127e-10
-4.062892288e-12
-7.301869583e-10
-4.09243261e-12
-7.260666346e-10
-4.120624621e-12
-7.219191437e-10
-4.147820699e-12
-7.177453686e-10
-4.174138997e-12
-7.135458018e-10
-4.199969804e-12
-7.093210352e-10
-4.225210002e-12
-7.050719944e-10
-4.249525366e-12
-7.007994543e-10
-4.27306431e-12
-6.965042077e-10
-4.29580644e-12
-6.921871347e-10
-4.31766271e-12
-6.878492295e-10
-4.338516941e-12
-6.834916175e-10
-4.358236499e-12
-6.791154932e-10
-4.376751323e-12
-6.747218434e-10
-4.394268039e-12
-6.703119513e-10
-4.410490483e-12
-6.658874026e-10
-4.425116548e-12
-6.614494415e-10
-4.438488854e-12
-6.569990836e-10
-4.450837217e-12
-6.525372079e-10
-4.462300498e-12
-6.480646555e-10
-4.47291859e-12
-6.435823308e-10
-4.482630726e-12
-6.390912178e-10
-4.491360041e-12
-6.345923643e-10
-4.499044932e-12
-6.30086866e-10
-4.505639894e-12
-6.255758709e-10
-4.511094512e-12
-6.210605483e-10
-4.515389175e-12
-6.165420394e-10
-4.518553025e-12
-6.120214377e-10
-4.52063431e-12
-6.074997701e-10
-4.52169967e-12
-6.02977986e-10
-4.521826221e-12
-5.98456958e-10
-4.521089582e-12
-5.939374992e-10
-4.51954806e-12
-5.894203944e-10
-4.517228328e-12
-5.849064394e-10
-4.514117446e-12
-5.803964813e-10
-4.510162509e-12
-5.758914368e-10
-4.505291804e-12
-5.713922878e-10
-4.499438556e-12
-5.669000647e-10
-4.492552621e-12
-5.624158214e-10
-4.484609515e-12
-5.579406157e-10
-4.475604044e-12
-5.534754883e-10
-4.465552853e-12
-5.490214398e-10
-4.454495878e-12
-5.445794212e-10
-4.442482653e-12
-5.401503337e-10
-4.429563145e-12
-5.3573504e-10
-4.415776537e-12
-5.313343834e-10
-4.40114248e-12
-5.26949214e-10
-4.385654402e-12
-5.225804042e-10
-4.369291335e-12
-5.182288421e-10
-4.352037541e-12
-5.138954156e-10
-4.333893445e-12
-5.095809921e-10
-4.314879746e-12
-5.052864085e-10
-4.295027069e-12
-5.010124702e-10
-4.274366453e-12
-4.967599496e-10
-4.252930822e-12
-4.925296338e-10
-4.230704812e-12
-4.883223391e-10
-4.207658734e-12
-4.841388905e-10
-4.183783521e-12
-4.799801378e-10
-4.159053894e-12
-4.758469518e-10
-4.133448676e-12
-4.71740227e-10
-4.106944009e-12
-4.676608796e-10
-4.079518357e-12
-4.636098362e-10
-4.051161483e-12
-4.595880213e-10
-4.021876204e-12
-4.555963471e-10
-3.991675615e-12
-4.516357071e-10
-3.960579546e-12
-4.477069731e-10
-3.928610735e-12
-4.438109958e-10
-3.895791963e-12
-4.399486062e-10
-3.862144282e-12
-4.361206202e-10
-3.827684481e-12
-4.323278457e-10
-3.792422383e-12
-4.285710792e-10
-3.756370553e-12
-4.2485109e-10
-3.719557762e-12
-4.211686362e-10
-3.681995746e-12
-4.175245091e-10
-3.643653723e-12
-4.139195099e-10
-3.604521241e-12
-4.103543975e-10
-3.564642838e-12
-4.068299302e-10
-3.524018163e-12
-4.033469295e-10
-3.482584072e-12
-3.999062603e-10
-3.440296321e-12
-3.965088082e-10
-3.397133526e-12
-3.931554667e-10
-3.353086213e-12
-3.898471334e-10
-3.308148922e-12
-3.865847083e-10
-3.262317704e-12
-3.833690911e-10
-3.215590721e-12
-3.80201181e-10
-3.167966484e-12
-3.770818781e-10
-3.119442251e-12
-3.740120597e-10
-3.070038621e-12
-3.709924979e-10
-3.019859213e-12
-3.680241112e-10
-2.968755734e-12
-3.651079632e-10
-2.916582048e-12
-3.622450179e-10
-2.863436525e-12
-3.594362149e-10
-2.809343136e-12
-3.566824499e-10
-2.754345485e-12
-3.539845828e-10
-2.698481462e-12
-3.51343527e-10
-2.641694546e-12
-3.487603316e-10
-2.583851749e-12
-3.46236047e-10
-2.524953116e-12
-3.437716163e-10
-2.465107373e-12
-3.413679498e-10
-2.404348983e-12
-3.390260077e-10
-2.342629753e-12
-3.367467883e-10
-2.279913283e-12
-3.345312779e-10
-2.216213105e-12
-3.323804672e-10
-2.151526226e-12
-3.302953627e-10
-2.085838006e-12
-3.282769961e-10
-2.019123885e-12
-3.263264392e-10
-1.951344465e-12
-3.244448097e-10
-1.882453896e-12
-3.226332865e-10
-1.812390296e-12
-3.208930891e-10
-1.741112481e-12
-3.192254669e-10
-1.668588892e-12
-3.176315921e-10
-1.594895592e-12
-3.161125436e-10
-1.520124327e-12
-3.146691681e-10
-1.444505879e-12
-3.133023087e-10
-1.368043237e-12
-3.120131226e-10
-1.290421108e-12
-3.108027736e-10
-1.211631734e-12
-3.096729884e-10
-1.131111737e-12
-3.086251554e-10
-1.049197948e-12
-3.076611623e-10
-9.653897028e-13
-3.067822739e-10
-8.803084209e-13
-3.059912841e-10
-7.924241304e-13
-3.052884865e-10
-7.042367736e-13
-3.046742924e-10
-6.156287844e-13
-3.041516443e-10
-5.240684554e-13
-3.037213934e-10
-4.316462392e-13
-3.03386699e-10
-3.360544381e-13
-3.031479731e-10
-2.400378514e-13
-3.030071101e-10
-1.421143028e-13
-3.029657532e-10
-4.253137025e-14
-3.030271833e-10
6.034291295e-14
-3.031937471e-10
1.655789517e-13
-3.034674105e-10
2.728113118e-13
-3.038502195e-10
3.820892525e-13
-3.043440255e-10
4.932353504e-13
-3.049510109e-10
6.065824018e-13
-3.056735379e-10
7.223112248e-13
-3.065140875e-10
8.405409663e-13
-3.074752427e-10
9.613738542e-13
-3.085596744e-10
1.084897775e-12
-3.09770127e-10
1.21118586e-12
-3.111094104e-10
1.340302886e-12
-3.125803732e-10
1.472286656e-12
-3.141860526e-10
1.607324566e-12
-3.15929739e-10
1.745668289e-12
-3.178148516e-10
1.887444902e-12
-3.198448674e-10
2.032709986e-12
-3.220230372e-10
2.181235099e-12
-3.24352984e-10
2.333390066e-12
-3.268390247e-10
2.489866622e-12
-3.294854912e-10
2.650676937e-12
-3.322967033e-10
2.815806236e-12
-3.352770203e-10
2.985290872e-12
-3.384311325e-10
3.159457374e-12
-3.417640884e-10
3.338662503e-12
-3.452810371e-10
3.523000785e-12
-3.489873448e-10
3.712684663e-12
-3.52888677e-10
3.908006243e-12
-3.56991048e-10
4.109304324e-12
-3.61300556e-10
4.316664829e-12
-3.658233267e-10
4.530106584e-12
-3.705656269e-10
4.749757046e-12
-3.755339225e-10
4.975809622e-12
-3.807353839e-10
5.208962208e-12
-3.861778841e-10
5.449910948e-12
-3.918694027e-10
5.698757092e-12
-3.978176074e-10
5.95518467e-12
-4.040310341e-10
6.220060711e-12
-4.105189847e-10
6.494143498e-12
-4.172907625e-10
6.777436383e-12
-4.243567721e-10
7.071041863e-12
-4.317280351e-10
7.375578459e-12
-4.394153968e-10
7.690871576e-12
-4.474299513e-10
8.017171893e-12
-4.557835075e-10
8.355196164e-12
-4.644885062e-10
8.705577684e-12
-4.735584407e-10
9.069369884e-12
-4.830080885e-10
9.447856844e-12
-4.9285261e-10
9.841420671e-12
-5.031076425e-10
1.025054192e-11
-5.13789667e-10
1.067606433e-11
-5.249155042e-10
1.111832963e-11
-5.365014616e-10
1.157682933e-11
-5.485658406e-10
1.205356416e-11
-5.611298554e-10
1.255145137e-11
-5.742140288e-10
1.3069816e-11
-5.878412605e-10
1.361107028e-11
-6.020400568e-10
1.41808068e-11
-6.168370441e-10
1.47775314e-11
-6.322562809e-10
1.539804657e-11
-6.483243947e-10
1.604527305e-11
-6.650704703e-10
1.672171132e-11
-6.825232199e-10
1.742703291e-11
-7.00713919e-10
1.816384692e-11
-7.196800694e-10
1.89384258e-11
-7.394609185e-10
1.975252662e-11
-7.600960089e-10
2.060649635e-11
-7.816261731e-10
2.150166847e-11
-8.040946443e-10
2.244050095e-11
-8.275484457e-10
2.342674981e-11
-8.520352912e-10
2.44611586e-11
-8.776096703e-10
2.555053028e-11
-9.0433409e-10
2.670289991e-11
-9.322722831e-10
2.791950234e-11
-9.614906562e-10
2.920299778e-11
-9.92058048e-10
3.055586798e-11
-1.024043269e-09
3.197805524e-11
-1.05752868e-09
3.348308717e-11
-1.092612992e-09
3.508723935e-11
-1.129391993e-09
3.678763271e-11
-1.167965496e-09
3.858825527e-11
-1.208442385e-09
4.049811563e-11
-1.250938858e-09
4.25244624e-11
-1.295582021e-09
4.467812392e-11
-1.342515432e-09
4.697546067e-11
-1.391899381e-09
4.943312864e-11
-1.443903812e-09
5.20606734e-11
-1.498719732e-09
5.487904653e-11
-1.556556295e-09
5.79062914e-11
-1.617638883e-09
6.115849396e-11
-1.682219166e-09
6.466105723e-11
-1.750578462e-09
6.844493458e-11
-1.823027709e-09
7.253897517e-11
-1.899897078e-09
7.696231466e-11
-1.981579876e-09
8.177796596e-11
-2.06853249e-09
8.704916638e-11
-2.161256036e-09
9.282035832e-11
-2.260312454e-09
9.915141527e-11
-2.366325451e-09
1.061061182e-10
-2.480020221e-09
1.137850039e-10
-2.602189935e-09
1.222560712e-10
-2.733763151e-09
1.31654598e-10
-2.87586733e-09
1.421791385e-10
-3.029751011e-09
1.53950784e-10
-3.196851453e-09
1.671604461e-10
-3.378888961e-09
1.82091082e-10
-3.577980677e-09
1.99140121e-10
-3.796532173e-09
2.185922852e-10
-4.037352065e-09
2.408552708e-10
-4.303916851e-09
2.665987038e-10
-4.600545887e-09
2.966656559e-10
-4.932344131e-09
3.318461029e-10
-5.305346308e-09
3.730597871e-10
-5.727004272e-09
4.21741343e-10
-6.206180492e-09
4.792936408e-10
-6.75287063e-09
5.468568796e-10
-7.377917709e-09
6.252772194e-10
-8.091674307e-09
7.140699797e-10
-8.899225811e-09
8.079840914e-10
-9.790602626e-09
8.919393382e-10
-1.071674492e-08
9.269451331e-10
-1.156210924e-08
8.464748295e-10
-1.215908166e-08
5.986509535e-10
-1.222274632e-08
6.526356782e-11
-1.18582049e-08
-3.640445552e-10
-1.275941797e-08
9.009103811e-10
-1.412900484e-08
1.374232404e-09
-1.40468742e-08
-8.184452345e-11
-1.386996633e-08
-1.746904529e-10
-1.331323827e-08
-5.54291635e-10
-1.260566465e-08
-7.060883573e-10
-1.188711379e-08
-7.17470338e-10
-1.121843375e-08
-6.680312717e-10
-1.062875355e-08
-5.893473224e-10
-1.013832244e-08
-4.902921025e-10
-9.735289439e-09
-4.024328982e-10
-9.390190973e-09
-3.447152988e-10
-9.078666337e-09
-3.112934532e-10
-8.795827799e-09
-2.827067123e-10
-8.542337382e-09
-2.53407168e-10
-8.315543304e-09
-2.267389495e-10
-8.111899562e-09
-2.036059392e-10
-7.927498244e-09
-1.84374898e-10
-7.7595774e-09
-1.679022715e-10
-7.605976302e-09
-1.535881544e-10
-7.464877757e-09
-1.410897265e-10
-7.334734955e-09
-1.301370564e-10
-7.214242816e-09
-1.204886897e-10
-7.102323538e-09
-1.119175336e-10
-6.998078985e-09
-1.042440578e-10
-6.900688283e-09
-9.739109616e-11
-6.809442727e-09
-9.124654887e-11
-6.723733036e-09
-8.57110545e-11
-6.643012896e-09
-8.072169314e-11
-6.566799082e-09
-7.621541923e-11
-6.494672457e-09
-7.212818206e-11
-6.42625992e-09
-6.841397359e-11
-6.361235988e-09
-6.502520525e-11
-6.299316589e-09
-6.192048375e-11
-6.240247346e-09
-5.90701292e-11
-6.183801917e-09
-5.644611299e-11
-6.129777752e-09
-5.402465325e-11
-6.077991357e-09
-5.178669164e-11
-6.028275763e-09
-4.971571121e-11
-5.980478858e-09
-4.779685821e-11
-5.934461999e-09
-4.60166697e-11
-5.890098805e-09
-4.436289026e-11
-5.84727406e-09
-4.282435725e-11
-5.805882498e-09
-4.139112882e-11
-5.765827671e-09
-4.005438072e-11
-5.727021108e-09
-3.88061339e-11
-5.689381394e-09
-3.763932055e-11
-5.652833468e-09
-3.654757644e-11
-5.617308048e-09
-3.552510877e-11
-5.582741168e-09
-3.456658963e-11
-5.549073743e-09
-3.366713034e-11
-5.516251144e-09
-3.282227115e-11
-5.48422279e-09
-3.202796582e-11
-5.452941757e-09
-3.128056227e-11
-5.422364431e-09
-3.057676077e-11
-5.39245019e-09
-2.991357869e-11
-5.36316113e-09
-2.928831175e-11
-5.334461821e-09
-2.869849407e-11
-5.306319101e-09
-2.814186793e-11
-5.278701883e-09
-2.761636121e-11
-5.251580985e-09
-2.71200728e-11
-5.224928969e-09
-2.665125836e-11
-5.198719995e-09
-2.620831599e-11
-5.172929692e-09
-2.5789772e-11
-5.147535045e-09
-2.539426619e-11
-5.122514288e-09
-2.502053949e-11
-5.097846816e-09
-2.466742236e-11
-5.073513106e-09
-2.433382697e-11
-5.049494637e-09
-2.401874146e-11
-5.02577382e-09
-2.372122575e-11
-5.002333933e-09
-2.344040796e-11
-4.979159056e-09
-2.317548074e-11
-4.956234013e-09
-2.292569669e-11
-4.933544324e-09
-2.269036294e-11
-4.911076152e-09
-2.24688355e-11
-4.888816267e-09
-2.226051343e-11
-4.866752005e-09
-2.206483387e-11
-4.844871238e-09
-2.188126782e-11
-4.82316234e-09
-2.17093171e-11
-4.80161416e-09
-2.154851258e-11
-4.780215992e-09
-2.139841283e-11
-4.758957547e-09
-2.125860358e-11
-4.737828925e-09
-2.112869685e-11
-4.716820591e-09
-2.100832983e-11
-4.695923347e-09
-2.089716314e-11
-4.675128315e-09
-2.079487846e-11
-4.654426915e-09
-2.070117558e-11
-4.633810854e-09
-2.061576909e-11
-4.613272111e-09
-2.053838484e-11
-4.592802935e-09
-2.04687564e-11
-4.572395835e-09
-2.040662229e-11
-4.55204358e-09
-2.035172332e-11
-4.5317392e-09
-2.030380087e-11
-4.511475983e-09
-2.026259591e-11
-4.491247477e-09
-2.022784884e-11
-4.471047491e-09
-2.01992998e-11
-4.45087009e-09
-2.017668961e-11
-4.430709598e-09
-2.015976144e-11
-4.410560589e-09
-2.014826221e-11
-4.390417882e-09
-2.014194445e-11
-4.37027654e-09
-2.014056802e-11
-4.350131852e-09
-2.014390167e-11
-4.329979331e-09
-2.015172435e-11
-4.309814701e-09
-2.016382616e-11
-4.289633885e-09
-2.018000906e-11
-4.269432992e-09
-2.020008705e-11
-4.249208309e-09
-2.022388603e-11
-4.228956285e-09
-2.025124359e-11
-4.208673521e-09
-2.028200822e-11
-4.188356762e-09
-2.031603848e-11
-4.168002882e-09
-2.035320195e-11
-4.147608879e-09
-2.039337407e-11
-4.127171867e-09
-2.043643713e-11
-4.106689067e-09
-2.048227887e-11
-4.086157809e-09
-2.053079156e-11
-4.065575521e-09
-2.058187079e-11
-4.044939731e-09
-2.06354146e-11
-4.024248067e-09
-2.069132246e-11
-4.003498256e-09
-2.074949469e-11
-3.982688122e-09
-2.080983179e-11
-3.961815591e-09
-2.087223375e-11
-3.940878691e-09
-2.093660002e-11
-3.919875554e-09
-2.100282873e-11
-3.898804417e-09
-2.107081705e-11
-3.877663622e-09
-2.114046072e-11
-3.856451622e-09
-2.121165398e-11
-3.835166976e-09
-2.128429013e-11
-3.813808355e-09
-2.135826097e-11
-3.792374539e-09
-2.143345743e-11
-3.770864419e-09
-2.150976959e-11
-3.749276995e-09
-2.158708682e-11
-3.727611381e-09
-2.166529796e-11
-3.705866798e-09
-2.174429191e-11
-3.68404258e-09
-2.18239572e-11
-3.662138169e-09
-2.190418284e-11
-3.640153118e-09
-2.198485814e-11
-3.618087086e-09
-2.206587293e-11
-3.595939843e-09
-2.214711796e-11
-3.573711263e-09
-2.222848481e-11
-3.55140133e-09
-2.230986623e-11
-3.529010129e-09
-2.239115596e-11
-3.506537851e-09
-2.247224929e-11
-3.483984791e-09
-2.255304275e-11
-3.461351342e-09
-2.263343439e-11
-3.438638001e-09
-2.271332383e-11
-3.415845362e-09
-2.279261218e-11
-3.392974116e-09
-2.287120215e-11
-3.370025052e-09
-2.294899804e-11
-3.346999055e-09
-2.302590572e-11
-3.323897101e-09
-2.310183272e-11
-3.300720261e-09
-2.317668795e-11
-3.277469695e-09
-2.325038196e-11
-3.254146655e-09
-2.332282672e-11
-3.230752479e-09
-2.339393563e-11
-3.207288591e-09
-2.346362339e-11
-3.183756503e-09
-2.353180611e-11
-3.160157805e-09
-2.359840119e-11
-3.136494173e-09
-2.36633273e-11
-3.11276736e-09
-2.372650425e-11
-3.088979197e-09
-2.378785304e-11
-3.065131593e-09
-2.384729591e-11
-3.041226532e-09
-2.390475606e-11
-3.01726607e-09
-2.396015789e-11
-2.993252339e-09
-2.401342694e-11
-2.969187541e-09
-2.406448971e-11
-2.945073952e-09
-2.41132738e-11
-2.920913916e-09
-2.415970786e-11
-2.89670985e-09
-2.420372147e-11
-2.872464242e-09
-2.424524528e-11
-2.848179646e-09
-2.428421108e-11
-2.823858689e-09
-2.432055154e-11
-2.799504063e-09
-2.435420038e-11
-2.775118529e-09
-2.438509246e-11
-2.750704913e-09
-2.441316353e-11
-2.726266106e-09
-2.443835043e-11
-2.70180506e-09
-2.446059128e-11
-2.677324791e-09
-2.447982499e-11
-2.652828373e-09
-2.449599182e-11
-2.628318937e-09
-2.450903318e-11
-2.603799671e-09
-2.451889149e-11
-2.579273818e-09
-2.452551059e-11
-2.554744673e-09
-2.452883544e-11
-2.530215584e-09
-2.452881228e-11
-2.505689949e-09
-2.452538878e-11
-2.481171216e-09
-2.451851374e-11
-2.456662882e-09
-2.450813739e-11
-2.432168492e-09
-2.449421138e-11
-2.407691637e-09
-2.447668869e-11
-2.383235954e-09
-2.445552377e-11
-2.358805126e-09
-2.443067255e-11
-2.334402878e-09
-2.440209234e-11
-2.310032978e-09
-2.436974208e-11
-2.285699234e-09
-2.433358221e-11
-2.261405491e-09
-2.429357474e-11
-2.237155636e-09
-2.42496834e-11
-2.212953586e-09
-2.420187342e-11
-2.188803295e-09
-2.415011195e-11
-2.164708748e-09
-2.409436759e-11
-2.14067396e-09
-2.40346109e-11
-2.116702972e-09
-2.397081435e-11
-2.092799854e-09
-2.390295211e-11
-2.068968699e-09
-2.383100019e-11
-2.045213621e-09
-2.37549365e-11
-2.021538756e-09
-2.367474118e-11
-1.997948256e-09
-2.359039605e-11
-1.974446291e-09
-2.350188496e-11
-1.951037042e-09
-2.34091939e-11
-1.927724704e-09
-2.331231087e-11
-1.904513479e-09
-2.321122588e-11
-1.881407577e-09
-2.310593118e-11
-1.858411212e-09
-2.299642088e-11
-1.835528601e-09
-2.288269166e-11
-1.812763961e-09
-2.276474202e-11
-1.790121507e-09
-2.264257279e-11
-1.76760545e-09
-2.2516187e-11
-1.745219995e-09
-2.238558991e-11
-1.722969339e-09
-2.225078901e-11
-1.700857672e-09
-2.211179416e-11
-1.678889167e-09
-2.196861732e-11
-1.657067989e-09
-2.18212727e-11
-1.635398283e-09
-2.166977704e-11
-1.61388418e-09
-2.151414899e-11
-1.592529788e-09
-2.135440967e-11
-1.571339195e-09
-2.11905823e-11
-1.550316463e-09
-2.102269238e-11
-1.52946563e-09
-2.085076761e-11
-1.508790701e-09
-2.06748377e-11
-1.488295653e-09
-2.049493456e-11
-1.467984427e-09
-2.031109224e-11
-1.447860929e-09
-2.012334665e-11
-1.427929026e-09
-1.993173579e-11
-1.408192545e-09
-1.973629945e-11
-1.38865527e-09
-1.953707929e-11
-1.369320941e-09
-1.93341188e-11
-1.350193255e-09
-1.912746298e-11
-1.331275858e-09
-1.891715842e-11
-1.312572351e-09
-1.870325329e-11
-1.294086284e-09
-1.848579698e-11
-1.275821157e-09
-1.82648401e-11
-1.257780419e-09
-1.804043443e-11
-1.239967468e-09
-1.781263242e-11
-1.222385646e-09
-1.758148764e-11
-1.205038247e-09
-1.734705397e-11
-1.187928508e-09
-1.710938579e-11
-1.171059614e-09
-1.686853777e-11
-1.154434694e-09
-1.66245644e-11
-1.138056826e-09
-1.637752002e-11
-1.121929032e-09
-1.612745859e-11
-1.106054282e-09
-1.587443323e-11
-1.090435493e-09
-1.561849601e-11
-1.075075531e-09
-1.535969781e-11
-1.05997721e-09
-1.509808768e-11
-1.0451433e-09
-1.48337129e-11
-1.03057652e-09
-1.456661818e-11
-1.01627955e-09
-1.429684545e-11
-1.002255027e-09
-1.402443352e-11
-9.885055518e-10
-1.374941734e-11
-9.750336954e-10
-1.347182762e-11
-9.618420003e-10
-1.319169017e-11
-9.489329878e-10
-1.29090254e-11
-9.363091648e-10
-1.262384737e-11
-9.239730307e-10
-1.233616331e-11
-9.119270852e-10
-1.204597247e-11
-9.001738379e-10
-1.17532655e-11
-8.88715818e-10
-1.145802294e-11
-8.775555858e-10
-1.116021452e-11
-8.666957451e-10
-1.085979737e-11
-8.561389575e-10
-1.055671499e-11
-8.458879579e-10
-1.02508949e-11
-8.359455725e-10
-9.942247095e-12
-8.263147383e-10
-9.6306617e-12
-8.169985267e-10
-9.316005693e-12
-8.080001686e-10
-8.998120514e-12
-7.993230844e-10
-8.676817505e-12
-7.909709182e-10
-8.351873715e-12
-7.82947578e-10
-8.023026019e-12
-7.752572824e-10
-7.689964053e-12
-7.679046163e-10
-7.352322016e-12
-7.608945976e-10
-7.009666872e-12
-7.542327583e-10
-6.661484586e-12
-7.479252439e-10
-6.307161446e-12
-7.419789377e-10
-5.945959031e-12
-7.364016179e-10
-5.576982474e-12
-7.312021558e-10
-5.199137593e-12
-7.263907728e-10
-4.811074113e-12
-7.219793406e-10
-4.411140783e-12
-7.179817058e-10
-3.997361898e-12
-7.144141409e-10
-3.567311011e-12
-7.112952348e-10
-3.118670739e-12
-7.086441558e-10
-2.6508611e-12
-7.064799604e-10
-2.163993188e-12
-7.048172985e-10
-1.662473163e-12
-7.035373201e-10
-1.2798001e-12
-7.028648135e-10
-6.723354213e-13
-3.230517757e-13
-2.021250381e-09
-3.207866928e-11
-2.004540659e-09
-2.833222511e-11
-1.989968302e-09
-2.410342724e-11
-1.977005781e-09
-2.061854459e-11
-1.965540927e-09
-1.786317462e-11
-1.955302651e-09
-1.571620782e-11
-1.946043404e-09
-1.406108195e-11
-1.937556156e-09
-1.278693767e-11
-1.929672338e-09
-1.180789004e-11
-1.92225603e-09
-1.105756142e-11
-1.915199288e-09
-1.048480318e-11
-1.908416458e-09
-1.005054938e-11
-1.901839042e-09
-9.725589933e-12
-1.895411947e-09
-9.487600877e-12
-1.88909079e-09
-9.319303559e-12
-1.882839651e-09
-9.207267034e-12
-1.876629172e-09
-9.141018289e-12
-1.870435086e-09
-9.11237949e-12
-1.864237073e-09
-9.11503622e-12
-1.858017346e-09
-9.144822263e-12
-1.851761288e-09
-9.196937643e-12
-1.845458719e-09
-9.265028847e-12
-1.839101756e-09
-9.345674346e-12
-1.83268317e-09
-9.437651132e-12
-1.826196805e-09
-9.539202293e-12
-1.819637638e-09
-9.648546564e-12
-1.813001717e-09
-9.764005731e-12
-1.806286127e-09
-9.883953966e-12
-1.799488972e-09
-1.000681438e-11
-1.792609271e-09
-1.01311707e-11
-1.785646711e-09
-1.0255979e-11
-1.778601512e-09
-1.038046949e-11
-1.771474509e-09
-1.050387905e-11
-1.764266842e-09
-1.062581631e-11
-1.756979581e-09
-1.074637626e-11
-1.74961354e-09
-1.086593507e-11
-1.742169102e-09
-1.098512345e-11
-1.734646219e-09
-1.11045498e-11
-1.727044563e-09
-1.122457232e-11
-1.719364173e-09
-1.134462504e-11
-1.711605778e-09
-1.146367792e-11
-1.703770622e-09
-1.158087535e-11
-1.695860355e-09
-1.169553194e-11
-1.687876779e-09
-1.180738728e-11
-1.679821784e-09
-1.191629223e-11
-1.671697413e-09
-1.202204547e-11
-1.663505886e-09
-1.2124422e-11
-1.655249581e-09
-1.222328256e-11
-1.646931122e-09
-1.231853883e-11
-1.638553789e-09
-1.240969519e-11
-1.630120217e-09
-1.249705223e-11
-1.621631206e-09
-1.258204269e-11
-1.61308758e-09
-1.266486625e-11
-1.604491097e-09
-1.274494015e-11
-1.59584362e-09
-1.282227721e-11
-1.58714709e-09
-1.289718886e-11
-1.578403155e-09
-1.296986256e-11
-1.569613145e-09
-1.304028103e-11
-1.560778589e-09
-1.310839435e-11
-1.551901125e-09
-1.317406807e-11
-1.542982526e-09
-1.323707921e-11
-1.53402473e-09
-1.329714321e-11
-1.525029872e-09
-1.335393005e-11
-1.51600011e-09
-1.340734592e-11
-1.506936989e-09
-1.345821178e-11
-1.497842871e-09
-1.350540987e-11
-1.488721109e-09
-1.354765356e-11
-1.479574215e-09
-1.358612157e-11
-1.470404096e-09
-1.362165369e-11
-1.461212471e-09
-1.365457639e-11
-1.452001114e-09
-1.368487792e-11
-1.442771923e-09
-1.371237348e-11
-1.433526934e-09
-1.373685186e-11
-1.424268279e-09
-1.375815554e-11
-1.414998174e-09
-1.377615829e-11
-1.405718944e-09
-1.379070171e-11
-1.396432969e-09
-1.380171078e-11
-1.387142578e-09
-1.380926865e-11
-1.377849992e-09
-1.381352986e-11
-1.368557289e-09
-1.381470739e-11
-1.359266373e-09
-1.381304719e-11
-1.349978988e-09
-1.380878665e-11
-1.340696756e-09
-1.380210663e-11
-1.33142124e-09
-1.379308916e-11
-1.32215403e-09
-1.37816934e-11
-1.312896827e-09
-1.376775287e-11
-1.303651487e-09
-1.375104352e-11
-1.294419996e-09
-1.373136173e-11
-1.285204447e-09
-1.370855474e-11
-1.276006996e-09
-1.368253138e-11
-1.266829812e-09
-1.365327178e-11
-1.257675029e-09
-1.36208286e-11
-1.248544714e-09
-1.358530966e-11
-1.239440837e-09
-1.354686001e-11
-1.230365268e-09
-1.350562964e-11
-1.221319797e-09
-1.346173999e-11
-1.212306166e-09
-1.341525593e-11
-1.203326127e-09
-1.336616519e-11
-1.194381474e-09
-1.331440267e-11
-1.185474031e-09
-1.325992372e-11
-1.176605609e-09
-1.320274137e-11
-1.167777976e-09
-1.314292054e-11
-1.158992825e-09
-1.308056762e-11
-1.150251741e-09
-1.301581828e-11
-1.141556283e-09
-1.294873415e-11
-1.132908153e-09
-1.287915677e-11
-1.124309179e-09
-1.280692739e-11
-1.115761197e-09
-1.273203044e-11
-1.107266036e-09
-1.265444745e-11
-1.098825555e-09
-1.257412742e-11
-1.090441653e-09
-1.249100597e-11
-1.082116264e-09
-1.240502573e-11
-1.073851336e-09
-1.231616354e-11
-1.065648807e-09
-1.222443441e-11
-1.057510583e-09
-1.212988166e-11
-1.049438531e-09
-1.203256516e-11
-1.041434477e-09
-1.193255152e-11
-1.033500203e-09
-1.18299061e-11
-1.025637458e-09
-1.172468579e-11
-1.017847966e-09
-1.161693372e-11
-1.010133434e-09
-1.150667747e-11
-1.002495588e-09
-1.139391031e-11
-9.949363023e-10
-1.127851754e-11
-9.874573525e-10
-1.116060426e-11
-9.800602264e-10
-1.104043495e-11
-9.727464082e-10
-1.091800045e-11
-9.655175866e-10
-1.079314123e-11
-9.583755566e-10
-1.066575092e-11
-9.513221344e-10
-1.053574494e-11
-9.443592044e-10
-1.04030104e-11
-9.374886927e-10
-1.026748368e-11
-9.307125379e-10
-1.012914175e-11
-9.240326842e-10
-9.987972396e-12
-9.174510787e-10
-9.843967655e-12
-9.109696631e-10
-9.697129348e-12
-9.045903715e-10
-9.547462365e-12
-8.983151375e-10
-9.394962714e-12
-8.92145833e-10
-9.239711231e-12
-8.860840939e-10
-9.082046318e-12
-8.801319002e-10
-8.921474254e-12
-8.742916057e-10
-8.757474062e-12
-8.685653314e-10
-8.590375949e-12
-8.629551528e-10
-8.420249192e-12
-8.574631904e-10
-8.247092186e-12
-8.520914893e-10
-8.071018344e-12
-8.468419443e-10
-7.892121684e-12
-8.417166501e-10
-7.710070607e-12
-8.367178267e-10
-7.524740724e-12
-8.318474929e-10
-7.336442529e-12
-8.271076186e-10
-7.145260631e-12
-8.225003036e-10
-6.951018121e-12
-8.180277342e-10
-6.753593433e-12
-8.136920572e-10
-6.553040198e-12
-8.094954039e-10
-6.349371992e-12
-8.054399377e-10
-6.142542847e-12
-8.015278671e-10
-5.932483128e-12
-7.977614662e-10
-5.719088204e-12
-7.941430797e-10
-5.502241492e-12
-7.906751574e-10
-5.281774968e-12
-7.8736022e-10
-5.057575651e-12
-7.842008685e-10
-4.829529927e-12
-7.811995959e-10
-4.597820043e-12
-7.783587903e-10
-4.362641437e-12
-7.756804007e-10
-4.124662755e-12
-7.73166342e-10
-3.883920228e-12
-7.708191694e-10
-3.639457287e-12
-7.686412676e-10
-3.391436029e-12
-7.666362209e-10
-3.138092684e-12
-7.648067918e-10
-2.880584351e-12
-7.631567926e-10
-2.617359015e-12
-7.616886798e-10
-2.350391786e-12
-7.604074032e-10
-2.075658623e-12
-7.593148739e-10
-1.798697568e-12
-7.584110056e-10
-1.521388489e-12
-7.577031412e-10
-1.233769979e-12
-7.571933238e-10
-9.432309515e-13
-7.568850405e-10
-6.460203728e-13
-7.567823005e-10
-3.443581293e-13
-7.56891213e-10
-3.464936218e-14
-7.572116968e-10
2.766403496e-13
-7.577477832e-10
5.952703241e-13
-7.585032088e-10
9.200157736e-13
-7.594820776e-10
1.250876509e-12
-7.606888874e-10
1.588308945e-12
-7.621285535e-10
1.932549323e-12
-7.638058054e-10
2.283743688e-12
-7.657254471e-10
2.642147162e-12
-7.678924267e-10
3.008022751e-12
-7.703117994e-10
3.381579553e-12
-7.729887541e-10
3.763038371e-12
-7.759285933e-10
4.152584965e-12
-7.79136627e-10
4.550290364e-12
-7.826182189e-10
4.956244742e-12
-7.863790965e-10
5.370997277e-12
-7.904254527e-10
5.795262754e-12
-7.94763761e-10
6.229446559e-12
-7.994006284e-10
6.673734695e-12
-8.043420772e-10
7.127310698e-12
-8.095948552e-10
7.591266993e-12
-8.151671108e-10
8.067691941e-12
-8.210668689e-10
8.556470615e-12
-8.273021636e-10
9.057593584e-12
-8.338814912e-10
9.571554856e-12
-8.408134551e-10
1.009878305e-11
-8.481067846e-10
1.063975541e-11
-8.557706921e-10
1.119504375e-11
-8.638148913e-10
1.176535663e-11
-8.722495337e-10
1.235141656e-11
-8.810850656e-10
1.295384961e-11
-8.903322944e-10
1.357309516e-11
-9.00002284e-10
1.420942085e-11
-9.101058526e-10
1.486269948e-11
-9.206543423e-10
1.553364103e-11
-9.316605549e-10
1.622439574e-11
-9.431386114e-10
1.693697188e-11
-9.551036128e-10
1.767244476e-11
-9.675728678e-10
1.843270096e-11
-9.805622346e-10
1.921709348e-11
-9.940840953e-10
2.002302596e-11
-1.008152585e-09
2.085218921e-11
-1.022785322e-09
2.170917044e-11
-1.038001023e-09
2.259568813e-11
-1.053817871e-09
2.351103187e-11
-1.07025429e-09
2.445569918e-11
-1.087330016e-09
2.543172044e-11
-1.105066037e-09
2.644098215e-11
-1.12348475e-09
2.748595391e-11
-1.142610483e-09
2.856985097e-11
-1.162467805e-09
2.969330044e-11
-1.183082125e-09
3.085762795e-11
-1.20448032e-09
3.20651564e-11
-1.22668953e-09
3.331649781e-11
-1.249735957e-09
3.461021987e-11
-1.273649513e-09
3.595205898e-11
-1.298465234e-09
3.735004346e-11
-1.324222154e-09
3.880752699e-11
-1.350956256e-09
4.032405747e-11
-1.378698192e-09
4.189961361e-11
-1.407483763e-09
4.353801551e-11
-1.437354373e-09
4.524174421e-11
-1.468353649e-09
4.701597008e-11
-1.500526916e-09
4.886493112e-11
-1.533916873e-09
5.078572191e-11
-1.568570095e-09
5.278488321e-11
-1.604541928e-09
5.487746518e-11
-1.641890535e-09
5.706809704e-11
-1.680676938e-09
5.936001957e-11
-1.720970671e-09
6.176311447e-11
-1.762841648e-09
6.428047587e-11
-1.806350362e-09
6.690599769e-11
-1.851553051e-09
6.963643332e-11
-1.898527064e-09
7.249970651e-11
-1.947364577e-09
7.551869276e-11
-1.998154667e-09
7.869153186e-11
-2.050987504e-09
8.202199715e-11
-2.105961559e-09
8.552079866e-11
-2.163188824e-09
8.920139907e-11
-2.222790718e-09
9.308670902e-11
-2.284884208e-09
9.718850111e-11
-2.349590436e-09
1.015080475e-10
-2.417047838e-09
1.060665721e-10
-2.487400972e-09
1.108791251e-10
-2.560807698e-09
1.15966165e-10
-2.637471775e-09
1.213843386e-10
-2.717599198e-09
1.271517263e-10
-2.801373026e-09
1.332627093e-10
-2.888998e-09
1.39748002e-10
-2.980730056e-09
1.46679716e-10