/*--------------------------------*- C++ -*----------------------------------*\
| =========                 |                                                 |
| \\      /  F ield         | OpenFOAM: The Open Source CFD Toolbox           |
|  \\    /   O peration     | Version:  v2006                                 |
|   \\  /    A nd           | Website:  www.openfoam.com                      |
|    \\/     M anipulation  |                                                 |
\*---------------------------------------------------------------------------*/
FoamFile
{
    version     2.0;
    format      ascii;
    class       volScalarField;
    location    "0.09";
    object      rho;
}
// * * * * * * * * * * * * * * * * * * * * * * * * * * * * * * * * * * * * * //

dimensions      [1 -3 0 0 0 0 0];


internalField   nonuniform List<scalar> 
72000
(
0.8679437564
0.8679648539
0.8679939881
0.8680248897
0.8680527164
0.8680752743
0.8680914598
0.8681011104
0.8681043538
0.8681016188
0.8680935791
0.8680812287
0.8680650089
0.8680450537
0.8680217623
0.8679957043
0.8679674474
0.8679374762
0.8679061744
0.8678738144
0.8678406088
0.8678068597
0.8677729509
0.8677392057
0.8677058614
0.8676730937
0.8676410285
0.8676097454
0.8675792778
0.8675496199
0.8675207472
0.8674926585
0.8674654234
0.8674391803
0.8674140962
0.8673903374
0.8673680571
0.8673473901
0.8673284468
0.8673113008
0.8672959751
0.8672824391
0.867270618
0.86726041
0.8672517022
0.8672443788
0.8672383214
0.8672334065
0.8672295071
0.867226516
0.8672244713
0.8672232274
0.8672225444
0.8672224721
0.867223296
0.8672256756
0.8672277794
0.8672307355
0.8672345904
0.8672393516
0.8672450086
0.8672515331
0.8672588717
0.8672669337
0.8672755791
0.8672846773
0.8672941642
0.8673039969
0.8673141035
0.8673244168
0.8673349074
0.8673455629
0.8673563656
0.8673672862
0.8673782886
0.8673893389
0.8674004139
0.8674114976
0.8674225717
0.8674336098
0.8674445763
0.8674554271
0.8674661119
0.8674765749
0.8674867564
0.8674965937
0.8675060234
0.8675149837
0.8675234171
0.8675312702
0.8675385082
0.8675450862
0.8675509696
0.8675561248
0.8675605175
0.8675641103
0.8675668612
0.8675687136
0.8675696208
0.8675695059
0.8675682984
0.8675659195
0.8675622862
0.8675573113
0.8675509095
0.8675430182
0.8675336113
0.8675226697
0.8675101647
0.8674960567
0.8674802959
0.8674628251
0.8674435802
0.8674224923
0.8673994888
0.8673744946
0.8673474319
0.8673182209
0.8672867794
0.8672530228
0.8672168657
0.8671782285
0.8671370724
0.8670935629
0.867047617
0.8669991823
0.8669483951
0.8668948605
0.8668384352
0.8667790281
0.8667165586
0.8666509497
0.8665821237
0.8665099997
0.8664344924
0.8663555122
0.866272964
0.8661867456
0.8660967457
0.8660028665
0.865905024
0.865803144
0.8656971378
0.8655868822
0.8654718266
0.865351822
0.8652272912
0.8650981625
0.8649643367
0.8648257135
0.8646821877
0.8645336443
0.8643799657
0.8642210353
0.8640567369
0.8638869536
0.8637115666
0.8635304546
0.8633434931
0.8631505547
0.8629515082
0.8627462199
0.8625345544
0.8623163761
0.862091552
0.8618599506
0.8616214363
0.8613758659
0.8611230854
0.8608629372
0.860595257
0.8603198795
0.8600366263
0.8597453221
0.8594457941
0.8591378546
0.8588213189
0.858496005
0.8581617945
0.8578188847
0.8574671513
0.8571059963
0.856738295
0.8563635827
0.8559787861
0.8555835882
0.8551778287
0.85476134
0.8543339307
0.8538953893
0.8534454894
0.8529839921
0.8525106471
0.852025193
0.8515273556
0.8510168529
0.8504934047
0.8499567325
0.8494065589
0.8488425913
0.8482645193
0.8476719968
0.8470645696
0.8464400987
0.8457997678
0.8451435029
0.8444710122
0.8437820784
0.8430768578
0.842356265
0.8416188062
0.8408636813
0.8400900012
0.839297212
0.8384847868
0.8376521723
0.8367987466
0.8359236244
0.8350264991
0.8341069779
0.8331645181
0.8321984953
0.8312083077
0.8301933736
0.8291530978
0.8280868495
0.8269939674
0.8258737828
0.8247260724
0.8235509108
0.82234598
0.8211100016
0.819842093
0.8185414942
0.8172070593
0.8158377003
0.8144336182
0.8129924028
0.811530022
0.8100337832
0.8084966088
0.8069172411
0.8052945596
0.8036276071
0.8019156959
0.8001599464
0.7983556734
0.7965005479
0.794593873
0.7926337082
0.7906167574
0.7885407911
0.7864036628
0.7842031701
0.7819372088
0.7796042638
0.7772008284
0.7747247499
0.7721865092
0.769583653
0.7668990096
0.7641288024
0.7612692722
0.7583163801
0.7552664519
0.7521155462
0.7488593526
0.7454933886
0.7420111953
0.7384071636
0.7347082
0.7308791212
0.726913151
0.7228051481
0.7185545727
0.7141600153
0.7096159403
0.7049250838
0.7000981412
0.6950987257
0.689927126
0.6845892195
0.6790657715
0.6733907884
0.6675235934
0.6614722391
0.6552490751
0.6488874641
0.6423615046
0.6356831579
0.6288923118
0.6220896825
0.6152782134
0.6085226257
0.6019997333
0.5958015486
0.5900542695
0.5849333034
0.5808406057
0.5779147197
0.5761448549
0.5754740177
0.5728293969
0.5605549678
0.5232398384
0.4529232935
0.8357423185
0.8503436529
0.9435086841
0.9803396518
1.009226319
1.026746067
1.039924226
1.048601383
1.052386478
1.058364082
1.068502979
1.075230053
1.079285109
1.081887098
1.083746248
1.08514344
1.086226166
1.087079884
1.087759756
1.088304273
1.088741574
1.089093188
1.089376056
1.08960358
1.089786532
1.089933561
1.090051639
1.090146402
1.090222392
1.090283281
1.090332032
1.090371033
1.090402213
1.090427122
1.09044701
1.09046288
1.090475538
1.090485632
1.090493681
1.090500099
1.090505219
1.090509306
1.090512573
1.090515188
1.090517286
1.090518975
1.090520339
1.090521446
1.090522351
1.090523096
1.090523714
1.090524232
1.090524672
1.090525049
1.090525378
1.090525669
1.090525929
1.090526165
1.090526382
1.090526585
1.090526776
1.090526957
1.090527131
1.090527299
1.090527462
1.090527621
1.090527777
1.09052793
1.090528081
1.09052823
1.090528377
1.090528523
1.090528668
1.090528812
1.090528954
1.090529096
1.090529237
1.090529376
1.090529515
1.090529654
1.090529791
1.090529928
1.090530064
1.0905302
1.090530335
1.090530469
1.090530602
1.090530735
1.090530868
1.090531
1.090531131
1.090531261
1.090531391
1.090531521
1.09053165
1.090531778
1.090531906
1.090532033
1.090532159
1.090532286
1.090532411
1.090532536
1.09053266
1.090532784
1.090532908
1.09053303
1.090533153
1.090533274
1.090533396
1.090533516
1.090533636
1.090533756
1.090533875
1.090533993
1.090534111
1.090534228
1.090534345
1.090534461
1.090534577
1.090534692
1.090534806
1.09053492
1.090535034
1.090535146
1.090535259
1.09053537
1.090535481
1.090535592
1.090535702
1.090535811
1.09053592
1.090536028
1.090536135
1.090536242
1.090536348
1.090536454
1.090536559
1.090536664
1.090536767
1.09053687
1.090536973
1.090537075
1.090537176
1.090537276
1.090537376
1.090537475
1.090537574
1.090537672
1.090537769
1.090537865
1.090537961
1.090538056
1.090538151
1.090538244
1.090538337
1.090538429
1.090538521
1.090538612
1.090538702
1.090538791
1.09053888
1.090538968
1.090539055
1.090539141
1.090539227
1.090539311
1.090539396
1.090539479
1.090539561
1.090539643
1.090539724
1.090539804
1.090539884
1.090539963
1.09054004
1.090540118
1.090540194
1.090540269
1.090540344
1.090540418
1.090540491
1.090540563
1.090540635
1.090540705
1.090540775
1.090540844
1.090540912
1.090540979
1.090541046
1.090541112
1.090541177
1.090541241
1.090541304
1.090541366
1.090541428
1.090541488
1.090541548
1.090541607
1.090541666
1.090541723
1.09054178
1.090541836
1.090541891
1.090541945
1.090541998
1.090542051
1.090542103
1.090542154
1.090542204
1.090542253
1.090542302
1.090542349
1.090542396
1.090542443
1.090542488
1.090542533
1.090542577
1.09054262
1.090542662
1.090542704
1.090542744
1.090542785
1.090542824
1.090542862
1.0905429
1.090542937
1.090542974
1.09054301
1.090543045
1.090543079
1.090543112
1.090543145
1.090543178
1.090543209
1.09054324
1.09054327
1.0905433
1.090543329
1.090543357
1.090543385
1.090543412
1.090543438
1.090543464
1.090543489
1.090543514
1.090543538
1.090543561
1.090543584
1.090543606
1.090543628
1.090543649
1.09054367
1.09054369
1.09054371
1.090543729
1.090543748
1.090543766
1.090543784
1.090543801
1.090543818
1.090543834
1.09054385
1.090543866
1.090543881
1.090543895
1.09054391
1.090543923
1.090543937
1.09054395
1.090543963
1.090543975
1.090543987
1.090543999
1.09054401
1.090544021
1.090544032
1.090544042
1.090544052
1.090544062
1.090544072
1.090544081
1.09054409
1.090544099
1.090544108
1.090544116
1.090544124
1.090544132
1.09054414
1.090544147
1.090544155
1.090544162
1.09054417
1.090544177
1.090544185
0.7157828002
0.7158069638
0.715841715
0.7158781422
0.7159102725
0.7159350707
0.7159508296
0.715957624
0.7159553493
0.7159447142
0.7159265221
0.7159016012
0.7158706869
0.7158343811
0.7157932878
0.7157483131
0.7157003061
0.7156499657
0.7155978468
0.7155443157
0.7154893352
0.7154333229
0.7153771615
0.7153213209
0.7152661244
0.7152118164
0.7151585793
0.715106533
0.7150557323
0.7150061694
0.7149577973
0.7149105945
0.714864659
0.7148202017
0.7147774655
0.7147366834
0.7146980674
0.714661807
0.7146280613
0.7145969389
0.7145684703
0.7145426041
0.7145192222
0.7144981709
0.7144792873
0.7144624105
0.7144473796
0.7144340274
0.7144221705
0.7144115962
0.714403706
0.714398145
0.7143932817
0.7143892224
0.7143862077
0.7143844516
0.714384136
0.714385157
0.7143875026
0.7143911689
0.7143961406
0.7144023815
0.7144098244
0.7144183515
0.7144277397
0.7144374923
0.7144477879
0.714458635
0.7144699164
0.7144815195
0.7144934138
0.7145055937
0.7145180355
0.7145306936
0.7145435095
0.7145564288
0.7145694182
0.7145824583
0.714595526
0.7146085846
0.7146215838
0.7146344623
0.7146471499
0.7146595694
0.7146716373
0.7146832659
0.714694365
0.7147048465
0.7147146293
0.7147236295
0.7147318128
0.7147391042
0.7147454592
0.7147508308
0.7147551715
0.7147584301
0.7147605476
0.7147614539
0.7147610678
0.7147592937
0.7147560283
0.714751162
0.7147445793
0.7147361549
0.7147257576
0.7147132901
0.7146987324
0.7146820663
0.7146632519
0.7146422318
0.7146189351
0.7145932802
0.7145651766
0.7145345271
0.7145012305
0.7144651818
0.7144262736
0.7143843955
0.7143394339
0.7142912717
0.7142397871
0.7141848513
0.7141263196
0.7140646514
0.7139995877
0.7139307079
0.7138579729
0.713781302
0.7137006012
0.7136157667
0.7135266906
0.7134332682
0.7133353942
0.7132329583
0.7131258436
0.7130139281
0.7128970834
0.7127751715
0.7126480293
0.7125154161
0.7123773272
0.712233677
0.7120843577
0.7119292618
0.7117683253
0.7116014581
0.7114285037
0.7112492708
0.7110636152
0.7108714079
0.7106725144
0.7104667795
0.7102540479
0.7100341681
0.7098069905
0.7095723649
0.709330139
0.7090801576
0.7088222616
0.7085562883
0.7082820709
0.7079994394
0.7077082225
0.7074082494
0.7070993544
0.7067813772
0.7064541527
0.7061175035
0.7057712373
0.7054151592
0.7050490669
0.7046727595
0.7042860182
0.7038886298
0.7034803877
0.7030610623
0.7026304253
0.7021882366
0.7017354589
0.7012734162
0.700798945
0.7003112613
0.6998085469
0.6992906331
0.6987586691
0.698212835
0.6976530522
0.6970791491
0.6964909107
0.6958880966
0.6952704491
0.6946376969
0.6939895573
0.6933257353
0.6926459185
0.6919497854
0.691237026
0.6905073379
0.689760392
0.6889958959
0.6882135404
0.687412987
0.6865938943
0.6857560173
0.6848988263
0.6840218804
0.6831248154
0.6822072964
0.6812689948
0.6803095061
0.679328274
0.6783247884
0.6772985972
0.6762492713
0.6751762965
0.6740791324
0.6729572493
0.67181771
0.6706541652
0.6694645855
0.6682484396
0.6670050333
0.6657338199
0.6644343042
0.6631059787
0.6617482871
0.6603606459
0.6589422434
0.657492274
0.656010128
0.6544946849
0.6529449391
0.6513602719
0.6497409664
0.6480854416
0.6463918809
0.6446703489
0.6429101228
0.6411073037
0.6392615442
0.6373723908
0.6354389799
0.633460493
0.6314367702
0.6293663057
0.6272475302
0.6250787692
0.6228582467
0.620593099
0.6182816075
0.6159139257
0.6134886372
0.6110043781
0.6084595316
0.6058523469
0.603180083
0.6004419648
0.5976485797
0.5947950567
0.5918713395
0.5888740712
0.5858003866
0.582648157
0.5794140578
0.5761148697
0.5727357934
0.5692676999
0.5657085888
0.5620537692
0.5583114728
0.5544869519
0.5505587889
0.5465226085
0.5423665814
0.5381234659
0.5337710354
0.5292974664
0.5247055444
0.5200093355
0.5151894435
0.5102428278
0.5052071007
0.5000416274
0.4947727104
0.489390411
0.4839012554
0.4783332984
0.4726528756
0.4669156758
0.4611077619
0.4552794539
0.4494336834
0.443630989
0.4379179023
0.4323737809
0.4270743152
0.4221141355
0.4176532413
0.4137250911
0.4107139498
0.4086539939
0.4086312273
0.4137042604
0.4272543411
0.4528106912
0.5037383714
0.6588361341
0.7146433559
0.7884209462
0.8573303218
0.9187772254
0.9667432568
1.001735733
1.028607102
1.04209686
1.056255262
1.066739955
1.073777583
1.078580938
1.081663446
1.083518967
1.084946036
1.086064665
1.086951296
1.087658602
1.088225442
1.088680429
1.089045817
1.089339451
1.089575298
1.089764704
1.08991673
1.090038662
1.090136412
1.090214704
1.09027737
1.090327492
1.09036755
1.090399543
1.090425078
1.090445446
1.090461685
1.090474626
1.090484937
1.090493151
1.090499696
1.090504913
1.090509074
1.090512396
1.090515054
1.090517184
1.090518897
1.09052028
1.090521401
1.090522317
1.090523069
1.090523693
1.090524215
1.090524658
1.090525038
1.090525369
1.090525661
1.090525922
1.090526159
1.090526377
1.09052658
1.090526771
1.090526952
1.090527126
1.090527294
1.090527457
1.090527616
1.090527772
1.090527926
1.090528077
1.090528226
1.090528373
1.090528519
1.090528664
1.090528808
1.09052895
1.090529092
1.090529233
1.090529372
1.090529511
1.09052965
1.090529787
1.090529924
1.09053006
1.090530196
1.090530331
1.090530465
1.090530599
1.090530732
1.090530864
1.090530996
1.090531127
1.090531257
1.090531387
1.090531517
1.090531646
1.090531774
1.090531902
1.090532029
1.090532156
1.090532282
1.090532407
1.090532532
1.090532657
1.09053278
1.090532904
1.090533027
1.090533149
1.090533271
1.090533392
1.090533512
1.090533632
1.090533752
1.090533871
1.090533989
1.090534107
1.090534224
1.090534341
1.090534457
1.090534573
1.090534688
1.090534802
1.090534916
1.09053503
1.090535142
1.090535255
1.090535366
1.090535477
1.090535588
1.090535698
1.090535807
1.090535916
1.090536024
1.090536131
1.090536238
1.090536344
1.09053645
1.090536555
1.090536659
1.090536763
1.090536866
1.090536969
1.09053707
1.090537172
1.090537272
1.090537372
1.090537471
1.09053757
1.090537667
1.090537765
1.090537861
1.090537957
1.090538052
1.090538146
1.09053824
1.090538333
1.090538425
1.090538517
1.090538607
1.090538697
1.090538787
1.090538875
1.090538963
1.09053905
1.090539137
1.090539222
1.090539307
1.090539391
1.090539474
1.090539557
1.090539639
1.09053972
1.0905398
1.090539879
1.090539958
1.090540036
1.090540113
1.090540189
1.090540265
1.090540339
1.090540413
1.090540486
1.090540559
1.09054063
1.090540701
1.090540771
1.09054084
1.090540908
1.090540975
1.090541042
1.090541107
1.090541172
1.090541236
1.090541299
1.090541362
1.090541423
1.090541484
1.090541544
1.090541603
1.090541661
1.090541719
1.090541775
1.090541831
1.090541886
1.090541941
1.090541994
1.090542047
1.090542098
1.090542149
1.0905422
1.090542249
1.090542298
1.090542345
1.090542392
1.090542439
1.090542484
1.090542529
1.090542573
1.090542616
1.090542658
1.0905427
1.090542741
1.090542781
1.09054282
1.090542859
1.090542897
1.090542934
1.09054297
1.090543006
1.090543041
1.090543075
1.090543109
1.090543142
1.090543174
1.090543206
1.090543237
1.090543267
1.090543296
1.090543325
1.090543354
1.090543381
1.090543408
1.090543435
1.090543461
1.090543486
1.090543511
1.090543535
1.090543558
1.090543581
1.090543603
1.090543625
1.090543647
1.090543667
1.090543688
1.090543707
1.090543727
1.090543745
1.090543764
1.090543781
1.090543799
1.090543816
1.090543832
1.090543848
1.090543864
1.090543879
1.090543893
1.090543908
1.090543922
1.090543935
1.090543948
1.090543961
1.090543973
1.090543986
1.090543997
1.090544009
1.09054402
1.090544031
1.090544041
1.090544051
1.090544061
1.090544071
1.09054408
1.090544089
1.090544098
1.090544107
1.090544115
1.090544123
1.090544131
1.090544139
1.090544147
1.090544155
1.090544162
1.090544169
1.090544177
1.090544186
0.6232078695
0.6232265973
0.6232546189
0.6232835854
0.6233079941
0.6233247553
0.6233322329
0.6233301037
0.62331852
0.6232981399
0.6232697988
0.6232343577
0.6231925999
0.6231450852
0.6230918043
0.6230344082
0.6229738773
0.6229109632
0.6228462999
0.6227804405
0.6227156655
0.6226524631
0.6225893817
0.622526772
0.6224649331
0.6224041148
0.6223445126
0.6222862597
0.6222294162
0.6221739619
0.6221198033
0.6220668456
0.6220151915
0.6219651191
0.6219169146
0.6218708342
0.621827107
0.6217859441
0.6217475357
0.6217120213
0.6216794383
0.6216497193
0.6216227134
0.6215982337
0.6215760956
0.6215561264
0.6215381597
0.6215220245
0.6215075341
0.6214944684
0.6214825242
0.6214714454
0.6214607997
0.6214508243
0.6214419685
0.6214344266
0.6214282973
0.6214236147
0.621420395
0.6214186423
0.6214183462
0.621419477
0.6214219802
0.6214257721
0.6214307394
0.6214390827
0.6214486348
0.6214588688
0.6214695884
0.6214806115
0.6214919463
0.6215036179
0.6215156037
0.6215278471
0.6215402713
0.6215528024
0.6215654068
0.6215780756
0.6215907903
0.621603513
0.621616189
0.6216287523
0.6216411284
0.6216532351
0.621664983
0.621676277
0.6216870169
0.6216971042
0.6217064469
0.621714963
0.6217226
0.6217292901
0.6217349831
0.6217396308
0.6217431849
0.6217455931
0.6217467956
0.6217467197
0.6217452771
0.6217423642
0.6217378686
0.6217316735
0.6217236581
0.6217136866
0.6217015652
0.6216870693
0.6216703414
0.6216513796
0.6216301379
0.6216065512
0.6215805414
0.6215520189
0.6215208845
0.6214870325
0.6214503535
0.6214107352
0.6213680631
0.6213222199
0.6212730851
0.6212205348
0.6211644399
0.6211046644
0.6210410576
0.6209734236
0.620901701
0.6208258751
0.6207458763
0.6206616544
0.6205731335
0.6204802042
0.6203827463
0.6202806511
0.6201738096
0.6200621045
0.6199454118
0.6198236017
0.6196965415
0.6195640954
0.6194261255
0.61928399
0.619136068
0.6189822245
0.6188223335
0.6186562685
0.6184839024
0.6183054829
0.61812145
0.6179307399
0.6177332202
0.6175287798
0.6173173073
0.6170986032
0.6168725037
0.6166388544
0.6163975024
0.6161482944
0.6158910745
0.6156256839
0.6153519599
0.6150697353
0.6147788395
0.6144790983
0.6141703363
0.6138523783
0.6135250571
0.6131882157
0.6128416945
0.6124853127
0.6121188701
0.6117421708
0.6113550095
0.6109571885
0.6105484872
0.6101286945
0.6096976029
0.6092549834
0.6088006047
0.6083342223
0.607855577
0.6073643674
0.6068602293
0.6063427013
0.6058112779
0.6052657304
0.6047060668
0.6041322358
0.6035441064
0.6029414973
0.6023241963
0.6016919714
0.601044576
0.6003817523
0.5997032331
0.5990087468
0.5982979877
0.5975706353
0.5968264014
0.5960650324
0.5952906183
0.5945002993
0.5936920985
0.5928656976
0.5920207621
0.591156941
0.5902738327
0.589370954
0.5884480417
0.5875047854
0.5865408109
0.5855556771
0.5845488205
0.583519863
0.5824685967
0.5813946692
0.5802975718
0.5791768059
0.5780319
0.5768624506
0.5756678854
0.5744515622
0.5732141615
0.5719503157
0.5706596189
0.569341707
0.5679961877
0.5666225765
0.5652208614
0.5637898857
0.5623285743
0.5608381617
0.5593164662
0.5577620713
0.5561741712
0.5545600344
0.5529145422
0.5512332565
0.549515277
0.547759744
0.5459658814
0.5441329702
0.5422602331
0.5403468113
0.5383917309
0.536403662
0.5343761822
0.5323044437
0.5301874952
0.5280238911
0.5258117291
0.5235498077
0.5212377122
0.5188906009
0.51649198
0.5140396935
0.5115324953
0.5089699418
0.5063503744
0.5036852878
0.5009645477
0.4981817851
0.4953355609
0.492422947
0.4894545651
0.4864244414
0.4833206201
0.4801490819
0.4769064475
0.473600996
0.4702145844
0.4667463139
0.4632096093
0.4595976455
0.4558984946
0.4521210024
0.4482644741
0.4443148135
0.4402845158
0.4361664927
0.431951345
0.4276565064
0.4232506266
0.4187807081
0.4142174315
0.4095729843
0.4048566645
0.4000732101
0.3952360807
0.3903244226
0.3853877553
0.380419221
0.3754497079
0.3704778268
0.3655450936
0.3606897603
0.3559484184
0.3513550921
0.3469882491
0.3428371881
0.3391246377
0.3357267251
0.3334503627
0.3342612023
0.3429864594
0.3627879728
0.3969461853
0.4516660251
0.5275570614
0.5912150054
0.6623627475
0.7236291087
0.8009456047
0.8743376984
0.932728134
0.9829249138
1.013469644
1.035176499
1.051926971
1.063485207
1.071590465
1.077278399
1.081328723
1.083686579
1.085073795
1.086171708
1.087043978
1.087740742
1.088297866
1.088743668
1.089100889
1.089386847
1.08961586
1.089799215
1.089945866
1.090063196
1.09015695
1.090231832
1.090291614
1.090339294
1.090377305
1.090407588
1.090431699
1.090450887
1.090466151
1.090478289
1.090487941
1.090495616
1.090501719
1.090506577
1.090510445
1.09051353
1.090515996
1.090517971
1.090519558
1.090520839
1.090521879
1.090522729
1.090523428
1.09052401
1.090524498
1.090524914
1.090525272
1.090525585
1.090525863
1.090526112
1.09052634
1.09052655
1.090526747
1.090526933
1.090527111
1.090527281
1.090527446
1.090527607
1.090527764
1.090527918
1.09052807
1.09052822
1.090528368
1.090528514
1.090528659
1.090528803
1.090528945
1.090529087
1.090529228
1.090529368
1.090529507
1.090529645
1.090529783
1.09052992
1.090530056
1.090530191
1.090530326
1.09053046
1.090530594
1.090530727
1.090530859
1.090530991
1.090531122
1.090531253
1.090531383
1.090531512
1.090531641
1.09053177
1.090531897
1.090532025
1.090532151
1.090532277
1.090532403
1.090532528
1.090532652
1.090532776
1.090532899
1.090533022
1.090533144
1.090533266
1.090533387
1.090533508
1.090533628
1.090533747
1.090533866
1.090533984
1.090534102
1.09053422
1.090534336
1.090534452
1.090534568
1.090534683
1.090534798
1.090534911
1.090535025
1.090535138
1.09053525
1.090535361
1.090535472
1.090535583
1.090535693
1.090535802
1.090535911
1.090536019
1.090536126
1.090536233
1.090536339
1.090536445
1.09053655
1.090536654
1.090536758
1.090536861
1.090536964
1.090537065
1.090537167
1.090537267
1.090537367
1.090537466
1.090537565
1.090537662
1.090537759
1.090537856
1.090537952
1.090538047
1.090538141
1.090538235
1.090538328
1.09053842
1.090538511
1.090538602
1.090538692
1.090538781
1.09053887
1.090538958
1.090539045
1.090539131
1.090539217
1.090539302
1.090539386
1.090539469
1.090539552
1.090539633
1.090539714
1.090539795
1.090539874
1.090539953
1.090540031
1.090540108
1.090540184
1.09054026
1.090540334
1.090540408
1.090540481
1.090540553
1.090540625
1.090540696
1.090540765
1.090540834
1.090540902
1.09054097
1.090541036
1.090541102
1.090541167
1.090541231
1.090541294
1.090541357
1.090541418
1.090541479
1.090541539
1.090541598
1.090541656
1.090541714
1.09054177
1.090541826
1.090541881
1.090541936
1.090541989
1.090542042
1.090542093
1.090542144
1.090542195
1.090542244
1.090542293
1.090542341
1.090542388
1.090542434
1.090542479
1.090542524
1.090542568
1.090542611
1.090542654
1.090542695
1.090542736
1.090542776
1.090542816
1.090542854
1.090542892
1.090542929
1.090542966
1.090543002
1.090543037
1.090543071
1.090543105
1.090543138
1.09054317
1.090543202
1.090543233
1.090543263
1.090543293
1.090543322
1.09054335
1.090543378
1.090543405
1.090543431
1.090543457
1.090543482
1.090543507
1.090543531
1.090543555
1.090543578
1.0905436
1.090543622
1.090543644
1.090543664
1.090543685
1.090543704
1.090543724
1.090543743
1.090543761
1.090543779
1.090543796
1.090543813
1.09054383
1.090543846
1.090543861
1.090543876
1.090543891
1.090543905
1.090543919
1.090543933
1.090543946
1.090543959
1.090543972
1.090543984
1.090543996
1.090544007
1.090544018
1.090544029
1.09054404
1.09054405
1.09054406
1.09054407
1.090544079
1.090544088
1.090544097
1.090544106
1.090544114
1.090544123
1.090544131
1.090544139
1.090544147
1.090544154
1.090544162
1.090544169
1.090544177
1.090544186
0.5598617669
0.5598732317
0.559890363
0.5599070544
0.5599188292
0.5599231962
0.5599186707
0.5599048674
0.5598819954
0.5598507041
0.5598118124
0.5597661546
0.5597145618
0.5596579049
0.5595994361
0.5595374285
0.559472599
0.5594056065
0.5593370636
0.5592675647
0.559197769
0.5591280907
0.5590587121
0.558989912
0.5589219664
0.558855122
0.558789582
0.5587254935
0.5586629324
0.558601884
0.5585422045
0.5584834893
0.558425867
0.5583698612
0.5583157842
0.5582638849
0.5582143864
0.5581675085
0.5581234799
0.5580824961
0.5580446014
0.5580097066
0.5579776108
0.5579480848
0.5579209285
0.5578959727
0.5578730626
0.5578520439
0.5578327546
0.5578150253
0.5577986928
0.557783642
0.5577714594
0.5577614509
0.5577526925
0.5577452634
0.5577392313
0.5577346411
0.5577315198
0.557729879
0.5577297147
0.5577310057
0.5577337093
0.5577377606
0.5577430891
0.5577496837
0.5577572905
0.557765677
0.5577745661
0.5577833742
0.5577924714
0.5578019737
0.5578118496
0.5578220284
0.557832409
0.5578428782
0.5578534098
0.5578640224
0.5578747071
0.5578854257
0.5578961219
0.5579067299
0.5579171772
0.5579273847
0.5579372636
0.5579467196
0.5579556464
0.5579639403
0.5579714947
0.5579782466
0.5579841201
0.557989059
0.557993014
0.5579959391
0.5579977893
0.5579985175
0.5579980698
0.5579963779
0.5579933533
0.5579888887
0.5579828682
0.5579751761
0.5579657025
0.557954345
0.5579413034
0.5579275579
0.5579116619
0.5578935574
0.557873181
0.557850463
0.5578253251
0.557797676
0.5577674142
0.5577344323
0.5576986203
0.5576598664
0.5576180565
0.5575730744
0.5575248011
0.5574731139
0.5574178858
0.5573589871
0.5572962916
0.557229692
0.5571591069
0.557084428
0.5570054293
0.5569222095
0.5568347123
0.5567428156
0.5566463823
0.5565453155
0.5564395145
0.5563288644
0.556213241
0.5560925155
0.5559665574
0.5558352375
0.5556984323
0.5555560384
0.5554078965
0.5552538697
0.5550938269
0.5549276366
0.5547551629
0.554576255
0.5543907603
0.5541985616
0.5539995239
0.5537938926
0.5535822793
0.5533634475
0.5531372535
0.5529035515
0.5526621945
0.5524130337
0.5521559179
0.5518906926
0.5516171988
0.5513352729
0.551044748
0.5507454532
0.5504372164
0.5501198642
0.549793233
0.5494571777
0.5491115915
0.5487562734
0.5483910072
0.548015606
0.5476298707
0.5472336134
0.5468266246
0.5464087031
0.545979645
0.5455392337
0.5450872469
0.5446234521
0.5441476042
0.5436594347
0.5431586498
0.5426449347
0.5421179874
0.5415775889
0.5410235935
0.5404558579
0.5398742162
0.5392784793
0.5386684405
0.5380438792
0.5374045643
0.5367502554
0.5360807042
0.535399264
0.5347035168
0.5339917114
0.5332635702
0.5325189536
0.5317576389
0.5309793561
0.5301838222
0.5293707428
0.5285398016
0.5276906731
0.5268230309
0.5259376683
0.5250333611
0.5241095547
0.5231658747
0.5222019261
0.5212173166
0.5202117452
0.51918514
0.5181440568
0.5170814345
0.5159964384
0.514888613
0.5137575122
0.5126026679
0.5114235755
0.5102198005
0.5089910126
0.5077368734
0.506457194
0.5051519175
0.5038199541
0.5024677385
0.5010898271
0.4996834099
0.4982477953
0.4967824081
0.4952865906
0.4937595031
0.4921999702
0.4906075969
0.4889819393
0.487332842
0.4856498753
0.4839318931
0.4821782597
0.4803881098
0.478560722
0.4766952118
0.4747931043
0.4728614889
0.4708896639
0.4688772762
0.46682284
0.4647250244
0.4625827887
0.4604084551
0.4581904004
0.4559258632
0.4536135046
0.4512518805
0.4488490085
0.4464003141
0.4438990826
0.4413441495
0.4387355696
0.4360894491
0.4333886894
0.4306283935
0.4278115676
0.4249475813
0.4220179902
0.4190206375
0.4159696714
0.4128536378
0.4096660575
0.406421391
0.4031067681
0.3997301027
0.3963036908
0.3927975733
0.3892247496
0.3855760225
0.3818601484
0.3780889218
0.3742432809
0.3703185732
0.3663345677
0.362285611
0.3581736497
0.3540077474
0.3497840306
0.3455205442
0.3412223491
0.3368922944
0.3325513424
0.328201765
0.323853246
0.3195374714
0.3152532885
0.3110345677
0.306893451
0.3028467943
0.2988712805
0.294994172
0.2913163156
0.2885333212
0.2883266573
0.2945441453
0.3096906958
0.3364193253
0.3735397286
0.4212604851
0.4725728471
0.5320690538
0.5968422068
0.6649997884
0.7257479552
0.8084996017
0.8759006611
0.9381337568
0.980228847
1.009766745
1.033345607
1.050413037
1.062433368
1.070981308
1.07700182
1.081267343
1.084119346
1.085418013
1.086456066
1.087279136
1.087935367
1.088459471
1.088877376
1.089211292
1.089478171
1.089691011
1.089861079
1.089996732
1.090104871
1.090191107
1.090259764
1.090314421
1.090357908
1.090392475
1.090419944
1.090441759
1.090459076
1.090472819
1.090483724
1.090492376
1.090499241
1.090504692
1.090509021
1.090512465
1.090515209
1.090517399
1.090519154
1.090520564
1.090521704
1.09052263
1.090523389
1.090524016
1.090524539
1.090524981
1.09052536
1.090525688
1.090525977
1.090526235
1.090526469
1.090526684
1.090526884
1.090527072
1.090527251
1.090527423
1.090527589
1.090527749
1.090527906
1.09052806
1.090528211
1.090528361
1.090528508
1.090528653
1.090528798
1.090528941
1.090529083
1.090529224
1.090529364
1.090529503
1.090529642
1.090529779
1.090529916
1.090530052
1.090530188
1.090530323
1.090530457
1.09053059
1.090530723
1.090530856
1.090530988
1.090531119
1.090531249
1.090531379
1.090531509
1.090531638
1.090531766
1.090531894
1.090532021
1.090532147
1.090532273
1.090532399
1.090532524
1.090532648
1.090532772
1.090532895
1.090533018
1.09053314
1.090533262
1.090533383
1.090533504
1.090533624
1.090533743
1.090533862
1.090533981
1.090534098
1.090534216
1.090534332
1.090534448
1.090534564
1.090534679
1.090534794
1.090534907
1.090535021
1.090535134
1.090535246
1.090535357
1.090535468
1.090535579
1.090535689
1.090535798
1.090535907
1.090536015
1.090536122
1.090536229
1.090536335
1.090536441
1.090536546
1.09053665
1.090536754
1.090536857
1.090536959
1.090537061
1.090537162
1.090537263
1.090537363
1.090537462
1.09053756
1.090537658
1.090537755
1.090537852
1.090537947
1.090538042
1.090538137
1.09053823
1.090538323
1.090538416
1.090538507
1.090538598
1.090538688
1.090538777
1.090538866
1.090538954
1.090539041
1.090539127
1.090539213
1.090539297
1.090539382
1.090539465
1.090539547
1.090539629
1.09053971
1.09053979
1.09053987
1.090539949
1.090540026
1.090540104
1.09054018
1.090540255
1.09054033
1.090540404
1.090540477
1.090540549
1.090540621
1.090540691
1.090540761
1.09054083
1.090540898
1.090540966
1.090541032
1.090541098
1.090541163
1.090541227
1.09054129
1.090541353
1.090541414
1.090541475
1.090541535
1.090541594
1.090541652
1.09054171
1.090541767
1.090541822
1.090541877
1.090541932
1.090541985
1.090542038
1.09054209
1.090542141
1.090542191
1.09054224
1.090542289
1.090542337
1.090542384
1.09054243
1.090542476
1.09054252
1.090542564
1.090542608
1.09054265
1.090542692
1.090542733
1.090542773
1.090542812
1.090542851
1.090542889
1.090542926
1.090542963
1.090542998
1.090543034
1.090543068
1.090543102
1.090543135
1.090543167
1.090543199
1.09054323
1.09054326
1.09054329
1.090543319
1.090543347
1.090543375