/*--------------------------------*- C++ -*----------------------------------*\
| =========                 |                                                 |
| \\      /  F ield         | OpenFOAM: The Open Source CFD Toolbox           |
|  \\    /   O peration     | Version:  v2006                                 |
|   \\  /    A nd           | Website:  www.openfoam.com                      |
|    \\/     M anipulation  |                                                 |
\*---------------------------------------------------------------------------*/
FoamFile
{
    version     2.0;
    format      ascii;
    class       volScalarField;
    location    "0.09";
    object      rho_0;
}
// * * * * * * * * * * * * * * * * * * * * * * * * * * * * * * * * * * * * * //

dimensions      [1 -3 0 0 0 0 0];


internalField   nonuniform List<scalar> 
72000
(
0.8679437563
0.8679648538
0.8679939881
0.8680248896
0.8680527162
0.8680752741
0.8680914596
0.8681011102
0.8681043536
0.8681016186
0.8680935789
0.8680812285
0.8680650087
0.8680450534
0.8680217621
0.8679957041
0.8679674472
0.867937476
0.8679061743
0.8678738142
0.8678406086
0.8678068595
0.8677729507
0.8677392055
0.8677058613
0.8676730935
0.8676410283
0.8676097452
0.8675792777
0.8675496198
0.867520747
0.8674926583
0.8674654233
0.8674391802
0.8674140961
0.8673903373
0.867368057
0.86734739
0.8673284467
0.8673113007
0.867295975
0.867282439
0.8672706179
0.8672604099
0.8672517022
0.8672443788
0.8672383213
0.8672334065
0.867229507
0.8672265159
0.8672244713
0.8672232274
0.8672225443
0.8672224721
0.8672232959
0.8672256755
0.8672277793
0.8672307354
0.8672345903
0.8672393514
0.8672450085
0.867251533
0.8672588716
0.8672669335
0.867275579
0.8672846771
0.8672941641
0.8673039968
0.8673141034
0.8673244168
0.8673349073
0.8673455629
0.8673563656
0.8673672862
0.8673782886
0.8673893389
0.8674004139
0.8674114976
0.8674225717
0.8674336098
0.8674445763
0.8674554271
0.8674661119
0.8674765749
0.8674867563
0.8674965936
0.8675060233
0.8675149836
0.867523417
0.8675312701
0.8675385081
0.8675450861
0.8675509695
0.8675561247
0.8675605174
0.8675641102
0.8675668611
0.8675687135
0.8675696207
0.8675695059
0.8675682983
0.8675659194
0.8675622861
0.8675573112
0.8675509094
0.8675430182
0.8675336112
0.8675226696
0.8675101647
0.8674960566
0.8674802959
0.8674628251
0.8674435802
0.8674224923
0.8673994889
0.8673744946
0.8673474319
0.8673182209
0.8672867794
0.8672530229
0.8672168658
0.8671782286
0.8671370725
0.867093563
0.8670476171
0.8669991824
0.8669483951
0.8668948606
0.8668384353
0.8667790282
0.8667165587
0.8666509497
0.8665821237
0.8665099997
0.8664344924
0.8663555122
0.866272964
0.8661867455
0.8660967456
0.8660028664
0.8659050239
0.8658031439
0.8656971377
0.8655868821
0.8654718265
0.8653518219
0.8652272911
0.8650981624
0.8649643366
0.8648257134
0.8646821876
0.8645336442
0.8643799656
0.8642210352
0.8640567368
0.8638869535
0.8637115664
0.8635304544
0.863343493
0.8631505545
0.862951508
0.8627462197
0.8625345542
0.8623163759
0.8620915518
0.8618599504
0.8616214361
0.8613758656
0.8611230851
0.8608629369
0.8605952567
0.8603198792
0.860036626
0.8597453218
0.8594457938
0.8591378543
0.8588213186
0.8584960048
0.8581617943
0.8578188845
0.857467151
0.8571059961
0.8567382948
0.8563635825
0.855978786
0.8555835882
0.8551778287
0.85476134
0.8543339307
0.8538953894
0.8534454896
0.8529839923
0.8525106474
0.8520251934
0.851527356
0.8510168534
0.8504934052
0.8499567331
0.8494065596
0.8488425921
0.8482645201
0.8476719977
0.8470645706
0.8464400997
0.8457997689
0.8451435041
0.8444710134
0.8437820798
0.8430768592
0.8423562664
0.8416188076
0.8408636828
0.8400900026
0.8392972134
0.8384847882
0.8376521737
0.8367987479
0.8359236257
0.8350265003
0.834106979
0.8331645191
0.8321984962
0.8312083084
0.8301933741
0.8291530982
0.8280868497
0.8269939673
0.8258737825
0.8247260718
0.8235509099
0.8223459789
0.8211100002
0.8198420913
0.8185414921
0.8172070569
0.8158376974
0.814433615
0.8129923993
0.8115300182
0.810033779
0.8084966043
0.8069172363
0.8052945545
0.8036276019
0.8019156905
0.8001599409
0.7983556678
0.7965005423
0.7945938675
0.792633703
0.7906167524
0.7885407865
0.7864036586
0.7842031664
0.7819372058
0.7796042616
0.777200827
0.7747247495
0.7721865098
0.7695836547
0.7668990125
0.7641288066
0.7612692777
0.758316387
0.7552664602
0.7521155559
0.7488593636
0.745493401
0.7420112089
0.7384071785
0.7347082159
0.730879138
0.7269131686
0.7228051663
0.7185545913
0.7141600342
0.7096159593
0.7049251024
0.7000981594
0.6950987434
0.6899271429
0.6845892354
0.6790657862
0.6733908015
0.6675236052
0.6614722496
0.6552490846
0.6488874721
0.6423615115
0.6356831646
0.6288923189
0.6220896919
0.6152782248
0.6085226421
0.6019997563
0.5958015814
0.5900543147
0.5849333649
0.5808406906
0.57791483
0.5761450124
0.5754742355
0.572829726
0.5605552813
0.5232399358
0.4529232341
0.8357432295
0.850343709
0.9435091189
0.9803401296
1.009226611
1.026746278
1.039924354
1.048601448
1.052386505
1.058364199
1.068503054
1.075230098
1.079285134
1.081887114
1.083746259
1.085143447
1.086226171
1.087079888
1.087759759
1.088304274
1.088741576
1.089093189
1.089376056
1.089603581
1.089786532
1.089933561
1.090051639
1.090146402
1.090222392
1.090283281
1.090332031
1.090371033
1.090402213
1.090427122
1.09044701
1.09046288
1.090475538
1.090485632
1.090493681
1.090500099
1.090505219
1.090509306
1.090512573
1.090515188
1.090517286
1.090518975
1.090520339
1.090521447
1.090522351
1.090523096
1.090523714
1.090524232
1.090524672
1.090525049
1.090525378
1.090525669
1.090525929
1.090526165
1.090526382
1.090526585
1.090526776
1.090526957
1.090527131
1.090527299
1.090527462
1.090527621
1.090527777
1.09052793
1.090528081
1.09052823
1.090528377
1.090528523
1.090528668
1.090528812
1.090528954
1.090529096
1.090529236
1.090529376
1.090529515
1.090529654
1.090529791
1.090529928
1.090530064
1.0905302
1.090530335
1.090530469
1.090530602
1.090530735
1.090530868
1.090531
1.090531131
1.090531261
1.090531391
1.090531521
1.09053165
1.090531778
1.090531906
1.090532033
1.09053216
1.090532286
1.090532411
1.090532536
1.090532661
1.090532784
1.090532908
1.090533031
1.090533153
1.090533275
1.090533396
1.090533516
1.090533636
1.090533756
1.090533875
1.090533993
1.090534111
1.090534228
1.090534345
1.090534461
1.090534577
1.090534692
1.090534806
1.09053492
1.090535034
1.090535146
1.090535259
1.09053537
1.090535481
1.090535592
1.090535702
1.090535811
1.09053592
1.090536028
1.090536135
1.090536242
1.090536349
1.090536454
1.090536559
1.090536664
1.090536767
1.09053687
1.090536973
1.090537075
1.090537176
1.090537276
1.090537376
1.090537475
1.090537574
1.090537672
1.090537769
1.090537865
1.090537961
1.090538056
1.090538151
1.090538244
1.090538337
1.090538429
1.090538521
1.090538612
1.090538702
1.090538791
1.09053888
1.090538968
1.090539055
1.090539141
1.090539227
1.090539312
1.090539396
1.090539479
1.090539561
1.090539643
1.090539724
1.090539805
1.090539884
1.090539963
1.090540041
1.090540118
1.090540194
1.090540269
1.090540344
1.090540418
1.090540491
1.090540563
1.090540635
1.090540705
1.090540775
1.090540844
1.090540912
1.09054098
1.090541046
1.090541112
1.090541177
1.090541241
1.090541304
1.090541366
1.090541428
1.090541488
1.090541548
1.090541607
1.090541666
1.090541723
1.09054178
1.090541836
1.090541891
1.090541945
1.090541998
1.090542051
1.090542103
1.090542154
1.090542204
1.090542253
1.090542302
1.090542349
1.090542396
1.090542443
1.090542488
1.090542533
1.090542577
1.09054262
1.090542662
1.090542704
1.090542744
1.090542785
1.090542824
1.090542862
1.0905429
1.090542938
1.090542974
1.09054301
1.090543045
1.090543079
1.090543113
1.090543145
1.090543178
1.090543209
1.09054324
1.09054327
1.0905433
1.090543329
1.090543357
1.090543385
1.090543412
1.090543438
1.090543464
1.090543489
1.090543514
1.090543538
1.090543561
1.090543584
1.090543606
1.090543628
1.090543649
1.09054367
1.09054369
1.09054371
1.090543729
1.090543748
1.090543766
1.090543784
1.090543801
1.090543818
1.090543834
1.09054385
1.090543866
1.090543881
1.090543895
1.09054391
1.090543923
1.090543937
1.09054395
1.090543963
1.090543975
1.090543987
1.090543999
1.09054401
1.090544021
1.090544032
1.090544042
1.090544052
1.090544062
1.090544072
1.090544081
1.09054409
1.090544099
1.090544108
1.090544116
1.090544124
1.090544132
1.09054414
1.090544148
1.090544155
1.090544162
1.09054417
1.090544177
1.090544185
0.7157828002
0.7158069637
0.7158417149
0.7158781421
0.7159102723
0.7159350705
0.7159508293
0.7159576238
0.7159553491
0.715944714
0.7159265219
0.715901601
0.7158706866
0.7158343808
0.7157932875
0.7157483128
0.7157003059
0.7156499655
0.7155978466
0.7155443155
0.715489335
0.7154333227
0.7153771613
0.7153213207
0.7152661242
0.7152118162
0.7151585791
0.7151065328
0.7150557321
0.7150061692
0.7149577972
0.7149105943
0.7148646589
0.7148202016
0.7147774654
0.7147366832
0.7146980673
0.7146618068
0.7146280611
0.7145969387
0.7145684702
0.714542604
0.714519222
0.7144981707
0.7144792872
0.7144624103
0.7144473795
0.7144340273
0.7144221704
0.7144115961
0.7144037059
0.7143981449
0.7143932816
0.7143892222
0.7143862076
0.7143844514
0.7143841359
0.7143851569
0.7143875025
0.7143911688
0.7143961405
0.7144023813
0.7144098243
0.7144183514
0.7144277395
0.7144374921
0.7144477878
0.7144586349
0.7144699163
0.7144815194
0.7144934137
0.7145055936
0.7145180354
0.7145306935
0.7145435095
0.7145564288
0.7145694181
0.7145824583
0.7145955259
0.7146085845
0.7146215837
0.7146344622
0.7146471498
0.7146595693
0.7146716372
0.7146832658
0.7146943649
0.7147048464
0.7147146292
0.7147236294
0.7147318127
0.7147391041
0.7147454591
0.7147508307
0.7147551714
0.71475843
0.7147605475
0.7147614538
0.7147610677
0.7147592936
0.7147560282
0.714751162
0.7147445792
0.7147361548
0.7147257575
0.71471329
0.7146987323
0.7146820663
0.7146632519
0.7146422317
0.7146189351
0.7145932802
0.7145651766
0.7145345271
0.7145012305
0.7144651818
0.7144262737
0.7143843955
0.714339434
0.7142912717
0.7142397871
0.7141848514
0.7141263197
0.7140646514
0.7139995878
0.713930708
0.7138579729
0.713781302
0.7137006012
0.7136157667
0.7135266906
0.7134332682
0.7133353942
0.7132329582
0.7131258436
0.713013928
0.7128970833
0.7127751714
0.7126480292
0.712515416
0.712377327
0.7122336769
0.7120843576
0.7119292617
0.7117683251
0.7116014579
0.7114285035
0.7112492706
0.711063615
0.7108714077
0.7106725142
0.7104667793
0.7102540476
0.7100341679
0.7098069903
0.7095723647
0.7093301388
0.7090801573
0.7088222613
0.708556288
0.7082820706
0.7079994391
0.7077082222
0.707408249
0.7070993541
0.7067813769
0.7064541523
0.7061175032
0.7057712369
0.7054151588
0.7050490665
0.7046727591
0.7042860178
0.7038886294
0.7034803874
0.703061062
0.7026304249
0.7021882363
0.7017354586
0.701273416
0.7007989448
0.7003112611
0.6998085468
0.6992906329
0.698758669
0.698212835
0.6976530522
0.6970791492
0.6964909109
0.6958880969
0.6952704494
0.6946376973
0.6939895578
0.6933257359
0.6926459192
0.6919497862
0.6912370268
0.6905073388
0.689760393
0.688995897
0.6882135416
0.6874129882
0.6865938957
0.6857560187
0.6848988278
0.684021882
0.6831248171
0.6822072981
0.6812689966
0.6803095079
0.6793282758
0.6783247902
0.677298599
0.6762492731
0.6751762982
0.6740791341
0.6729572509
0.6718177115
0.6706541665
0.6694645867
0.6682484407
0.6670050341
0.6657338205
0.6644343047
0.6631059788
0.661748287
0.6603606455
0.6589422426
0.6574922729
0.6560101266
0.6544946831
0.652944937
0.6513602693
0.6497409634
0.6480854382
0.6463918771
0.6446703448
0.6429101183
0.6411072988
0.6392615389
0.6373723852
0.635438974
0.6334604869
0.6314367639
0.6293662992
0.6272475237
0.6250787628
0.6228582404
0.6205930929
0.6182816017
0.6159139204
0.6134886324
0.6110043739
0.608459528
0.6058523442
0.6031800812
0.600441964
0.5976485801
0.5947950582
0.5918713422
0.5888740753
0.5858003921
0.5826481639
0.5794140661
0.5761148792
0.5727358044
0.5692677121
0.5657086022
0.5620537838
0.5583114882
0.5544869681
0.5505588059
0.546522626
0.5423665992
0.5381234836
0.5337710531
0.5292974837
0.524705561
0.5200093514
0.5151894585
0.5102428415
0.505207113
0.5000416382
0.4947727195
0.4893904185
0.4839012614
0.4783333028
0.4726528788
0.4669156777
0.461107763
0.4552794556
0.449433686
0.4436309922
0.4379179088
0.4323737918
0.4270743329
0.4221141617
0.4176532791
0.4137251434
0.4107140239
0.4086540916
0.408631375
0.4137044769
0.4272545988
0.4528108336
0.5037386978
0.6588365508
0.7146439453
0.7884222244
0.8573311018
0.9187778789
0.9667437648
1.001736007
1.028607263
1.042096938
1.056255359
1.066740013
1.073777616
1.078580958
1.081663458
1.083518974
1.084946041
1.086064668
1.086951298
1.087658604
1.088225443
1.08868043
1.089045817
1.089339451
1.089575298
1.089764703
1.089916729
1.090038662
1.090136412
1.090214704
1.09027737
1.090327492
1.090367549
1.090399542
1.090425077
1.090445446
1.090461684
1.090474626
1.090484937
1.090493151
1.090499696
1.090504913
1.090509074
1.090512396
1.090515054
1.090517184
1.090518897
1.09052028
1.090521401
1.090522317
1.090523069
1.090523693
1.090524216
1.090524658
1.090525039
1.090525369
1.090525661
1.090525922
1.090526159
1.090526377
1.09052658
1.090526771
1.090526952
1.090527126
1.090527294
1.090527457
1.090527616
1.090527772
1.090527926
1.090528077
1.090528226
1.090528373
1.090528519
1.090528664
1.090528808
1.09052895
1.090529092
1.090529232
1.090529372
1.090529511
1.09052965
1.090529787
1.090529924
1.09053006
1.090530196
1.090530331
1.090530465
1.090530599
1.090530732
1.090530864
1.090530996
1.090531127
1.090531258
1.090531388
1.090531517
1.090531646
1.090531774
1.090531902
1.090532029
1.090532156
1.090532282
1.090532407
1.090532532
1.090532657
1.090532781
1.090532904
1.090533027
1.090533149
1.090533271
1.090533392
1.090533512
1.090533632
1.090533752
1.090533871
1.090533989
1.090534107
1.090534224
1.090534341
1.090534457
1.090534573
1.090534688
1.090534802
1.090534916
1.09053503
1.090535142
1.090535255
1.090535366
1.090535477
1.090535588
1.090535698
1.090535807
1.090535916
1.090536024
1.090536131
1.090536238
1.090536344
1.09053645
1.090536555
1.090536659
1.090536763
1.090536866
1.090536969
1.09053707
1.090537172
1.090537272
1.090537372
1.090537471
1.09053757
1.090537667
1.090537765
1.090537861
1.090537957
1.090538052
1.090538146
1.09053824
1.090538333
1.090538425
1.090538517
1.090538607
1.090538697
1.090538787
1.090538875
1.090538963
1.09053905
1.090539137
1.090539222
1.090539307
1.090539391
1.090539474
1.090539557
1.090539639
1.09053972
1.0905398
1.090539879
1.090539958
1.090540036
1.090540113
1.090540189
1.090540265
1.09054034
1.090540413
1.090540486
1.090540559
1.09054063
1.090540701
1.090540771
1.09054084
1.090540908
1.090540975
1.090541042
1.090541107
1.090541172
1.090541236
1.090541299
1.090541362
1.090541423
1.090541484
1.090541544
1.090541603
1.090541661
1.090541719
1.090541776
1.090541831
1.090541886
1.090541941
1.090541994
1.090542047
1.090542098
1.090542149
1.0905422
1.090542249
1.090542298
1.090542345
1.090542392
1.090542439
1.090542484
1.090542529
1.090542573
1.090542616
1.090542658
1.0905427
1.090542741
1.090542781
1.09054282
1.090542859
1.090542897
1.090542934
1.09054297
1.090543006
1.090543041
1.090543075
1.090543109
1.090543142
1.090543174
1.090543206
1.090543237
1.090543267
1.090543296
1.090543325
1.090543354
1.090543381
1.090543408
1.090543435
1.090543461
1.090543486
1.090543511
1.090543535
1.090543558
1.090543581
1.090543604
1.090543625
1.090543647
1.090543667
1.090543688
1.090543707
1.090543727
1.090543745
1.090543764
1.090543781
1.090543799
1.090543816
1.090543832
1.090543848
1.090543864
1.090543879
1.090543893
1.090543908
1.090543922
1.090543935
1.090543948
1.090543961
1.090543973
1.090543986
1.090543997
1.090544009
1.09054402
1.090544031
1.090544041
1.090544051
1.090544061
1.090544071
1.09054408
1.090544089
1.090544098
1.090544107
1.090544115
1.090544123
1.090544132
1.090544139
1.090544147
1.090544155
1.090544162
1.090544169
1.090544177
1.090544186
0.6232078695
0.6232265972
0.6232546189
0.6232835853
0.623307994
0.6233247551
0.6233322327
0.6233301035
0.6233185198
0.6232981396
0.6232697985
0.6232343575
0.6231925997
0.623145085
0.623091804
0.623034408
0.622973877
0.622910963
0.6228462997
0.6227804403
0.6227156653
0.6226524628
0.6225893815
0.6225267718
0.622464933
0.6224041146
0.6223445124
0.6222862595
0.622229416
0.6221739617
0.6221198031
0.6220668454
0.6220151913
0.6219651189
0.6219169145
0.621870834
0.6218271069
0.621785944
0.6217475356
0.6217120211
0.6216794381
0.6216497191
0.6216227133
0.6215982336
0.6215760954
0.6215561263
0.6215381596
0.6215220244
0.621507534
0.6214944683
0.6214825241
0.6214714452
0.6214607996
0.6214508242
0.6214419683
0.6214344265
0.6214282971
0.6214236146
0.6214203948
0.6214186422
0.6214183461
0.6214194768
0.6214219801
0.621425772
0.6214307392
0.6214390825
0.6214486347
0.6214588686
0.6214695883
0.6214806113
0.6214919462
0.6215036178
0.6215156036
0.621527847
0.6215402712
0.6215528023
0.6215654067
0.6215780755
0.6215907903
0.6216035129
0.6216161889
0.6216287522
0.6216411283
0.6216532351
0.621664983
0.6216762769
0.6216870168
0.6216971041
0.6217064468
0.6217149629
0.6217225999
0.62172929
0.621734983
0.6217396308
0.6217431848
0.621745593
0.6217467955
0.6217467197
0.621745277
0.6217423641
0.6217378685
0.6217316735
0.6217236581
0.6217136865
0.6217015651
0.6216870693
0.6216703414
0.6216513796
0.6216301379
0.6216065511
0.6215805414
0.6215520189
0.6215208845
0.6214870325
0.6214503535
0.6214107353
0.6213680631
0.6213222199
0.6212730852
0.6212205349
0.62116444
0.6211046645
0.6210410576
0.6209734237
0.620901701
0.6208258751
0.6207458763
0.6206616545
0.6205731335
0.6204802042
0.6203827463
0.6202806511
0.6201738095
0.6200621045
0.6199454117
0.6198236017
0.6196965414
0.6195640953
0.6194261253
0.6192839899
0.6191360679
0.6189822243
0.6188223333
0.6186562684
0.6184839022
0.6183054828
0.6181214498
0.6179307397
0.61773322
0.6175287796
0.6173173071
0.6170986029
0.6168725035
0.6166388541
0.6163975022
0.6161482941
0.6158910742
0.6156256836
0.6153519596
0.615069735
0.6147788392
0.614479098
0.6141703359
0.6138523779
0.6135250567
0.6131882153
0.6128416941
0.6124853123
0.6121188697
0.6117421704
0.6113550091
0.6109571881
0.6105484868
0.6101286942
0.6096976026
0.609254983
0.6088006044
0.608334222
0.6078555768
0.6073643672
0.6068602292
0.6063427011
0.6058112778
0.6052657304
0.6047060669
0.6041322359
0.6035441066
0.6029414975
0.6023241966
0.6016919718
0.6010445765
0.6003817529
0.5997032338
0.5990087475
0.5982979885
0.5975706362
0.5968264024
0.5960650335
0.5952906195
0.5945003006
0.5936920998
0.592865699
0.5920207636
0.5911569426
0.5902738343
0.5893709557
0.5884480434
0.5875047872
0.5865408127
0.585555679
0.5845488224
0.5835198648
0.5824685984
0.5813946709
0.5802975734
0.5791768074
0.5780319015
0.5768624519
0.5756678865
0.5744515632
0.5732141623
0.5719503163
0.5706596193
0.569341707
0.5679961875
0.5666225761
0.5652208606
0.5637898846
0.5623285729
0.5608381599
0.559316464
0.5577620688
0.5561741682
0.5545600311
0.5529145385
0.5512332524
0.5495152726
0.5477597392
0.5459658762
0.5441329648
0.5422602274
0.5403468054
0.5383917248
0.5364036559
0.534376176
0.5323044376
0.5301874892
0.5280238853
0.5258117236
0.5235498026
0.5212377075
0.5188905969
0.5164919766
0.5140396908
0.5115324935
0.5089699409
0.5063503745
0.503685289
0.5009645501
0.4981817887
0.4953355656
0.4924229531
0.4894545724
0.4864244499
0.4833206298
0.4801490928
0.4769064594
0.473601009
0.4702145983
0.4667463286
0.4632096245
0.4595976611
0.4558985104
0.4521210182
0.4482644898
0.4443148289
0.4402845307
0.436166507
0.4319513584
0.4276565187
0.4232506377
0.418780718
0.4142174402
0.4095729913
0.4048566701
0.4000732142
0.3952360836
0.3903244242
0.3853877559
0.3804192207
0.3754497074
0.3704778268
0.3655450941
0.3606897624
0.3559484238
0.3513551015
0.3469882634
0.3428372124
0.3391246717
0.3357267759
0.3334504475
0.3342613531
0.3429866264
0.3627882089
0.3969465175
0.4516666104
0.5275577664
0.5912159578
0.6623637278
0.7236298369
0.8009465339
0.8743384055
0.932728748
0.982925217
1.013469784
1.035176601
1.051927025
1.063485234
1.071590477
1.077278403
1.081328724
1.083686581
1.085073796
1.086171707
1.087043977
1.087740741
1.088297865
1.088743667
1.089100888
1.089386846
1.089615859
1.089799214
1.089945865
1.090063195
1.090156949
1.090231832
1.090291614
1.090339293
1.090377304
1.090407588
1.090431699
1.090450887
1.090466151
1.090478289
1.090487941
1.090495616
1.090501719
1.090506577
1.090510445
1.090513531
1.090515996
1.090517971
1.090519558
1.090520839
1.090521879
1.090522729
1.090523428
1.09052401
1.090524498
1.090524914
1.090525272
1.090525585
1.090525863
1.090526112
1.09052634
1.090526551
1.090526747
1.090526933
1.090527111
1.090527281
1.090527446
1.090527607
1.090527764
1.090527918
1.09052807
1.09052822
1.090528367
1.090528514
1.090528659
1.090528803
1.090528945
1.090529087
1.090529228
1.090529368
1.090529507
1.090529645
1.090529783
1.09052992
1.090530056
1.090530191
1.090530326
1.090530461
1.090530594
1.090530727
1.09053086
1.090530991
1.090531122
1.090531253
1.090531383
1.090531513
1.090531641
1.09053177
1.090531897
1.090532025
1.090532151
1.090532277
1.090532403
1.090532528
1.090532652
1.090532776
1.090532899
1.090533022
1.090533144
1.090533266
1.090533387
1.090533508
1.090533628
1.090533747
1.090533866
1.090533985
1.090534102
1.09053422
1.090534336
1.090534452
1.090534568
1.090534683
1.090534798
1.090534911
1.090535025
1.090535138
1.09053525
1.090535361
1.090535472
1.090535583
1.090535693
1.090535802
1.090535911
1.090536019
1.090536126
1.090536233
1.090536339
1.090536445
1.09053655
1.090536654
1.090536758
1.090536861
1.090536964
1.090537065
1.090537167
1.090537267
1.090537367
1.090537466
1.090537565
1.090537662
1.090537759
1.090537856
1.090537952
1.090538047
1.090538141
1.090538235
1.090538328
1.09053842
1.090538511
1.090538602
1.090538692
1.090538782
1.09053887
1.090538958
1.090539045
1.090539131
1.090539217
1.090539302
1.090539386
1.090539469
1.090539552
1.090539634
1.090539715
1.090539795
1.090539874
1.090539953
1.090540031
1.090540108
1.090540184
1.09054026
1.090540334
1.090540408
1.090540481
1.090540553
1.090540625
1.090540696
1.090540765
1.090540834
1.090540902
1.09054097
1.090541036
1.090541102
1.090541167
1.090541231
1.090541294
1.090541357
1.090541418
1.090541479
1.090541539
1.090541598
1.090541656
1.090541714
1.090541771
1.090541826
1.090541881
1.090541936
1.090541989
1.090542042
1.090542093
1.090542145
1.090542195
1.090542244
1.090542293
1.090542341
1.090542388
1.090542434
1.090542479
1.090542524
1.090542568
1.090542611
1.090542654
1.090542695
1.090542736
1.090542776
1.090542816
1.090542854
1.090542892
1.090542929
1.090542966
1.090543002
1.090543037
1.090543071
1.090543105
1.090543138
1.09054317
1.090543202
1.090543233
1.090543263
1.090543293
1.090543322
1.09054335
1.090543378
1.090543405
1.090543431
1.090543457
1.090543482
1.090543507
1.090543531
1.090543555
1.090543578
1.0905436
1.090543622
1.090543644
1.090543664
1.090543685
1.090543705
1.090543724
1.090543743
1.090543761
1.090543779
1.090543796
1.090543813
1.09054383
1.090543846
1.090543861
1.090543876
1.090543891
1.090543905
1.090543919
1.090543933
1.090543946
1.090543959
1.090543972
1.090543984
1.090543996
1.090544007
1.090544018
1.090544029
1.09054404
1.09054405
1.09054406
1.09054407
1.090544079
1.090544088
1.090544097
1.090544106
1.090544114
1.090544123
1.090544131
1.090544139
1.090544147
1.090544154
1.090544162
1.090544169
1.090544177
1.090544186
0.5598617669
0.5598732316
0.5598903629
0.5599070543
0.5599188291
0.5599231961
0.5599186705
0.5599048672
0.5598819952
0.5598507039
0.5598118122
0.5597661544
0.5597145616
0.5596579046
0.5595994358
0.5595374282
0.5594725988
0.5594056063
0.5593370634
0.5592675645
0.5591977688
0.5591280905
0.5590587119
0.5589899118
0.5589219663
0.5588551218
0.5587895818
0.5587254933
0.5586629322
0.5586018839
0.5585422044
0.5584834892
0.5584258668
0.5583698611
0.558315784
0.5582638847
0.5582143862
0.5581675083
0.5581234798
0.5580824959
0.5580446013
0.5580097065
0.5579776106
0.5579480847
0.5579209284
0.5578959725
0.5578730625
0.5578520438
0.5578327544
0.5578150252
0.5577986927
0.5577836418
0.5577714592
0.5577614507
0.5577526923
0.5577452633
0.5577392311
0.5577346409
0.5577315197
0.5577298789
0.5577297146
0.5577310056
0.5577337092
0.5577377604
0.5577430889
0.5577496835
0.5577572904
0.5577656769
0.557774566
0.5577833741
0.5577924713
0.5578019736
0.5578118495
0.5578220283
0.5578324089
0.5578428782
0.5578534097
0.5578640223
0.5578747071
0.5578854256
0.5578961218
0.5579067298
0.5579171771
0.5579273846
0.5579372636
0.5579467195
0.5579556464
0.5579639402
0.5579714947
0.5579782465
0.5579841201
0.557989059
0.5579930139
0.557995939
0.5579977893
0.5579985175
0.5579980697
0.5579963778
0.5579933532
0.5579888887
0.5579828681
0.5579751761
0.5579657025
0.557954345
0.5579413034
0.5579275579
0.5579116619
0.5578935574
0.557873181
0.557850463
0.5578253251
0.557797676
0.5577674142
0.5577344323
0.5576986204
0.5576598664
0.5576180565
0.5575730745
0.5575248012
0.5574731139
0.5574178859
0.5573589872
0.5572962916
0.5572296921
0.5571591069
0.557084428
0.5570054293
0.5569222095
0.5568347123
0.5567428156
0.5566463823
0.5565453154
0.5564395144
0.5563288643
0.5562132409
0.5560925154
0.5559665573
0.5558352374
0.5556984321
0.5555560382
0.5554078963
0.5552538695
0.5550938267
0.5549276364
0.5547551627
0.5545762548
0.5543907601
0.5541985614
0.5539995237
0.5537938924
0.553582279
0.5533634472
0.5531372532
0.5529035512
0.5526621942
0.5524130334
0.5521559176
0.5518906923
0.5516171985
0.5513352725
0.5510447476
0.5507454528
0.550437216
0.5501198639
0.5497932326
0.5494571773
0.5491115912
0.548756273
0.5483910069
0.5480156056
0.5476298703
0.5472336131
0.5468266243
0.5464087028
0.5459796448
0.5455392335
0.5450872467
0.5446234519
0.544147604
0.5436594346
0.5431586497
0.5426449347
0.5421179875
0.541577589
0.5410235937
0.5404558582
0.5398742165
0.5392784797
0.5386684409
0.5380438798
0.5374045649
0.536750256
0.536080705
0.5353992649
0.5347035177
0.5339917124
0.5332635713
0.5325189548
0.5317576402
0.5309793574
0.5301838236
0.5293707443
0.5285398032
0.5276906747
0.5268230325
0.52593767
0.5250333628
0.5241095564
0.5231658764
0.5222019279
0.5212173183
0.5202117468
0.5191851417
0.5181440583
0.5170814359
0.5159964397
0.5148886142
0.5137575132
0.5126026688
0.5114235762
0.5102198009
0.5089910128
0.5077368734
0.5064571937
0.5051519169
0.5038199532
0.5024677374
0.5010898256
0.4996834081
0.4982477931
0.4967824056
0.4952865878
0.4937594998
0.4921999666
0.490607593
0.488981935
0.4873328374
0.4856498705
0.483931888
0.4821782544
0.4803881043
0.4785607164
0.476695206
0.4747930986
0.4728614832
0.4708896584
0.4688772708
0.4668228349
0.4647250197
0.4625827844
0.4604084514
0.4581903972
0.4559258607
0.4536135029
0.4512518796
0.4488490085
0.4464003151
0.4438990847
0.4413441526
0.4387355738
0.4360894544
0.4333886959
0.4306284011
0.4278115762
0.424947591
0.4220180008
0.4190206491
0.4159696837
0.4128536508
0.4096660711
0.406421405
0.4031067823
0.399730117
0.3963037051
0.3927975874
0.3892247631
0.3855760355
0.3818601607
0.3780889332
0.3742432912
0.3703185823
0.3663345758
0.3622856178
0.3581736551
0.3540077516
0.3497840334
0.3455205457
0.3412223499
0.3368922942
0.3325513416
0.328201763
0.3238532443
0.3195374697
0.315253288
0.3110345694
0.3068934548
0.3028468003
0.2988712909
0.2949941849
0.291316344
0.2885333805
0.2883267481
0.2945442537
0.3096909138
0.3364197714
0.3735402932
0.4212610986
0.4725736536
0.5320698329
0.5968429608
0.6650005249
0.7257484125
0.8085001912
0.8759011399
0.938134003
0.9802289636
1.009766804
1.033345625
1.050413034
1.062433356
1.070981292
1.077001805
1.081267329
1.084119342
1.085418008
1.086456062
1.087279132
1.087935363
1.088459468
1.088877374
1.08921129
1.089478169
1.089691009
1.089861077
1.089996731
1.09010487
1.090191106
1.090259763
1.09031442
1.090357908
1.090392475
1.090419944
1.090441759
1.090459076
1.090472819
1.090483724
1.090492376
1.090499241
1.090504692
1.090509021
1.090512465
1.090515209
1.090517399
1.090519154
1.090520564
1.090521704
1.09052263
1.090523389
1.090524016
1.090524539
1.090524981
1.09052536
1.090525688
1.090525977
1.090526235
1.090526469
1.090526684
1.090526884
1.090527073
1.090527251
1.090527423
1.090527589
1.090527749
1.090527906
1.09052806
1.090528211
1.09052836
1.090528508
1.090528653
1.090528798
1.090528941
1.090529083
1.090529224
1.090529364
1.090529503
1.090529642
1.090529779
1.090529916
1.090530052
1.090530188
1.090530323
1.090530457
1.090530591
1.090530724
1.090530856
1.090530988
1.090531119
1.090531249
1.090531379
1.090531509
1.090531638
1.090531766
1.090531894
1.090532021
1.090532148
1.090532274
1.090532399
1.090532524
1.090532648
1.090532772
1.090532896
1.090533018
1.090533141
1.090533262
1.090533383
1.090533504
1.090533624
1.090533743
1.090533862
1.090533981
1.090534098
1.090534216
1.090534332
1.090534449
1.090534564
1.090534679
1.090534794
1.090534907
1.090535021
1.090535134
1.090535246
1.090535357
1.090535468
1.090535579
1.090535689
1.090535798
1.090535907
1.090536015
1.090536122
1.090536229
1.090536335
1.090536441
1.090536546
1.09053665
1.090536754
1.090536857
1.090536959
1.090537061
1.090537162
1.090537263
1.090537363
1.090537462
1.09053756
1.090537658
1.090537755
1.090537852
1.090537947
1.090538042
1.090538137
1.09053823
1.090538323
1.090538416
1.090538507
1.090538598
1.090538688
1.090538777
1.090538866
1.090538954
1.090539041
1.090539127
1.090539213
1.090539298
1.090539382
1.090539465
1.090539547
1.090539629
1.09053971
1.090539791
1.09053987
1.090539949
1.090540027
1.090540104
1.09054018
1.090540255
1.09054033
1.090540404
1.090540477
1.090540549
1.090540621
1.090540691
1.090540761
1.09054083
1.090540898
1.090540966
1.090541032
1.090541098
1.090541163
1.090541227
1.09054129
1.090541353
1.090541414
1.090541475
1.090541535
1.090541594
1.090541652
1.09054171
1.090541767
1.090541822
1.090541878
1.090541932
1.090541985
1.090542038
1.09054209
1.090542141
1.090542191
1.09054224
1.090542289
1.090542337
1.090542384
1.09054243
1.090542476
1.09054252
1.090542564
1.090542608
1.09054265
1.090542692
1.090542733
1.090542773
1.090542812
1.090542851
1.090542889
1.090542926
1.090542963
1.090542998
1.090543034
1.090543068
1.090543102
1.090543135
1.090543167
1.090543199
1.09054323
1.09054326
1.09054329
1.090543319