/*--------------------------------*- C++ -*----------------------------------*\
| =========                 |                                                 |
| \\      /  F ield         | OpenFOAM: The Open Source CFD Toolbox           |
|  \\    /   O peration     | Version:  v2006                                 |
|   \\  /    A nd           | Website:  www.openfoam.com                      |
|    \\/     M anipulation  |                                                 |
\*---------------------------------------------------------------------------*/
FoamFile
{
    version     2.0;
    format      ascii;
    class       volScalarField;
    location    "0.09";
    object      T;
}
// * * * * * * * * * * * * * * * * * * * * * * * * * * * * * * * * * * * * * //

dimensions      [0 0 0 1 0 0 0];


internalField   nonuniform List<scalar> 
72000
(
391.7090474
391.6991095
391.6851764
391.6701136
391.6561421
391.6442858
391.6350742
391.6286095
391.6248599
391.623655
391.624713
391.6276063
391.6321516
391.6383007
391.6458854
391.65466
391.6643787
391.6748318
391.6858542
391.6973298
391.7091687
391.7212394
391.7333734
391.7454286
391.7573017
391.7689172
391.7802222
391.7911851
391.8017951
391.8120598
391.8219943
391.8316024
391.8408545
391.8496885
391.8580285
391.8657988
391.87293
391.8793612
391.8850428
391.8899413
391.8940457
391.8973685
391.8999421
391.9018115
391.9030267
391.9036403
391.9037064
391.9032821
391.902427
391.9011915
391.8995606
391.8976011
391.8954215
391.892999
391.8902047
391.8867417
391.8834679
391.879836
391.8758223
391.871422
391.8666389
391.8614858
391.8559869
391.8501834
391.8441391
391.8379133
391.8315355
391.8250256
391.8184163
391.8117384
391.805005
391.7982209
391.7913932
391.7845336
391.7776569
391.7707767
391.763902
391.7570388
391.7501943
391.74338
391.7366122
391.7299109
391.7232993
391.7168034
391.7104505
391.7042694
391.6982887
391.692536
391.6870369
391.6818145
391.6768836
391.6722636
391.6679689
391.664014
391.6604136
391.657184
391.654344
391.6519187
391.6499289
391.6484092
391.6473913
391.6469103
391.6470034
391.6477097
391.649067
391.6511027
391.6538278
391.6572498
391.6613804
391.6662363
391.6718387
391.6782124
391.6853851
391.6933872
391.7022507
391.712009
391.722697
391.7343504
391.7470065
391.7607034
391.7754801
391.791373
391.8084002
391.8264884
391.8456753
391.8659851
391.8873568
391.9099654
391.9338738
391.9591218
391.9857451
392.0137776
392.043254
392.0742104
392.1066852
392.1407186
392.1763536
392.2136366
392.252618
392.2933422
392.3358475
392.3801676
392.4263431
392.4744306
392.524692
392.5771971
392.6317417
392.6883583
392.7470923
392.8079901
392.8711002
392.9364761
393.0041727
393.0742444
393.1467459
393.2217322
393.2992594
393.3793849
393.4621677
393.5476686
393.6359496
393.7270747
393.8211086
393.9181162
394.0181618
394.1213088
394.2276231
394.3371743
394.450037
394.5662879
394.6860071
394.8092756
394.9361806
395.0668085
395.201245
395.339583
395.4819147
395.628332
395.7788982
395.9335343
396.092316
396.2555554
396.4220469
396.5920065
396.7667619
396.9464469
397.1311409
397.3209325
397.5159239
397.7162276
397.921964
398.1332605
398.3502503
398.573073
398.8018754
399.0368093
399.278027
399.5256812
399.7799254
400.0409226
400.308846
400.5838872
400.8662916
401.1571486
401.4558922
401.762586
402.077404
402.4004876
402.7318029
403.0709548
403.418693
403.7754411
404.14167
404.5176938
404.9038181
405.3003635
405.707683
406.1262464
406.5562849
406.9980698
407.4519432
407.9182906
408.3974908
408.8899179
409.3959577
409.9160195
410.4505337
410.9999422
411.564473
412.14421
412.7404343
413.3539239
413.985272
414.6350225
415.3039275
415.9927281
416.7015316
417.4318284
418.1762835
418.9411336
419.7300071
420.5437733
421.3832711
422.2492831
423.1424781
424.0625938
425.0124355
425.993615
427.0069119
428.0537931
429.1364906
430.2567166
431.4161916
432.6167183
433.8600973
435.1478529
436.4826687
437.8665165
439.2944464
440.768646
442.2996644
443.8907611
445.5452837
447.2668648
449.0590421
450.9257109
452.8711421
454.8998786
457.0179099
459.230885
461.5249156
463.9238176
466.4347724
469.0642761
471.8161427
474.6950909
477.7088135
480.8600298
484.1461743
487.5966136
491.2170425
495.0093833
498.9942419
503.1539921
507.5254609
512.1111312
516.9101294
521.9051952
527.1250013
532.5677506
538.2085165
543.9679255
549.8418415
555.7704959
561.5836604
567.1747156
572.3940141
577.0320656
580.6385007
583.0134618
584.1082922
583.9620009
585.7106865
597.5208677
638.8666088
734.6727955
409.0942851
410.8014674
374.6236719
362.8160799
353.8419726
348.7774911
345.1116685
342.8263415
341.9961386
340.5736537
338.1102934
336.5084547
335.5650684
334.9677625
334.5424225
334.223563
333.97694
333.7827735
333.6283346
333.5047671
333.4056134
333.3259462
333.261896
333.2104071
333.1690279
333.1357916
333.1091148
333.0877185
333.0705727
333.056845
333.045864
333.0370887
333.0300827
333.0244949
333.0200425
333.0164984
333.0136802
333.0114414
333.0096647
333.0082563
333.0071409
333.0062586
333.0055613
333.005011
333.0045771
333.0042353
333.0039665
333.0037553
333.0035896
333.0034597
333.003358
333.0032786
333.0032165
333.0031682
333.0031306
333.0031014
333.0030787
333.0030611
333.0030476
333.0030371
333.0030291
333.0030229
333.0030182
333.0030145
333.0030118
333.0030097
333.0030081
333.0030069
333.003006
333.0030053
333.0030048
333.0030045
333.0030042
333.003004
333.0030039
333.0030038
333.0030037
333.0030037
333.0030036
333.0030036
333.0030036
333.0030036
333.0030036
333.0030036
333.0030036
333.0030036
333.0030036
333.0030036
333.0030036
333.0030036
333.0030036
333.0030036
333.0030036
333.0030036
333.0030036
333.0030036
333.0030036
333.0030036
333.0030036
333.0030036
333.0030036
333.0030036
333.0030036
333.0030036
333.0030036
333.0030036
333.0030036
333.0030036
333.0030036
333.0030036
333.0030036
333.0030036
333.0030036
333.0030036
333.0030036
333.0030036
333.0030036
333.0030036
333.0030036
333.0030036
333.0030036
333.0030036
333.0030036
333.0030036
333.0030036
333.0030036
333.0030036
333.0030036
333.0030036
333.0030036
333.0030036
333.0030036
333.0030036
333.0030036
333.0030036
333.0030036
333.0030036
333.0030036
333.0030036
333.0030036
333.0030036
333.0030036
333.0030036
333.0030036
333.0030036
333.0030036
333.0030036
333.0030036
333.0030036
333.0030036
333.0030036
333.0030036
333.0030036
333.0030036
333.0030036
333.0030036
333.0030036
333.0030036
333.0030036
333.0030036
333.0030036
333.0030036
333.0030036
333.0030036
333.0030036
333.0030036
333.0030036
333.0030036
333.0030036
333.0030036
333.0030036
333.0030036
333.0030036
333.0030036
333.0030036
333.0030036
333.0030036
333.0030036
333.0030036
333.0030036
333.0030036
333.0030036
333.0030036
333.0030036
333.0030036
333.0030036
333.0030036
333.0030036
333.0030036
333.0030036
333.0030036
333.0030036
333.0030036
333.0030036
333.0030036
333.0030036
333.0030036
333.0030036
333.0030036
333.0030036
333.0030036
333.0030036
333.0030036
333.0030036
333.0030036
333.0030036
333.0030036
333.0030036
333.0030036
333.0030036
333.0030036
333.0030036
333.0030036
333.0030036
333.0030036
333.0030036
333.0030036
333.0030036
333.0030036
333.0030036
333.0030036
333.0030036
333.0030036
333.0030036
333.0030036
333.0030036
333.0030036
333.0030036
333.0030036
333.0030036
333.0030036
333.0030036
333.0030036
333.0030036
333.0030036
333.0030036
333.0030036
333.0030036
333.0030036
333.0030036
333.0030036
333.0030036
333.0030036
333.0030036
333.0030036
333.0030036
333.0030036
333.0030036
333.0030036
333.0030036
333.0030036
333.0030036
333.0030036
333.0030036
333.0030036
333.0030036
333.0030036
333.0030036
333.0030036
333.0030036
333.0030036
333.0030036
333.0030036
333.0030036
333.0030036
333.0030036
333.0030036
333.0030036
333.0030036
333.0030036
333.0030036
333.0030036
333.0030036
333.0030036
333.0030036
333.0030036
333.0030036
333.0030036
333.0030036
333.0030036
333.0030036
333.0030036
333.0030036
333.0030036
333.0030036
333.0030036
333.0030036
333.0030036
333.0030036
333.0030036
333.0030036
333.0030036
333.0030036
333.0030036
475.5288913
475.5119852
475.4873695
475.4610822
475.4371903
475.4177867
475.4040671
475.3960317
475.3937897
475.3969044
475.404872
475.4171679
475.4333258
475.4529651
475.4757022
475.5009489
475.5281534
475.5568627
475.586718
475.6174845
475.6491949
475.6815773
475.7140487
475.7463003
475.778121
475.8093523
475.839878
475.8696243
475.8985621
475.9267044
475.9540902
475.98074
476.0065903
476.0314994
476.0553025
476.0778413
476.0989725
476.1185691
476.1365243
476.1527652
476.1672697
476.18007
476.1912424
476.2008878
476.209114
476.2160292
476.2217427
476.2263694
476.2300359
476.2328893
476.234046
476.2337413
476.2330207
476.2318118
476.2299515
476.2272942
476.2237155
476.2192798
476.2139918
476.2078522
476.2008706
476.1930713
476.1844999
476.1752361
476.1654304
476.1554163
476.1450753
476.1344033
476.12348
476.1123816
476.1011284
476.0897233
476.0781804
476.0665277
476.0548017
476.0430364
476.0312514
476.0194573
476.0076683
475.9959083
475.984211
475.9726185
475.9611787
475.9499447
475.9389735
475.9283247
475.9180592
475.9082356
475.8989074
475.8901294
475.8819232
475.874337
475.8673992
475.8611398
475.8555895
475.850782
475.8467562
475.8435588
475.8412439
475.8398754
475.8395224
475.8402579
475.8421593
475.8453099
475.8497969
475.8556845
475.8629846
475.8717077
475.8818787
475.8935343
475.90672
475.9214889
475.9379001
475.9560176
475.9759086
475.9976429
476.0212925
476.0469318
476.0746373
476.1044883
476.1365674
476.1709621
476.207771
476.2467134
476.2879552
476.3317615
476.3781584
476.4271992
476.4789463
476.5334688
476.5908392
476.651128
476.7144063
476.7807494
476.8502367
476.9229518
476.9989829
477.0784247
477.1613892
477.2480409
477.3383858
477.432484
477.5304116
477.6322444
477.7380302
477.8478335
477.9617634
478.0799523
478.202502
478.3295048
478.4610573
478.5972706
478.7382566
478.8841251
479.0349855
479.1909479
479.3521244
479.5186301
479.6905827
479.8681036
480.0513171
480.2403506
480.4353332
480.6363943
480.8436607
481.0572562
481.2773089
481.5039563
481.7373468
481.977632
482.2249694
482.4795169
482.741446
483.0109254
483.288121
483.5732161
483.8663945
484.1678501
484.4769707
484.7928993
485.1177985
485.4522313
485.7974181
486.1535249
486.5198679
486.8963778
487.283156
487.6803692
488.088217
488.5069188
488.9367093
489.3778348
489.8305528
490.2951326
490.7718598
491.2610304
491.7629363
492.2778669
492.8061328
493.348028
493.9038637
494.4739753
495.0587049
495.6583302
496.2733375
496.9041553
497.5511632
498.2147263
498.8952117
499.593049
500.3088149
501.0430268
501.7961376
502.5686232
503.3610341
504.173951
505.0079576
505.8580552
506.729093
507.6227794
508.5397407
509.4807471
510.4464675
511.4375446
512.4546445
513.4984852
514.5698225
515.669609
516.7988145
517.9582767
519.1492553
520.3729486
521.6302775
522.9214656
524.2482545
525.6126247
527.0070777
528.4407328
529.9173723
531.4379171
533.0033866
534.6151847
536.274732
537.9829382
539.7419165
541.553908
543.4213069
545.3466739
547.3249456
549.3586292
551.4574399
553.6239299
555.8607572
558.1708987
560.5575722
563.0251614
565.5761329
568.2026259
570.9112376
573.7135458
576.6149324
579.6206867
582.7356208
585.9660235
589.2983331
592.7503568
596.3349948
600.0583426
603.9297341
607.9451763
612.1037577
616.4335387
620.9452829
625.6593503
630.5451344
635.634571
640.9495063
646.4955082
652.2645086
658.2894977
664.5858667
671.1150194
677.9401202
685.0382625
692.4357713
700.1342197
708.1056927
716.410335
724.9756665
733.8298935
742.9006679
752.1825708
761.5704604
770.9704294
780.2149816
789.1246067
797.4616282
804.8429805
811.0976407
815.3560751
817.4459018
815.2192954
803.2273399
777.3998628
736.1860122
668.8850689
524.0086674
490.1998061
448.4499573
414.8573394
388.7038264
370.5261507
358.3845348
349.6359179
345.4786054
341.5509242
338.7833766
336.9797597
335.7701777
335.0190185
334.5943657
334.2685826
334.0137108
333.8120122
333.651311
333.5226574
333.4194803
333.3366831
333.2701885
333.2168115
333.1739689
333.1396002
333.1120502
333.0899775
333.0723104
333.0581805
333.0468892
333.037875
333.030685
333.0249556
333.0203946
333.016767
333.0138848
333.0115971
333.009783
333.0083459
333.0072087
333.0063097
333.0055998
333.0050399
333.0045987
333.0042515
333.0039785
333.0037642
333.0035961
333.0034645
333.0033615
333.0032811
333.0032184
333.0031695
333.0031315
333.003102
333.0030791
333.0030614
333.0030478
333.0030372
333.0030291
333.0030229
333.0030182
333.0030145
333.0030118
333.0030097
333.0030081
333.0030069
333.003006
333.0030053
333.0030048
333.0030045
333.0030042
333.003004
333.0030039
333.0030038
333.0030037
333.0030037
333.0030036
333.0030036
333.0030036
333.0030036
333.0030036
333.0030036
333.0030036
333.0030036
333.0030036
333.0030036
333.0030036
333.0030036
333.0030036
333.0030036
333.0030036
333.0030036
333.0030036
333.0030036
333.0030036
333.0030036
333.0030036
333.0030036
333.0030036
333.0030036
333.0030036
333.0030036
333.0030036
333.0030036
333.0030036
333.0030036
333.0030036
333.0030036
333.0030036
333.0030036
333.0030036
333.0030036
333.0030036
333.0030036
333.0030036
333.0030036
333.0030036
333.0030036
333.0030036
333.0030036
333.0030036
333.0030036
333.0030036
333.0030036
333.0030036
333.0030036
333.0030036
333.0030036
333.0030036
333.0030036
333.0030036
333.0030036
333.0030036
333.0030036
333.0030036
333.0030036
333.0030036
333.0030036
333.0030036
333.0030036
333.0030036
333.0030036
333.0030036
333.0030036
333.0030036
333.0030036
333.0030036
333.0030036
333.0030036
333.0030036
333.0030036
333.0030036
333.0030036
333.0030036
333.0030036
333.0030036
333.0030036
333.0030036
333.0030036
333.0030036
333.0030036
333.0030036
333.0030036
333.0030036
333.0030036
333.0030036
333.0030036
333.0030036
333.0030036
333.0030036
333.0030036
333.0030036
333.0030036
333.0030036
333.0030036
333.0030036
333.0030036
333.0030036
333.0030036
333.0030036
333.0030036
333.0030036
333.0030036
333.0030036
333.0030036
333.0030036
333.0030036
333.0030036
333.0030036
333.0030036
333.0030036
333.0030036
333.0030036
333.0030036
333.0030036
333.0030036
333.0030036
333.0030036
333.0030036
333.0030036
333.0030036
333.0030036
333.0030036
333.0030036
333.0030036
333.0030036
333.0030036
333.0030036
333.0030036
333.0030036
333.0030036
333.0030036
333.0030036
333.0030036
333.0030036
333.0030036
333.0030036
333.0030036
333.0030036
333.0030036
333.0030036
333.0030036
333.0030036
333.0030036
333.0030036
333.0030036
333.0030036
333.0030036
333.0030036
333.0030036
333.0030036
333.0030036
333.0030036
333.0030036
333.0030036
333.0030036
333.0030036
333.0030036
333.0030036
333.0030036
333.0030036
333.0030036
333.0030036
333.0030036
333.0030036
333.0030036
333.0030036
333.0030036
333.0030036
333.0030036
333.0030036
333.0030036
333.0030036
333.0030036
333.0030036
333.0030036
333.0030036
333.0030036
333.0030036
333.0030036
333.0030036
333.0030036
333.0030036
333.0030036
333.0030036
333.0030036
333.0030036
333.0030036
333.0030036
333.0030036
333.0030036
333.0030036
333.0030036
333.0030036
333.0030036
333.0030036
333.0030036
333.0030036
333.0030036
333.0030036
333.0030036
333.0030036
333.0030036
333.0030036
333.0030036
333.0030036
333.0030036
333.0030036
333.0030036
333.0030036
333.0030036
333.0030036
546.6550566
546.6373259
546.6104014
546.5818034
546.5565219
546.5373984
546.5259697
546.522595
546.5271995
546.5392551
546.5580704
546.5829247
546.6131615
546.6483182
546.6884323
546.7320702
546.7783881
546.8267414
546.8765872
546.9274515
546.9774483
547.0261579
547.0747489
547.1229167
547.170402
547.2169899
547.2625142
547.3068661
547.3500033
547.3919563
547.4328214
547.4726931
547.5114841
547.5489442
547.5848137
547.6188605
547.6508786
547.6806809
547.7080997
547.7330114
547.7553804
547.775262
547.7927851
547.8081113
547.8214022
547.8328114
547.842489
547.8505916
547.8572907
547.8627885
547.8673606
547.8712384
547.874806
547.8778513
547.8799717
547.880989
547.8808099
547.8793981
547.8767352
547.8728153
547.8676474
547.8612583
547.8536976
547.8450415
547.8353926
547.8229338
547.8094747
547.795465
547.7810814
547.7664878
547.7516769
547.7366254
547.7213501
547.7058976
547.6903318
547.6747144
547.6590707
547.6434051
547.6277315
547.612083
547.5965082
547.5810673
547.5658286
547.5508673
547.536265
547.5221077
547.508485
547.4954841
547.4831856
547.4716599
547.4609512
547.4511169
547.442199
547.434238
547.4272755
547.4213569
547.4165347
547.4128731
547.4104506
547.4093588
547.4096974
547.4115702
547.4150843
547.42036
547.4275682
547.4369064
547.4482468
547.4615889
547.4769707
547.4944473
547.5140852
547.5359618
547.5601631
547.5867814
547.6159131
547.6476575
547.6821167
547.7193958
547.7596027
547.8028492
547.8492517
547.8989327
547.9520281
548.0087132
548.0690443
548.1330361
548.2007514
548.2722353
548.3475556
548.4268101
548.5101066
548.597543
548.6892183
548.7852388
548.885718
548.9907745
549.1005306
549.2151115
549.3346453
549.4579876
549.5865261
549.7203857
549.8596847
550.0045426
550.1550801
550.3110894
550.4721943
550.6393375
550.8126463
550.9922301
551.1781991
551.370744
551.5700239
551.7761911
551.9893971
552.2097952
552.4375414
552.672796
552.9157235
553.1664936
553.42528
553.692261
553.9676173
554.2515304
554.5441762
554.845723
555.1563421
555.4762266
555.8055882
556.1446371
556.4935935
556.8526729
557.2221139
557.6021482
557.9930072
558.3949441
558.8082167
559.2330981
559.6698776
560.1188852
560.5805079
561.0552204
561.543537
562.0457385
562.5619048
563.0921666
563.6367264
564.1958345
564.7697733
565.3588473
565.9633788
566.5837049
567.2201757
567.8731482
568.5430221
569.2302177
569.9351304
570.6581292
571.39549
572.1500286
572.9237554
573.7171266
574.5306226
575.3647478
576.2200638
577.0972217
577.9966671
578.918901
579.8644976
580.8341079
581.8285157
582.8483324
583.8940095
584.9661513
586.0655476
587.1929922
588.3492719
589.535136
590.7514852
591.9952612
593.2660902
594.5697807
595.9071525
597.2790033
598.6861798
600.1296475
601.6098928
603.1286432
604.6875807
606.2860038
607.9267935
609.6120919
611.3434511
613.1136741
614.9289784
616.7949853
618.7135353
620.6864943
622.7156744
624.8028551
626.9499317
629.1589608
631.4322075
633.7607677
636.1532135
638.6165515
641.1533546
643.7668857
646.4610818
649.2391608
652.1034821
655.0371215
658.0623419
661.1840468
664.4061792
667.7318126
671.1657637
674.6957096
678.3376833
682.1032492
685.9976958
690.028684
694.1852662
698.4795035
702.9326725
707.541286
712.3148738
717.2462986
722.3682683
727.6887394
733.193576
738.8998777
744.8340582
750.9900252
757.3771291
764.028864
770.9332113
778.1124034
785.5942749
793.3594912
801.479547
809.8782207
818.6232055
827.706772
837.1213539
846.8713494
856.938324
867.3797271
878.0945643
889.1019632
900.3324177
911.7846204
923.3446457
934.8927224
946.2969152
957.4137088
967.9637641
977.8894705
986.458597
993.9631487
998.0791284
993.4303885
967.8678619
918.0994396
845.7614172
752.90706
654.9989863
591.2668718
532.1588523
489.7840488
444.594746
408.8346803
384.3389067
365.5621232
355.0363573
348.1661036
343.2220828
339.9466439
337.7194564
336.1978308
335.1379781
334.5561442
334.2395256
333.9894146
333.7910097
333.6327216
333.5062859
333.4052006
333.3242602
333.2595082
333.2076811
333.1662095
333.1330578
333.1065496
333.0853807
333.0684847
333.0550065
333.0442672
333.0357151
333.0289111
333.0235032
333.0192083
333.0158006
333.0130994
333.0109601
333.0092675
333.0079296
333.0068732
333.0060398
333.0053831
333.0048662
333.0044598
333.0041405
333.0038901
333.0036938
333.0035402
333.0034202
333.0033264
333.0032534
333.0031965
333.0031523
333.003118
333.0030914
333.0030708
333.003055
333.0030427
333.0030333
333.0030261
333.0030206
333.0030163
333.0030131
333.0030107
333.0030088
333.0030075
333.0030064
333.0030056
333.0030051
333.0030046
333.0030043
333.0030041
333.0030039
333.0030038
333.0030037
333.0030037
333.0030036
333.0030036
333.0030036
333.0030036
333.0030036
333.0030036
333.0030036
333.0030036
333.0030036
333.0030036
333.0030036
333.0030036
333.0030036
333.0030036
333.0030036
333.0030036
333.0030036
333.0030036
333.0030036
333.0030036
333.0030036
333.0030036
333.0030036
333.0030036
333.0030036
333.0030036
333.0030036
333.0030036
333.0030036
333.0030036
333.0030036
333.0030036
333.0030036
333.0030036
333.0030036
333.0030036
333.0030036
333.0030036
333.0030036
333.0030036
333.0030036
333.0030036
333.0030036
333.0030036
333.0030036
333.0030036
333.0030036
333.0030036
333.0030036
333.0030036
333.0030036
333.0030036
333.0030036
333.0030036
333.0030036
333.0030036
333.0030036
333.0030036
333.0030036
333.0030036
333.0030036
333.0030036
333.0030036
333.0030036
333.0030036
333.0030036
333.0030036
333.0030036
333.0030036
333.0030036
333.0030036
333.0030036
333.0030036
333.0030036
333.0030036
333.0030036
333.0030036
333.0030036
333.0030036
333.0030036
333.0030036
333.0030036
333.0030036
333.0030036
333.0030036
333.0030036
333.0030036
333.0030036
333.0030036
333.0030036
333.0030036
333.0030036
333.0030036
333.0030036
333.0030036
333.0030036
333.0030036
333.0030036
333.0030036
333.0030036
333.0030036
333.0030036
333.0030036
333.0030036
333.0030036
333.0030036
333.0030036
333.0030036
333.0030036
333.0030036
333.0030036
333.0030036
333.0030036
333.0030036
333.0030036
333.0030036
333.0030036
333.0030036
333.0030036
333.0030036
333.0030036
333.0030036
333.0030036
333.0030036
333.0030036
333.0030036
333.0030036
333.0030036
333.0030036
333.0030036
333.0030036
333.0030036
333.0030036
333.0030036
333.0030036
333.0030036
333.0030036
333.0030036
333.0030036
333.0030036
333.0030036
333.0030036
333.0030036
333.0030036
333.0030036
333.0030036
333.0030036
333.0030036
333.0030036
333.0030036
333.0030036
333.0030036
333.0030036
333.0030036
333.0030036
333.0030036
333.0030036
333.0030036
333.0030036
333.0030036
333.0030036
333.0030036
333.0030036
333.0030036
333.0030036
333.0030036
333.0030036
333.0030036
333.0030036
333.0030036
333.0030036
333.0030036
333.0030036
333.0030036
333.0030036
333.0030036
333.0030036
333.0030036
333.0030036
333.0030036
333.0030036
333.0030036
333.0030036
333.0030036
333.0030036
333.0030036
333.0030036
333.0030036
333.0030036
333.0030036
333.0030036
333.0030036
333.0030036
333.0030036
333.0030036
333.0030036
333.0030036
333.0030036
333.0030036
333.0030036
333.0030036
333.0030036
333.0030036
333.0030036
333.0030036
333.0030036
333.0030036
333.0030036
333.0030036
333.0030036
333.0030036
333.0030036
333.0030036
333.0030036
333.0030036
333.0030036
609.0137862
608.9994927
608.9775729
608.9549449
608.9367188
608.9258062
608.9239777
608.9317541
608.9489856
608.9750336
609.0090635
609.0502109
609.0976098
609.1503555
609.205293
609.263975
609.3256431
609.3895995
609.4551936
609.5217913
609.588684
609.6554273
609.7218275
609.7875838
609.8523983
609.9160059
609.9781909
610.0388026
610.0977729
610.155138
610.2110802
610.2660707
610.319973
610.372196
610.4223812
610.4702434
610.5155317
610.5580046
610.5974143
610.6335486
610.6663544
610.695922
610.7224629
610.7462217
610.7674154
610.7862309
610.8028431
610.8174295
610.8301786
610.8412885
610.8509511
610.8593029
610.8647872
610.8680861
610.8700963
610.8707191
610.8698698
610.8674906
610.8635466
610.858023
610.8509242
610.8422757
610.8321269
610.820552
610.8076306
610.7933778
610.7780765
610.7619873
610.7454215
610.7290272
610.7123986
610.6954059
610.6780784
610.6604881
610.6427409
610.6249558
610.6071547
610.5893105
610.5714291
610.5535519
610.5357421
610.5180749
610.5006343
610.4835118
610.4668095
610.4506348
610.4351065
610.4203392
610.4064488
610.3935019
610.381578
610.370735
610.3610231
610.35249
610.3451835
610.3391546
610.3344625
610.3311825
610.3294128
610.3292717
610.3308875
610.3343883
610.3398963
610.347525
610.3570821
610.3675842
610.3804948
610.3958737
610.413787
610.4343075
610.4575183
610.4835167
610.512412
610.5443208
610.5793636
610.6176639
610.6593482
610.7045464
610.7533921
610.8060231
610.8625822
610.9232157
610.9880652
611.0572517
611.130867
611.2090325
611.2919989
611.3796591
611.4720764
611.5693873
611.6717451
611.779259
611.8920431
612.0102281
612.1339555
612.263373
612.3986306
612.5398779
612.6872586
612.8408948
613.0009704
613.1676446
613.3410716
613.5214062
613.7088091
613.903458
614.1055335
614.3151788
614.5325573
614.757417
614.9891037
615.2289916
615.4772588
615.7340871
615.9996613
616.2741692
616.5578029
616.8507598
617.1532434
617.4654639
617.7876368
618.1199834
618.4627281
618.8160989
619.1803147
619.5555747
619.9420368
620.3399683
620.7496558
621.1713555
621.6053395
622.0518702
622.5112375
622.9837249
623.4696215
623.9692351
624.482883
625.0108979
625.5536302
626.1114603
626.6848001
627.2740873
627.8797497
628.5021322
629.1415056
629.7981418
630.4723414
631.164435
631.8747786
632.6037492
633.3517417
634.119168
634.9064556
635.7098128
636.5322009
637.3758253
638.2411779
639.1286005
640.0385404
640.9715045
641.9280237
642.9086543
643.9139905
644.9446487
646.0012576
647.0831579
648.1920331
649.3288121
650.4942324
651.6890716
652.9141198
654.1700671
655.4573265
656.7680499
658.1113617
659.4886913
660.9010195
662.3493375
663.8346823
665.3581645
666.9208282
668.5236014
670.1674537
671.8531853
673.5814445
675.354275
677.1637339
679.017638
680.920429
682.8737858
684.8792751
686.9386244
689.0538661
691.2275618
693.4612629
695.7566354
698.1007867
700.5094682
702.9854911
705.5310079
708.1485751
710.8406404
713.6099823
716.4558711
719.3691409
722.3674458
725.4531349
728.6304099
731.9033896
735.2758977
738.7306642
742.2882172
745.9554821
749.7373587
753.6391421
757.6505098
761.7820361
766.0484726
770.4555512
775.0070907
779.6787314
784.5045021
789.497677
794.6577975
799.9723551
805.4810142
811.1942209
817.0913302
823.2009466
829.5433851
836.0974298
842.897117
849.9351466
857.1932331
864.7444292
872.5711677
880.7048559
889.1377713
897.854666
906.9102553
916.3293232
926.0789976
936.1844451
946.6551515
957.4805623
968.6834952
980.2248799
992.1007471
1004.307758
1016.786986
1029.529131
1042.49765
1055.578197
1068.745989
1081.85539
1094.819178
1107.525583
1119.996953
1132.112806
1143.531667
1151.706892
1150.525797
1126.627881
1075.597959
997.9026161
908.5525394
815.3073302
734.1512678
657.4458227
589.9415661
532.235656
489.6052126
441.3941002
408.7110031
382.6361294
366.8204968
356.5785685
349.0636482
343.8855538
340.387157
337.9801574
336.3333776
335.1953246
334.4574428
334.1612017
333.924834
333.7376898
333.5886555
333.4697434
333.3750036
333.2993571
333.2389346
333.1907739
333.1523124
333.1216507
333.0972221
333.0777537
333.0622648
333.0499448
333.0401523
333.0323779
333.0262091
333.021319
333.017446
333.014381
333.0119574
333.010043
333.0085322
333.0073409
333.0064027
333.0056644
333.005084
333.0046282
333.0042707
333.0039906
333.0037714
333.0036
333.0034662
333.0033618
333.0032805
333.0032173
333.0031683
333.0031302
333.0031007
333.003078
333.0030604
333.0030468
333.0030364
333.0030285
333.0030224
333.0030177
333.0030142
333.0030115
333.0030094
333.0030079
333.0030067
333.0030059
333.0030052
333.0030048
333.0030044
333.0030042
333.003004
333.0030038
333.0030038
333.0030037
333.0030036
333.0030036
333.0030036
333.0030036
333.0030036
333.0030036
333.0030036
333.0030036
333.0030036
333.0030036
333.0030036
333.0030036
333.0030036
333.0030036
333.0030036
333.0030036
333.0030036
333.0030036
333.0030036
333.0030036
333.0030036
333.0030036
333.0030036
333.0030036
333.0030036
333.0030036
333.0030036
333.0030036
333.0030036
333.0030036
333.0030036
333.0030036
333.0030036
333.0030036
333.0030036
333.0030036
333.0030036
333.0030036
333.0030036
333.0030036
333.0030036
333.0030036
333.0030036
333.0030036
333.0030036
333.0030036
333.0030036
333.0030036
333.0030036
333.0030036
333.0030036
333.0030036
333.0030036
333.0030036
333.0030036
333.0030036
333.0030036
333.0030036
333.0030036
333.0030036
333.0030036
333.0030036
333.0030036
333.0030036
333.0030036
333.0030036
333.0030036
333.0030036
333.0030036
333.0030036
333.0030036
333.0030036
333.0030036
333.0030036
333.0030036
333.0030036
333.0030036
333.0030036
333.0030036
333.0030036
333.0030036
333.0030036
333.0030036
333.0030036
333.0030036
333.0030036
333.0030036
333.0030036
333.0030036
333.0030036
333.0030036
333.0030036
333.0030036
333.0030036
333.0030036
333.0030036
333.0030036
333.0030036
333.0030036
333.0030036
333.0030036
333.0030036
333.0030036
333.0030036
333.0030036
333.0030036
333.0030036
333.0030036
333.0030036
333.0030036
333.0030036
333.0030036
333.0030036
333.0030036
333.0030036
333.0030036
333.0030036
333.0030036
333.0030036
333.0030036
333.0030036
333.0030036
333.0030036
333.0030036
333.0030036
333.0030036
333.0030036
333.0030036
333.0030036
333.0030036
333.0030036
333.0030036
333.0030036
333.0030036
333.0030036
333.0030036
333.0030036
333.0030036
333.0030036
333.0030036
333.0030036
333.0030036
333.0030036
333.0030036
333.0030036
333.0030036
333.0030036
333.0030036
333.0030036
333.0030036
333.0030036
333.0030036
333.0030036
333.0030036
333.0030036
333.0030036
333.0030036
333.0030036
333.0030036
333.0030036
333.0030036
333.0030036
333.0030036
333.0030036
333.0030036
333.0030036
333.0030036
333.0030036
333.0030036
333.0030036
333.0030036
333.0030036
333.0030036
333.0030036
333.0030036
333.0030036
333.0030036
333.0030036
333.0030036
333.0030036
333.0030036
333.0030036
333.0030036
333.0030036
333.0030036
333.0030036
333.0030036
333.0030036
333.0030036
333.0030036
333.0030036
333.0030036
333.0030036
333.0030036
333.0030036
333.0030036
333.0030036
333.0030036
333.0030036
333.0030036
333.0030036
333.0030036
333.0030036
333.0030036
333.0030036
333.0030036
333.0030036
333.0030036
333.0030036
333.0030036
333.0030036
333.0030036
333.0030036
333.0030036
333.0030036
664.8974856
664.8893316
664.8774529
664.8672386
664.8631056
664.8674137
664.8811444
664.9055272
664.9403308
664.9847228
665.0377252
665.0984483
665.1659334
665.2390574
665.3163814
665.3975648
665.4819209
665.5687177
665.6572465
665.7468399
665.8368853
665.9268782
666.0164087
666.105099
666.192598
666.2785887
666.3628011
666.4450281
666.5251456
666.6031268
666.6790318
666.7510811
666.8195875
666.8859264
666.9497936
667.0108989
667.0689743
667.1237396
667.174828
667.2215742
667.264024
667.3024472
667.337209
667.3686867