/*--------------------------------*- C++ -*----------------------------------*\
| =========                 |                                                 |
| \\      /  F ield         | OpenFOAM: The Open Source CFD Toolbox           |
|  \\    /   O peration     | Version:  v2006                                 |
|   \\  /    A nd           | Website:  www.openfoam.com                      |
|    \\/     M anipulation  |                                                 |
\*---------------------------------------------------------------------------*/
FoamFile
{
    version     2.0;
    format      ascii;
    class       volScalarField;
    location    "0.09";
    object      theta1_0;
}
// * * * * * * * * * * * * * * * * * * * * * * * * * * * * * * * * * * * * * //

dimensions      [0 0 0 0 0 0 0];


internalField   nonuniform List<scalar> 
72000
(
84.94438074
84.94145955
84.93605397
84.92846344
84.91897336
84.90782919
84.8952496
84.88142657
84.8665274
84.85070045
84.83408121
84.81679487
84.79893867
84.78059021
84.76182263
84.7427016
84.7232868
84.70363183
84.68378386
84.66378396
84.64366795
84.62346544
84.60320109
84.58289797
84.56257843
84.54226538
84.52198347
84.50175994
84.48162446
84.46160762
84.44173776
84.42203649
84.40251494
84.38317436
84.36401076
84.34501941
84.32619757
84.30754478
84.28906134
84.27074602
84.25259446
84.2345996
84.21675339
84.19904923
84.18148394
84.16405885
84.14678007
84.12965807
84.11270678
84.09594202
84.07937658
84.06301892
84.04687215
84.0309339
84.01520103
83.99966895
83.98434475
83.96918946
83.95418411
83.93931876
83.92458893
83.90999359
83.89553391
83.8812125
83.86703332
83.85300128
83.83911935
83.82539104
83.81182013
83.79840891
83.7851566
83.77205899
83.759109
83.74629757
83.73361464
83.72104989
83.70859344
83.69623701
83.68397496
83.67180466
83.65972636
83.64774261
83.63585743
83.62407546
83.61240098
83.60083709
83.58938509
83.57804415
83.56681138
83.55568213
83.54465066
83.53371074
83.52285641
83.51208257
83.5013852
83.49076144
83.48020935
83.46972767
83.45931575
83.44897287
83.43869848
83.42849189
83.41835195
83.4082768
83.39826352
83.38830768
83.37840318
83.36854284
83.35871883
83.34892313
83.33914783
83.32938547
83.31962938
83.3098739
83.30011455
83.29034806
83.28057226
83.27078595
83.26098874
83.25118094
83.24136359
83.23153879
83.22171026
83.2118822
83.20205611
83.19223372
83.18241432
83.17257789
83.16271019
83.15280054
83.14284019
83.1328215
83.1227376
83.11258222
83.10234962
83.09203452
83.08163201
83.0711375
83.06054666
83.04985507
83.03905689
83.02814655
83.01711945
83.00597342
82.99471359
82.98333523
82.97182032
82.96015808
82.94834028
82.93636005
82.92421139
82.91188904
82.89938814
82.88670418
82.87383285
82.86077
82.8475115
82.83405315
82.82039056
82.80651912
82.79243393
82.77812985
82.76360154
82.74884352
82.73385012
82.71861552
82.70313383
82.68739907
82.67140524
82.65514628
82.63861611
82.62180861
82.60471784
82.58733798
82.56966336
82.55168904
82.53341088
82.51482658
82.4959362
82.47675426
82.45734055
82.43787204
82.41897811
82.40062154
82.38222091
82.3636104
82.34473791
82.32558527
82.30614508
82.28641325
82.26638641
82.24606093
82.22543277
82.20449813
82.1832547
82.16170137
82.13983751
82.11766231
82.0951763
82.0723846
82.04929575
82.0259201
82.00227375
81.97839476
81.95425737
81.92985178
81.90517847
81.88024388
81.85505876
81.82962968
81.803946
81.77799394
81.75176289
81.72524304
81.69842764
81.67130379
81.6438292
81.61586689
81.58751306
81.55883248
81.52985006
81.50058248
81.47104268
81.44124074
81.411185
81.380883
81.35034343
81.31957925
81.28860778
81.25744301
81.22608602
81.19454275
81.16283047
81.13097863
81.0990347
81.06707799
81.03524438
81.00393514
80.97414059
80.9452109
80.9165333
80.88786267
80.85908662
80.83015462
80.80106596
80.77185837
80.74249056
80.71294656
80.68323192
80.65332153
80.62315589
80.59270191
80.56196686
80.53097158
80.49973222
80.46824138
80.43646016
80.4041676
80.37069679
80.33599947
80.30061319
80.26447613
80.22741632
80.18923238
80.14961258
80.10854298
80.0659598
80.02171338
79.97556995
79.92711891
79.87597143
79.82211677
79.76521295
79.70483555
79.64040489
79.5718001
79.49847
79.41926371
79.33315379
79.23910245
79.13603211
79.02207074
78.89492889
78.75071003
78.58604637
78.39867323
78.18455493
77.93940545
77.65459945
77.32232706
76.9340725
76.47837692
75.93675468
75.28498355
74.49421021
73.52846953
72.33819874
70.85636086
68.99283789
66.65285975
63.70419237
60.12804754
56.04944297
52.04127221
48.21358561
38.26958145
2.861076479
2.008802149
1.385456683
1.212256397
1.114950195
1.062048982
1.030414353
1.0130591
1.008338819
1.004357521
1.001762474
1.000323332
0.9994606076
0.998876122
0.9984935043
0.9982939496
0.9982418991
0.9982819197
0.9983837129
0.9985192374
0.9986737099
0.9988297818
0.9989807461
0.9991212364
0.9992484915
0.999361893
0.9994613223
0.9995476189
0.9996218012
0.9996850599
0.9997386746
0.9997838496
0.999821731
0.9998533631
0.9998796743
0.9999014857
0.9999195111
0.9999343658
0.9999465765
0.9999565906
0.9999647854
0.9999714777
0.9999769327
0.999981371
0.9999849761
0.9999878996
0.9999902668
0.9999921806
0.9999937258
0.9999949717
0.9999959749
0.9999967816
0.9999974296
0.9999979494
0.9999983659
0.9999986992
0.9999989657
0.9999991785
0.9999993482
0.9999994834
0.999999591
0.9999996766
0.9999997446
0.9999997985
0.9999998412
0.999999875
0.9999999017
0.9999999228
0.9999999395
0.9999999526
0.9999999629
0.999999971
0.9999999774
0.9999999824
0.9999999863
0.9999999894
0.9999999918
0.9999999936
0.9999999951
0.9999999962
0.9999999971
0.9999999978
0.9999999983
0.9999999987
0.999999999
0.9999999992
0.9999999994
0.9999999996
0.9999999997
0.9999999998
0.9999999998
0.9999999999
0.9999999999
0.9999999999
1
1
1
1
1
1
1
1
1
1
1
1
1
1
1
1
1
1
1
1
1
1
1
1
1
1
1
1
1
1
1
1
1
1
1
1
1
1
1
1
1
1
1
1
1
1
1
1
1
1
1
1
1
1
1
1
1
1
1
1
1
1
1
1
1
1
1
1
1
1
1
1
1
1
1
1
1
1
1
1
1
1
1
1
1
1
1
1
1
1
1
1
1
1
1
1
1
1
1
1
1
1
1
1
1
1
1
1
1
1
1
1
1
1
1
1
1
1
1
1
1
1
1
1
1
1
1
1
1
1
1
1
1
1
1
1
1
1
1
1
1
1
1
1
1
1
1
1
1
1
1
1
1
1
1
1
1
1
1
1
1
1
1
1
1
1
1
1
1
1
1
1
1
1
1
1
1
1
1
1
1
1
1
1
1
1
1
1
1
1
1
1
1
1
1
1
1
1
1
1
88.95796993
88.95387394
88.94657922
88.9366889
88.92470546
88.9110118
88.89590986
88.87963355
88.86236812
88.84426599
88.82545568
88.80604667
88.78613111
88.76578981
88.74509493
88.72409902
88.70284928
88.68138933
88.65975867
88.63799328
88.61612749
88.59418305
88.57217081
88.55010442
88.52799964
88.5058751
88.48375374
88.46166401
88.43964007
88.4177201
88.39594157
88.37433302
88.35290466
88.33164943
88.310553
88.28960162
88.26878619
88.24810251
88.22754898
88.20712309
88.18681906
88.16662872
88.14654385
88.12655907
88.10667399
88.08689423
88.06723154
88.04770323
88.02833132
88.00914168
87.99016492
87.97141579
87.95289245
87.93458661
87.91648382
87.89856853
87.88082406
87.86322891
87.84576733
87.82843034
87.81121466
87.79412123
87.77715401
87.76031946
87.74362724
87.72709221
87.71071647
87.69450584
87.67846866
87.66261148
87.64693482
87.63143401
87.61610086
87.60092525
87.58589627
87.5710026
87.55623272
87.54157673
87.52702835
87.51258553
87.49825024
87.48402755
87.46992466
87.45594965
87.44211033
87.42841306
87.41486192
87.4014582
87.38820035
87.37508432
87.36210442
87.34925421
87.33652762
87.32391964
87.31142678
87.29904712
87.28678015
87.27462641
87.26258723
87.25066436
87.23885989
87.22717594
87.21561439
87.2041764
87.1928619
87.1816682
87.17058861
87.15961508
87.14873925
87.13795285
87.12724815
87.11661822
87.10605727
87.09556096
87.08512654
87.07475279
87.06443994
87.05418939
87.04400353
87.03388549
87.02383902
87.01386861
87.00398004
86.99418242
86.984475
86.97485198
86.96530806
86.95583369
86.94641952
86.93705755
86.92774093
86.91846354
86.90921998
86.9000056
86.8908165
86.88164941
86.8725017
86.86337129
86.85425684
86.84515756
86.83606766
86.82698228
86.81789764
86.80881118
86.79972138
86.79062426
86.78151252
86.77237868
86.76321687
86.7540222
86.74479079
86.73551991
86.7262073
86.71685094
86.70744905
86.69799998
86.68850217
86.67895399
86.66935361
86.65969895
86.64998762
86.64021696
86.63038408
86.62048584
86.61051877
86.60047911
86.59036304
86.58016686
86.56988712
86.55952031
86.54906299
86.53851162
86.52786313
86.51711435
86.50626213
86.49530425
86.48423907
86.47306644
86.46178856
86.45040763
86.43891125
86.42723184
86.41501196
86.40226805
86.38931245
86.37619319
86.36291314
86.34946941
86.33585903
86.32207923
86.30812691
86.29399806
86.27968742
86.26518962
86.25050218
86.23562439
86.22055569
86.20529316
86.18982256
86.1741565
86.1583098
86.14229141
86.12610982
86.1097726
86.09327927
86.07662844
86.05981974
86.04285551
86.02574111
86.00848224
85.99107662
85.97350859
85.95575277
85.93779423
85.91962905
85.90125674
85.8826775
85.86390556
85.84492298
85.82570236
85.80623762
85.7865525
85.76665397
85.74654424
85.72622287
85.70568706
85.68493337
85.66396391
85.64278453
85.62139904
85.59979966
85.57798282
85.55595455
85.53373169
85.51134413
85.48884648
85.46634511
85.44394735
85.42170157
85.39950789
85.37717823
85.35454939
85.33149873
85.30791511
85.28376041
85.2590268
85.23366094
85.20760666
85.18081311
85.15319085
85.12460404
85.09486411
85.06400279
85.03199028
84.99878136
84.96433887
84.92858908
84.89154106
84.8539848
84.81583014
84.77599811
84.73396144
84.6892261
84.64143018
84.59027794
84.53533839
84.47620173
84.41240506
84.34355488
84.26926467
84.18933184
84.10251434
84.00775145
83.90391013
83.78980353
83.66421238
83.52541055
83.37161436
83.20094216
83.01080698
82.79826921
82.55950855
82.28951875
81.98400528
81.63639757
81.23908397
80.78319685
80.25733548
79.64687177
78.93451094
78.10055451
77.1176493
75.9517799
74.56123212
72.8917024
70.8721449
68.40809454
65.38647011
61.65686064
57.02346221
51.26411046
44.11960624
35.4721452
26.23321706
17.84607492
10.53018066
4.135098231
2.700171099
1.879397808
1.541258139
1.332002151
1.202887189
1.121810595
1.068646045
1.03962243
1.022311132
1.012123829
1.005910463
1.001839517
0.9990773964
0.9972606174
0.9962115961
0.9957350054
0.9956216683
0.9957550039
0.9960241522
0.996388966
0.9967763686
0.9971674713
0.9975406841
0.9978841046
0.9981946558
0.9984694079
0.9987099309
0.9989180674
0.9990964845
0.9992484414
0.9993769753
0.9994851286
0.9995757193
0.9996512701
0.99971405
0.9997660439
0.9998089744
0.9998443251
0.9998733635
0.9998971613
0.9999166223
0.9999325055
0.9999454436
0.9999559643
0.9999645046
0.9999714264
0.9999770279
0.9999815544
0.9999852069
0.9999881503
0.9999905192
0.9999924232
0.9999939517
0.9999951772
0.9999961587
0.9999969438
0.9999975712
0.9999980719
0.999998471
0.9999987889
0.9999990418
0.9999992427
0.9999994021
0.9999995286
0.9999996287
0.9999997079
0.9999997705
0.9999998199
0.9999998589
0.9999998896
0.9999999137
0.9999999326
0.9999999475
0.9999999592
0.9999999683
0.9999999754
0.999999981
0.9999999853
0.9999999887
0.9999999913
0.9999999933
0.9999999948
0.9999999961
0.999999997
0.9999999977
0.9999999983
0.9999999987
0.999999999
0.9999999993
0.9999999995
0.9999999996
0.9999999997
0.9999999998
0.9999999999
0.9999999999
0.9999999999
1
1
1
1
1
1
1
1
1
1
1
1
1
1
1
1
1
1
1
1
1
1
1
1
1
1
1
1
1
1
1
1
1
1
1
1
1
1
1
1
1
1
1
1
1
1
1
1
1
1
1
1
1
1
1
1
1
1
1
1
1
1
1
1
1
1
1
1
1
1
1
1
1
1
1
1
1
1
1
1
1
1
1
1
1
1
1
1
1
1
1
1
1
1
1
1
1
1
1
1
1
1
1
1
1
1
1
1
1
1
1
1
1
1
1
1
1
1
1
1
1
1
1
1
1
1
1
1
1
1
1
1
1
1
1
1
1
1
1
1
1
1
1
1
1
1
1
1
1
1
1
1
1
1
1
1
1
1
1
1
1
1
1
1
1
1
1
1
1
1
1
1
1
1
1
1
1
1
1
1
1
1
1
1
1
1
1
1
1
1
1
1
1
1
1
1
1
91.37353567
91.3688183
91.36034839
91.34887012
91.33499984
91.3192274
91.30192915
91.28337844
91.26378236
91.24330857
91.2220942
91.20025081
91.17787486
91.15505756
91.1318951
91.10842437
91.08469173
91.06074189
91.03661501
91.01234702
90.98797414
90.96351629
90.93897861
90.91437146
90.88970775
90.865004
90.84028266
90.81557447
90.79091989
90.76636813
90.74197215
90.71777609
90.69379135
90.66999843
90.64636986
90.62288261
90.59952332
90.57628808
90.55317814
90.53019329
90.50732635
90.48456565
90.46189888
90.43931781
90.41682147
90.39441707
90.37211977
90.34995178
90.327941
90.30611899
90.28451787
90.26316078
90.24206129
90.22120699
90.2005715
90.18012901
90.15985503
90.13972766
90.11973159
90.09985877
90.08010752
90.06048093
90.04098511
90.02162818
90.0024212
89.98338307
89.9645172
89.94583366
89.92734717
89.90907075
89.89100551
89.87314514
89.85547892
89.8379942
89.82067822
89.80351779
89.78649772
89.76960448
89.75282998
89.73617224
89.71963467
89.70322476
89.6869528
89.67083032
89.65486854
89.63907681
89.62346142
89.60802489
89.59276586
89.57767946
89.56275853
89.54799493
89.53338112
89.51891116
89.50458129
89.49038994
89.47633743
89.46242541
89.4486564
89.43503351
89.4215603
89.40824064
89.39507825
89.38207629
89.36923704
89.35655988
89.34403496
89.33165236
89.31940221
89.30727501
89.29526194
89.28335521
89.27154849
89.25983731
89.24821923
89.23669383
89.22526245
89.21392789
89.20269399
89.19156535
89.18054689
89.16964355
89.15885984
89.14819905
89.13766114
89.12724364
89.11694243
89.10674995
89.09665844
89.08666099
89.07675136
89.0669235
89.057172
89.04749236
89.037881
89.02833514
89.01885268
89.00943227
89.00007367
88.9907798
88.98154163
88.97235355
88.96321112
88.95411045
88.94504782
88.93601864
88.92701731
88.91803814
88.90907611
88.90012621
88.89118408
88.882249
88.87331944
88.86439394
88.85547132
88.84655058
88.83763083
88.82871112
88.8197902
88.81086646
88.80193783
88.79300189
88.78405591
88.77509691
88.76612144
88.75712555
88.74810514
88.73905654
88.72997648
88.72086142
88.71170792
88.70251227
88.69327129
88.6839816
88.67463979
88.66524315
88.65578917
88.64627584
88.63670139
88.62705957
88.61732768
88.6074613
88.59739412
88.58712489
88.57670786
88.5661739
88.55553433
88.54479239
88.53394821
88.52300045
88.5119466
88.50078262
88.48950127
88.47808607
88.46653943
88.45486494
88.44306444
88.43114204
88.41910259
88.40694904
88.39468456
88.38231336
88.36984047
88.35727032
88.34460445
88.33184397
88.31898637
88.30602986
88.29297361
88.2798156
88.26654936
88.25316042
88.23962635
88.22591575
88.21204669
88.19803236
88.18389843
88.16972046
88.15544308
88.14103146
88.12647183
88.11175236
88.09686847
88.08181773
88.06659596
88.05119417
88.03559626
88.0197987
88.00379917
87.98759656
87.97117751
87.95453202
87.93765933
87.92057145
87.90327996
87.88579922
87.86813514
87.85034203
87.83241941
87.81428148
87.79580713
87.77688305
87.75740613
87.73726351
87.71632956
87.69461501
87.67206297
87.64859259
87.62409992
87.59847761
87.57160464
87.5433954
87.51374481
87.48254561
87.4496995
87.41513393
87.37876573
87.34058127
87.30053392
87.25831718
87.21340576
87.16535587
87.11372689
87.05804779
86.9978384
86.9325774
86.86162451
86.78429823
86.69999127
86.60812044
86.50789558
86.39801422
86.27718444
86.14414711
85.99720804
85.83452304
85.65405721
85.45315112
85.22878113
84.97755824
84.69534587
84.37741324
84.01784475
83.61030124
83.14716221
82.61919797
82.01457115
81.31800104
80.51256077
79.5759145
78.48422863
77.20597462
75.69550312
73.90436503
71.76842997
69.20910218
66.1343945
62.41606094
57.90641467
52.46762914
45.97904397
38.43344663
30.2261569
22.25134995
15.1511931
9.539027433
5.591492597
3.726691345
2.647861766
2.070992021
1.703677203
1.464946844
1.305606831
1.193852177
1.121459761
1.076518942
1.047431242
1.028341631
1.015606123
1.007303329
1.001844479
0.9983136281
0.9961776298
0.9950521401
0.994653556
0.994583143
0.9948397453
0.9952239799
0.9956919159
0.9961854479
0.9966629049
0.9971160947
0.9975276862
0.9978969521
0.9982225838
0.9985055127
0.9987496071
0.9989581067
0.9991350229
0.9992843295
0.9994096223
0.9995143143
0.9996014437
0.9996736941
0.999733414
0.9997826419
0.9998231124
0.9998563009
0.9998834607
0.9999056363
0.999923709
0.9999384099
0.9999503475
0.9999600253
0.999967859
0.9999741903
0.9999793002
0.9999834184
0.999986733
0.9999893974
0.9999915365
0.9999932516
0.9999946252
0.999995724
0.9999966019
0.9999973026
0.9999978612
0.999998306
0.9999986598
0.9999989409
0.999999164
0.9999993409
0.999999481
0.9999995917
0.9999996793
0.9999997484
0.9999998028
0.9999998457
0.9999998794
0.9999999059
0.9999999267
0.999999943
0.9999999557
0.9999999657
0.9999999734
0.9999999795
0.9999999842
0.9999999878
0.9999999906
0.9999999928
0.9999999945
0.9999999958
0.9999999968
0.9999999976
0.9999999982
0.9999999986
0.999999999
0.9999999993
0.9999999995
0.9999999996
0.9999999997
0.9999999998
0.9999999999
0.9999999999
0.9999999999
1
1
1
1
1
1
1
1
1
1
1
1
1
1
1
1
1
1
1
1
1
1
1
1
1
1
1
1
1
1
1
1
1
1
1
1
1
1
1
1
1
1
1
1
1
1
1
1
1
1
1
1
1
1
1
1
1
1
1
1
1
1
1
1
1
1
1
1
1
1
1
1
1
1
1
1
1
1
1
1
1
1
1
1
1
1
1
1
1
1
1
1
1
1
1
1
1
1
1
1
1
1
1
1
1
1
1
1
1
1
1
1
1
1
1
1
1
1
1
1
1
1
1
1
1
1
1
1
1
1
1
1
1
1
1
1
1
1
1
1
1
1
1
1
1
1
1
1
1
1
1
1
1
1
1
1
1
1
1
1
1
1
1
1
1
1
1
1
1
1
1
1
1
1
1
1
1
1
1
1
1
1
1
1
1
1
1
1
1
1
1
1
1
1
1
93.24190448
93.23665566
93.22719865
93.2143501
93.198822
93.1812069
93.16195834
93.14136922
93.11965744
93.09700702
93.07356787
93.04945138
93.02475435
92.9995694
92.97399312
92.94807841
92.92188128
92.89545199
92.86883304
92.84205856
92.81515302
92.78813496
92.76101871
92.73381375
92.70652951
92.6791787
92.65178106
92.62436774
92.59698515
92.56969642
92.54257956
92.51572545
92.4891473
92.46278885
92.43660043
92.41054533
92.38460551
92.35878029
92.33307935
92.30751022
92.28206313
92.25672008
92.23146045
92.20626986
92.18114498
92.15609387
92.13113491
92.10629543
92.08161022
92.05711895
92.03286145
92.00887019
91.98516616
91.96173568
91.93854418
91.91555516
91.89273539
91.87005895
91.84750928
91.82507916
91.80276923
91.78058572
91.75853752
91.73663348
91.71488175
91.69329045
91.67187547
91.65065667
91.62965928
91.60891444
91.58841846
91.56816128
91.54812795
91.52830174
91.50866817
91.48921377
91.46991662
91.45075617
91.43172145
91.41281071
91.39402929
91.37538781
91.35690053
91.33858353
91.32045266
91.3025213
91.28479862
91.26728871
91.2499902
91.23289671
91.21599841
91.19928426
91.18274427
91.16637091
91.15015988
91.13411003
91.11822274
91.10250101
91.08694863
91.07156989
91.05636985
91.04135421
91.02652883
91.01189899
90.99746951
90.98324259
90.96920437
90.95534288
90.94164636
90.92810362
90.91470442
90.90143953
90.88830144
90.87528513
90.86238827
90.84961113
90.83695619
90.82442767
90.81203103
90.79977247
90.78765831
90.77569443
90.76388524
90.75223254
90.74073571
90.72939335
90.71820426
90.70715923
90.69625088
90.68547314
90.67482042
90.66428616
90.65386456
90.64355106
90.63334228
90.6232358
90.61322991
90.60332336
90.59351504
90.58380304
90.57418367
90.56465242
90.55520463
90.54583554
90.53654014
90.52731277
90.51814775
90.50904123
90.49998937
90.49098904
90.48203772
90.47313274
90.46427236
90.45545542
90.44668126
90.43794954
90.4292601
90.42061269
90.41200673
90.40344104
90.39491372
90.38642245
90.37796459
90.36953729
90.36113713
90.35275978
90.34439899
90.33605213
90.32771677
90.31938924
90.31106604
90.30274318
90.29441726
90.28608456
90.27774149
90.2693848
90.26101126
90.25261734
90.24419821
90.23574542
90.22724334
90.2186677
90.20999283
90.20121583
90.19235391
90.18342224
90.17442942
90.16537943
90.15627349
90.14711106
90.13789041
90.12860895
90.11926348
90.10985082
90.10036471
90.09079076
90.08112752
90.07139361
90.0616041
90.05175667
90.04184738
90.03187699
90.02184888
90.01176632
90.00163138
89.99144665
89.98120718
89.97090816
89.96054531
89.95011363
89.93960579
89.92900945
89.91830061
89.90748204
89.89655083
89.88551119
89.87437353
89.86314938
89.851831
89.84041573
89.82889376
89.81724081
89.80544772
89.79351334
89.7814385
89.76920435
89.75679933
89.74420268
89.73139488
89.71835966
89.70508182
89.69154767
89.67774263
89.66364946
89.64928958
89.63466943
89.61979507
89.60464019
89.58914941
89.57323855
89.55679813
89.53976158
89.52205833
89.50362754
89.48438844
89.46424825
89.44311809
89.42089332
89.397465
89.37272493
89.34657155
89.31893672
89.28962282
89.25846036
89.22529198
89.1899469
89.15226188
89.11221533
89.06957013
89.02396861
88.97499283
88.92218027
88.86510724
88.80330755
88.73606868
88.66270618
88.5824419
88.49464415
88.39848516
88.29303948
88.17736081
88.05014425
87.90981339
87.75467007
87.58289183
87.39237405
87.18080875
86.94549147
86.68300169
86.38907794
86.05886779
85.68656108
85.26595298
84.79011134
84.25112103
83.63852294
82.93810975
82.13410302
81.20915543
80.1405427
78.90023471
77.45427298
75.76503125
73.77465982
71.42457754
68.65051208
65.36099862
61.441773
56.8136261
51.41340287
45.21326243
38.36264206
31.11229352
23.90465211
17.29815138
12.01572014
8.286907587
5.88978636
4.287778101
3.205022095
2.485092603
2.005964542
1.691538267
1.479602147
1.325259382
1.219288486
1.145496805
1.095351475
1.06003933
1.036510082
1.020721446
1.010430384
1.003748492
0.9994835898
0.9967968823
0.9953412034
0.9947188796
0.9945630697
0.9947289412
0.9950887762
0.9955270534
0.9960228219
0.9965079901
0.9969710505
0.9974002373
0.9977841081
0.9981250245
0.9984224673
0.9986790831
0.9988990066
0.9990857981
0.9992435271
0.9993760092
0.9994867445
0.9995788955
0.9996553287
0.999718517
0.9997705816
0.9998133875
0.9998484751
0.9998771783
0.9999006049
0.9999196871
0.9999352018
0.9999477936
0.9999579962
0.9999662497
0.9999729163
0.9999782932
0.9999826239
0.9999861072
0.9999889053
0.9999911501
0.9999929487
0.9999943882
0.9999955389
0.9999964576
0.9999971902
0.9999977738
0.9999982382
0.9999986073
0.9999989004
0.9999991328
0.9999993168
0.9999994625
0.9999995776
0.9999996685
0.9999997401
0.9999997966
0.999999841
0.9999998758
0.9999999032
0.9999999247
0.9999999414
0.9999999546
0.9999999648
0.9999999728
0.999999979
0.9999999838
0.9999999876
0.9999999905
0.9999999927
0.9999999944
0.9999999958
0.9999999968
0.9999999976
0.9999999982
0.9999999987
0.999999999
0.9999999993
0.9999999995
0.9999999996
0.9999999997
0.9999999998
0.9999999999
0.9999999999
1
1
1
1
1
1
1
1
1
1
1
1
1
1
1
1
1
1
1
1
1
1
1
1
1
1
1
1
1
1
1
1
1
1
1
1
1
1
1
1
1
1
1
1
1
1
1
1
1
1
1
1
1
1
1
1
1
1
1
1
1
1
1
1
1
1
1
1
1
1
1
1
1
1
1
1
1
1
1
1
1
1
1
1
1
1
1
1
1
1
1
1
1
1
1
1
1
1
1
1
1
1
1
1
1
1
1
1
1
1
1
1
1
1
1
1
1
1
1
1
1
1
1
1
1
1
1
1
1
1
1
1
1
1
1
1
1
1
1
1
1
1
1
1
1
1
1
1
1
1
1
1
1
1
1
1
1
1
1
1
1
1
1
1
1
1
1
1
1
1
1
1
1
1
1
1
1
1
1
1
1
1
1
1
1
1
1
1
1
1
1
1
1
1
94.77267131
94.76700676
94.75676761
94.74280082
94.72588783
94.70674491
94.6859515
94.66373743
94.64030393
94.61585863
94.59057665
94.56455441
94.53788383
94.51065442
94.48293592
94.45483061
94.4264121
94.39773916
94.36885873
94.33980703
94.31061036
94.28128593
94.25184353
94.22228828
94.19262375
94.16285576
94.13299701
94.10307426
94.07313609
94.04325783
94.01353857
93.98408498
93.95493763
93.9260382
93.89730962
93.86869567
93.84017281
93.81174779
93.78344875
93.7553126
93.7273173
93.69943084
93.67161657
93.64384866
93.61611988
93.58843883
93.56082695
93.53331684
93.50595127
93.4787815
93.45186234
93.4252403
93.39893308
93.37293035
93.34719344
93.32167079
93.29631679
93.2710987
93.24599772
93.2210076
93.19613242
93.17138356
93.14677491
93.1223169
93.09801485
93.07387643
93.04991681
93.02616053
93.0026409
92.97939954
92.9564455
92.93376983
92.91135097
92.8891645
92.86719488
92.84544576
92.82387639
92.80244703
92.78114354
92.75996536
92.73892063
92.71802388
92.69729439
92.6767543
92.65642591
92.63632826
92.61647446
92.59687083
92.5775161
92.5584014
92.53951257
92.52083386
92.50235139
92.48405524
92.46594033
92.44800611
92.43025564
92.41269385
92.39532584
92.37815673
92.36119289
92.34444215
92.32791293
92.31161257
92.29554505
92.27970854
92.26409495
92.2486916
92.23348442
92.21846014
92.20360685
92.18891318
92.17436955
92.15996982
92.14571163
92.13159596
92.11762653
92.10380922
92.09015137
92.07666116
92.06334684
92.05021615
92.03727485
92.02452355
92.01195987
91.99958203
91.98739114
91.97537606
91.9635295
91.95184651
91.94032385
91.92895226
91.917725
91.90663731
91.89568598
91.88486898
91.87418504
91.86363327
91.85321261
91.84292125
91.83275592
91.8227123
91.81278534
91.8029695
91.79325902
91.78364811
91.77413141
91.76470443
91.75536352
91.74610624
91.73693077
91.72783392
91.71881398
91.7098701
91.70100215
91.69221047
91.68349571
91.67485851
91.66629909
91.65781671
91.6494094
91.64107468
91.63280985
91.62461222
91.61647865
91.60840559
91.60039007
91.59242713
91.58451241
91.57664149
91.56881048
91.5610151
91.55325143
91.54551544
91.53780326
91.53011126
91.52243583
91.514773
91.50711789
91.49946403
91.49180403
91.48412479
91.47641203
91.46866228
91.46088039
91.45307255
91.44524363
91.43739681
91.42953343
91.42165323
91.41375492
91.4058369
91.39789908
91.38994716
91.38197547
91.37397852
91.36595606
91.35791047
91.34984456
91.34175783
91.33364632
91.32550794
91.31735032
91.30917705
91.30098942
91.29278635
91.28456458
91.27631876
91.26804276
91.25973074
91.2513777
91.24297978
91.2345363
91.2260472
91.21747101
91.20881414
91.20007938
91.19126587
91.18236837
91.17337934
91.16428727
91.1550786
91.14574554
91.13628764
91.1267144
91.11699705
91.10712049
91.09705405
91.08676949
91.07624476
91.0654612
91.05440334
91.04305664
91.03142052
91.0194876
91.0072494
90.99471166
90.98179215
90.9683989
90.95444252
90.93987302
90.92462267
90.90862428
90.89182867
90.87419011
90.85556159
90.83583775
90.81489627
90.79261987
90.76889625
90.74360325
90.71660129
90.68770687
90.65670912
90.62342592
90.58766655
90.54923854
90.50791927
90.46343686
90.41546493
90.36363505
90.30744003
90.24634221
90.17969826
90.10683065
90.02701249
89.93950593
89.84356635
89.73831712
89.62279541
89.49582572
89.35608407
89.2017436
89.03062422
88.8408858
88.63018005
88.39603808
88.1358921
87.84673986
87.52377597
87.16184906
86.75479633
86.29687662
85.78082598
85.19780743
84.53632977
83.78358742
82.92495612
81.94222962
80.81443193
79.5147236
78.01180077
76.26864247
74.23695046
71.87116393
69.11459989
65.88799596
62.11608988
57.75385312
52.78393042
47.22977042
41.21788913
34.91558805
28.52095278
22.40026495
17.06497144
12.92959844
9.806141903
7.450190672
5.627978652
4.235647887
3.228406599
2.537181859
2.073291331
1.760412156
1.541362351
1.381611434
1.266588009
1.180843094
1.121723454
1.079288772
1.049969413
1.029986609
1.016727481
1.008005823
1.00236565
0.9987563655
0.996559063
0.9954145989
0.994979716
0.9948852862
0.9951096045
0.9954714812
0.9958988113
0.996370686
0.9968236824
0.9972542287
0.9976494586
0.9980015565
0.9983128631
0.9985835377
0.9988164888
0.9990154224
0.9991840955
0.99932607
0.9994450318
0.9995443288
0.999626744
0.9996950249
0.9997513369
0.9997976713
0.999835686
0.9998667949
0.9998921978
0.9999128961
0.9999297292
0.9999433925
0.9999544637
0.99996342
0.9999706531
0.9999764866
0.9999811838
0.9999849612
0.9999879946
0.9999904276
0.9999923763
0.9999939354
0.9999951811
0.9999961753
0.9999969678
0.9999975989
0.9999981007
0.9999984994
0.9999988158
0.9999990666
0.9999992651
0.9999994221
0.9999995461
0.999999644
0.9999997211
0.9999997818
0.9999998295
0.999999867
0.9999998964
0.9999999194
0.9999999374
0.9999999514
0.9999999624
0.9999999709
0.9999999776
0.9999999828
0.9999999868
0.9999999899
0.9999999923
0.9999999941
0.9999999955
0.9999999966
0.9999999975
0.9999999981
0.9999999986
0.9999999989
0.9999999992
0.9999999994
0.9999999996
0.9999999997
0.9999999998
0.9999999999
0.9999999999
0.9999999999
1
1
1
1
1
1
1
1
1
1
1
1
1
1
1
1
1
1
1
1
1
1
1
1
1
1
1
1
1
1
1
1
1
1
1
1
1
1
1
1
1
1
1
1
1
1
1
1
1
1
1
1
1
1
1
1
1
1
1
1
1
1
1
1
1
1
1
1
1
1
1
1
1
1
1
1
1
1
1
1
1
1
1
1
1
1
1
1
1
1
1
1
1
1
1
1
1
1
1
1
1
1
1
1
1
1
1
1
1
1
1
1
1
1
1
1
1
1
1
1
1
1
1
1
1
1
1
1
1
1
1
1
1
1
1
1
1
1
1
1
1
1
1
1
1
1
1
1
1
1
1
1
1
1
1
1
1
1
1
1
1
1
1
1
1
1
1
1
1
1
1
1
1
1
1
1
1
1
1
1
1
1
1
1
1
1
1
1
1
1
1
96.06464256
96.0587563
96.04806948
96.03340378
96.01554985
95.9953081
95.97340154
95.94997678
95.92518801
95.89932967
95.87270301
95.84525785
95.81708104
95.78828045
95.75895883
95.72920969
95.69911247
95.6687321
95.63811994
95.60731468
95.57634309
95.54522111
95.51395524
95.48254482
95.45098517
95.41927259
95.38740545
95.35539676
95.32328925
95.2911679
95.25916437
95.22742077
95.19605012
95.16496973
95.13404284
95.10318156
95.07235548
95.04158254
95.0109158
94.98040519
94.95001905
94.91978232
94.8896084
94.85944471
94.82928075
94.79912665
94.76900676
94.73895794
94.70903045
94.67928963
94.64981458
94.62068571
94.59195307
94.56359895
94.53555001
94.50772424
94.48005726
94.45250771
94.42505438
94.39769254
94.37043109
94.34328986
94.31629297
94.2894546
94.26277079
94.23624144
94.20988012
94.18371549
94.15778875
94.13214269
94.10682901
94.08184253
94.05714734
94.03270088
94.00847842
93.98447121
93.96061768
93.93688809
93.91327413
93.88977956
93.86641648
93.84320394
93.82016724
93.79733661
93.77474381
93.75241619
93.73037207
93.70862139
93.68716373
93.6659865
93.6450684
93.62438606
93.60391967
93.58365585
93.56358844
93.54371798
93.52405038
93.50459401
93.4853553
93.46633902
93.44755235
93.42900579
93.41071177
93.39268188
93.37492343
93.35743609
93.34021032
93.32322989
93.30647645
93.28993399
93.27358978
93.25742908
93.24143848
93.22561013
93.20994163
93.19443484
93.17909506
93.16393013
93.14894971
93.13416442
93.11958504
93.10522241
93.09108945
93.07718279
93.06349414
93.05001833
93.03675054
93.02368679
93.01082245
92.99815423
92.98567985
92.97338676
92.96126748
92.9493172
92.93753305
92.92591359
92.91445828
92.903167
92.8920393
92.88107383
92.87026773
92.85961661
92.84911479
92.8387558
92.82853289
92.81843957
92.80846998
92.79861925
92.78888347
92.77925969
92.7697456
92.76033922
92.75103931
92.74184543
92.73275807
92.72377839
92.71490807
92.70614899
92.69750265
92.68896914
92.68054575
92.67222958
92.66401777
92.65590781
92.64789676
92.63998124
92.63215938
92.62442517
92.61677223
92.60919665
92.60169421
92.59426034
92.58689056
92.57958047
92.57232596
92.56512322
92.5579686
92.55085841
92.5437884
92.53675333
92.52974644
92.52276087
92.5157914
92.50883559
92.50189354
92.49496613
92.48805546
92.48116443
92.47429436
92.46744495
92.4606147
92.45380083
92.44699995
92.44021586
92.43345
92.42670918
92.41999483
92.41329896
92.40662036
92.39995899
92.39331489
92.38668831
92.38008182
92.37349794
92.36693773
92.36040019
92.35388168
92.34737484
92.34087029
92.33436088
92.32784323
92.3213196
92.31480168
92.30827281
92.3017197
92.29512633
92.28848155
92.28176781
92.27498403
92.26812764
92.2611853
92.25414142
92.2469871
92.23971307
92.23230742
92.22475714
92.21705073
92.20914976