/*--------------------------------*- C++ -*----------------------------------*\
| =========                 |                                                 |
| \\      /  F ield         | OpenFOAM: The Open Source CFD Toolbox           |
|  \\    /   O peration     | Version:  v2006                                 |
|   \\  /    A nd           | Website:  www.openfoam.com                      |
|    \\/     M anipulation  |                                                 |
\*---------------------------------------------------------------------------*/
FoamFile
{
    version     2.0;
    format      ascii;
    class       volScalarField;
    location    "0.09";
    object      theta2_0;
}
// * * * * * * * * * * * * * * * * * * * * * * * * * * * * * * * * * * * * * //

dimensions      [0 0 0 0 0 0 0];


internalField   nonuniform List<scalar> 
72000
(
3.766154799
3.765734542
3.765158184
3.764552217
3.764014169
3.763587892
3.76329517
3.76313876
3.763115602
3.763216578
3.763427644
3.763728269
3.764109239
3.764567638
3.765095167
3.765680092
3.766310723
3.766977069
3.767671207
3.768387493
3.769121509
3.769867027
3.770616171
3.771362292
3.772100491
3.772827123
3.773539538
3.774236033
3.774915827
3.775578942
3.776225787
3.776856309
3.777469048
3.77806117
3.77862927
3.779169955
3.779680097
3.780156932
3.780598191
3.781002363
3.781368974
3.781698658
3.78199295
3.782253939
3.782483925
3.782685263
3.782860344
3.783011649
3.783141727
3.783252712
3.783343783
3.783417888
3.783479913
3.783528843
3.783558852
3.783556066
3.783540029
3.78350627
3.783453867
3.783382684
3.783292937
3.783185205
3.783060578
3.782920903
3.782769032
3.782607626
3.78243799
3.782260997
3.782078107
3.78189069
3.781699352
3.781504351
3.781306062
3.781105101
3.780902225
3.780698144
3.78049335
3.780288186
3.780083036
3.779878445
3.779675142
3.779474024
3.779276114
3.779082545
3.778894534
3.778713357
3.77854031
3.778376659
3.778223587
3.778082198
3.777953213
3.777837564
3.77773597
3.77764913
3.777577756
3.777522616
3.777484579
3.777464805
3.777464254
3.777484504
3.777527005
3.777593369
3.777685302
3.7778046
3.777953016
3.778131843
3.778341636
3.778582803
3.778855948
3.779161909
3.77950172
3.77987658
3.780287821
3.780736872
3.781225239
3.781754482
3.782326206
3.782942064
3.783603758
3.784313034
3.785071662
3.785881288
3.786742721
3.787652581
3.788612586
3.78962383
3.790683544
3.791799889
3.792975864
3.794213389
3.795514168
3.796879835
3.798312036
3.799812486
3.801382992
3.803025455
3.804741888
3.806534457
3.808405516
3.810357146
3.812391155
3.81450915
3.81671304
3.819005444
3.821391873
3.8238746
3.826451699
3.829124758
3.831895933
3.834767413
3.837741489
3.840820667
3.84400751
3.847304572
3.850714404
3.854239585
3.857882737
3.861646548
3.865533779
3.869547272
3.873689946
3.877964795
3.882374856
3.886923184
3.891612799
3.896446699
3.901427983
3.906559927
3.911846043
3.917289944
3.922895393
3.9286662
3.934606467
3.940720254
3.947011588
3.953484836
3.960144322
3.966994338
3.974037864
3.981271245
3.988697518
3.996329533
4.004143273
4.012146535
4.020373102
4.028830675
4.037523477
4.046455867
4.055632736
4.065059435
4.074741685
4.084685518
4.094897258
4.105383528
4.116151275
4.127207671
4.138559913
4.150215219
4.162180855
4.174464469
4.18707416
4.200018874
4.213309983
4.226968479
4.240994208
4.25539344
4.270174419
4.285343829
4.300900214
4.316825419
4.333154452
4.349907265
4.36710599
4.384765519
4.402900321
4.421525643
4.440658526
4.460322369
4.48052731
4.501285636
4.522613296
4.544528329
4.567048528
4.590191493
4.613975399
4.638419528
4.663544158
4.689370038
4.715907981
4.743162136
4.771192374
4.800035207
4.82971845
4.860267489
4.891717183
4.924101493
4.957424206
4.991750047
5.027103981
5.06354441
5.101126894
5.139895715
5.17989234
5.221154951
5.263715787
5.307562641
5.352829278
5.399592822
5.447890842
5.497793839
5.549409056
5.602818904
5.65810572
5.71535558
5.774654583
5.836076151
5.899749146
5.965771762
6.034272229
6.105383218
6.179249409
6.256030084
6.335890971
6.419012445
6.505572968
6.595763221
6.689793196
6.78788811
6.890285058
6.997269229
7.109160611
7.226254944
7.348891744
7.477403864
7.611999563
7.752923025
7.900573742
8.055596595
8.21835491
8.38949423
8.569354068
8.758117799
8.956762793
9.166090881
9.387179474
9.619959304
9.864633396
10.12142845
10.39191572
10.67590612
10.97248086
11.27940917
11.59645217
11.92054351
12.24683059
12.57022091
12.88520461
13.18543216
13.44987048
13.66656115
13.8338697
13.96462362
14.22406698
15.07598239
17.7184124
24.99079045
53.35178671
76.64682833
86.14446778
91.26139145
94.17044033
96.04987317
97.32584484
98.18632872
98.72953041
99.10967063
99.38185767
99.56401684
99.67838441
99.75336402
99.80675684
99.84678323
99.87774178
99.90211549
99.92150219
99.93701361
99.94946037
99.959461
99.96750122
99.97396462
99.97915896
99.98333111
99.98667984
99.98936573
99.99151804
99.99324128
99.99461973
99.99572129
99.99660075
99.9973022
99.99786111
99.998306
99.99865977
99.9989408
99.99916383
99.99934063
99.99948064
99.9995914
99.99967893
99.99974801
99.99980248
99.99984538
99.99987913
99.99990564
99.99992644
99.99994275
99.99995551
99.99996548
99.99997327
99.99997934
99.99998406
99.99998773
99.99999057
99.99999278
99.99999448
99.99999579
99.9999968
99.99999758
99.99999817
99.99999863
99.99999897
99.99999924
99.99999943
99.99999958
99.9999997
99.99999978
99.99999984
99.99999989
99.99999992
99.99999995
99.99999997
99.99999998
99.99999999
99.99999999
100
100
100
100
100
100
100
100
100
100
100
100
100
100
100
100
100
100
100
100
100
100
100
100
100
100
100
100
100
100
100
100
100
100
100
100
100
100
100
100
100
100
100
100
100
100
100
100
100
100
100
100
100
100
100
100
100
100
100
100
100
100
100
100
100
100
100
100
100
100
100
100
100
100
100
100
100
100
100
100
100
100
100
100
100
100
100
100
100
100
100
100
100
100
100
100
100
100
100
100
100
100
100
100
100
100
100
100
100
100
100
100
100
100
100
100
100
100
100
100
100
100
100
100
100
100
100
100
100
100
100
100
100
100
100
100
100
100
100
100
100
100
100
100
100
100
100
100
100
100
100
100
100
100
100
100
100
100
100
100
100
100
100
100
100
100
100
100
100
100
100
100
100
100
100
100
100
100
100
100
100
100
100
100
100
100
100
100
100
100
100
100
100
100
100
100
100
100
100
100
100
100
100
100
100
100
100
100
100
100
100
100
100
100
100
100
7.517922672
7.517243505
7.516286308
7.515314121
7.514501829
7.513936512
7.513665963
7.513684675
7.513993317
7.514568258
7.515383336
7.516411898
7.517630358
7.519019353
7.520559568
7.522222745
7.523982409
7.525816709
7.527708217
7.529645292
7.53162863
7.533645208
7.535667945
7.537682297
7.539678162
7.541647789
7.543585268
7.545486505
7.54734932
7.549173383
7.550959577
7.552708132
7.554415872
7.556076408
7.557682474
7.559227085
7.560703832
7.562106931
7.563431479
7.564674139
7.565834009
7.566912746
7.567914043
7.568842655
7.569703553
7.570501568
7.571241439
7.571928035
7.572566651
7.57316343
7.573726295
7.574261111
7.574770222
7.57525051
7.575694858
7.576096985
7.576451612
7.576762337
7.577029827
7.577254361
7.577436467
7.577577228
7.577678622
7.577744138
7.577780441
7.577802498
7.577804777
7.577786902
7.577752311
7.577704333
7.577643891
7.577571252
7.5774873
7.577393632
7.577292256
7.577185069
7.577073318
7.576957786
7.576839313
7.576719063
7.576598544
7.576479545
7.576364081
7.576254372
7.576152832
7.576062037
7.575984685
7.575923457
7.575880883
7.575859624
7.575860846
7.575886987
7.57593954
7.576020047
7.576130041
7.576271144
7.576445181
7.576654304
7.576900994
7.577188164
7.57751896
7.57789672
7.578324978
7.578807575
7.579348565
7.579951009
7.580615673
7.581343285
7.582135261
7.582993551
7.583920507
7.584918804
7.585991373
7.587141316
7.588371845
7.589686247
7.591087872
7.592580136
7.594166539
7.595850682
7.597636301
7.599527338
7.60152821
7.603644936
7.605878882
7.608229364
7.610697795
7.613286979
7.616000133
7.618840755
7.621812454
7.624918724
7.628163076
7.631549172
7.635080858
7.63876215
7.642597247
7.646590651
7.650747637
7.655075891
7.659575917
7.6642507
7.669103926
7.67413924
7.679358939
7.684766189
7.690366332
7.696165814
7.702169598
7.708382175
7.714808203
7.721452985
7.728321844
7.735419995
7.742752626
7.750324965
7.758142333
7.766210175
7.774534089
7.783119842
7.791973356
7.801100705
7.810508054
7.820201594
7.8301874
7.840471442
7.851059876
7.861959295
7.873176813
7.884719672
7.896595415
7.908811594
7.921376385
7.934297855
7.947583926
7.961243307
7.975284724
7.989717315
8.00455022
8.019794299
8.035465913
8.051594062
8.068249155
8.085438665
8.103119393
8.1212865
8.139944819
8.159102462
8.178769087
8.198955303
8.219672433
8.240932412
8.262747742
8.285131497
8.308097425
8.331659702
8.355832312
8.380629235
8.406065871
8.432155847
8.458913503
8.486354549
8.51449503
8.543348012
8.57293668
8.603281564
8.634400858
8.66631198
8.69903233
8.732582239
8.766993481
8.802291428
8.83849494
8.875627476
8.91371558
8.952787098
8.992870011
9.033990471
9.076179961
9.119466061
9.163879403
9.209456178
9.256228496
9.30422746
9.353485426
9.404037356
9.455920067
9.509179515
9.563862335
9.620009003
9.677680645
9.736935328
9.797817501
9.860337938
9.924579022
9.990633307
10.05858222
10.12849742
10.20048725
10.27460168
10.35090022
10.42945991
10.51035685
10.59364231
10.6794217
10.76780518
10.85891286
10.95287329
11.04982362
11.14989577
11.25321399
11.35991665
11.47013494
11.58401936
11.70173182
11.82345146
11.94935055
12.07964095
12.21441673
12.35387721
12.49836107
12.64817043
12.80358458
12.96494889
13.13261198
13.30682026
13.4879987
13.67650441
13.87285335
14.07747926
14.29081967
14.51346181
14.74607379
14.98938331
15.24403709
15.5103144
15.78947031
16.08262176
16.39061809
16.71398852
17.05332598
17.40995243
17.78582113
18.18167104
18.59884813
19.03850093
19.50207551
19.99124338
20.50716053
21.0505957
21.62062316
22.21573635
22.8360202
23.47958264
24.1457522
24.83322931
25.5350955
26.22388058
26.90412633
27.59152512
28.31885524
29.21643661
30.51910034
33.08145049
39.08126592
51.08290961
71.1146192
84.10952007
90.43490529
93.92657107
95.90368545
97.14566336
97.98406965
98.54915312
98.94652695
99.22715495
99.43082052
99.57475615
99.67515486
99.74692971
99.80023631
99.84113184
99.87312588
99.8984451
99.91861793
99.93476781
99.94771963
99.95811318
99.96646025
99.97316067
99.9785387
99.98285301
99.98631136
99.98908215
99.9912999
99.99307363
99.99449104
99.99562258
99.99652514
99.99724436
99.99781691
99.99827227
99.99863408
99.99892126
99.99914898
99.99932938
99.99947213
99.99958498
99.99967409
99.99974438
99.99979976
99.99984335
99.99987762
99.99990452
99.99992562
99.99994214
99.99995507
99.99996516
99.99997304
99.99997917
99.99998394
99.99998765
99.99999052
99.99999274
99.99999445
99.99999578
99.99999679
99.99999757
99.99999817
99.99999863
99.99999897
99.99999924
99.99999944
99.99999959
99.9999997
99.99999978
99.99999985
99.99999989
99.99999992
99.99999995
99.99999997
99.99999998
99.99999999
99.99999999
100
100
100
100
100
100
100
100
100
100
100
100
100
100
100
100
100
100
100
100
100
100
100
100
100
100
100
100
100
100
100
100
100
100
100
100
100
100
100
100
100
100
100
100
100
100
100
100
100
100
100
100
100
100
100
100
100
100
100
100
100
100
100
100
100
100
100
100
100
100
100
100
100
100
100
100
100
100
100
100
100
100
100
100
100
100
100
100
100
100
100
100
100
100
100
100
100
100
100
100
100
100
100
100
100
100
100
100
100
100
100
100
100
100
100
100
100
100
100
100
100
100
100
100
100
100
100
100
100
100
100
100
100
100
100
100
100
100
100
100
100
100
100
100
100
100
100
100
100
100
100
100
100
100
100
100
100
100
100
100
100
100
100
100
100
100
100
100
100
100
100
100
100
100
100
100
100
100
100
100
100
100
100
100
100
100
100
100
100
100
100
100
100
100
100
100
100
100
100
100
100
100
100
100
100
100
100
100
100
100
100
100
100
100
100
100
10.75607572
10.75535818
10.75429825
10.75322883
10.75236803
10.75183696
10.75169864
10.75196366
10.75262391
10.75365112
10.75501009
10.75666483
10.75858268
10.7607401
10.76313674
10.76570505
10.76840475
10.77120483
10.7740791
10.7770047
10.77996149
10.78293174
10.78589938
10.78884988
10.79177081
10.79465165
10.797484
10.80026189
10.80298215
10.8056448
10.80825275
10.81080915
10.81330956
10.81574284
10.81809764
10.82036376
10.82253194
10.82459352
10.82654059
10.82836737
10.83007236
10.83165843
10.83313193
10.83450061
10.83577202
10.83695309
10.83805037
10.83907052
10.84002071
10.84090947
10.84174872
10.8425486
10.84332666
10.84407333
10.84477054
10.84541069
10.84599011
10.84650773
10.8469631
10.84735616
10.84768738
10.8479579
10.84816984
10.84832653
10.84843243
10.84849301
10.8485141
10.84850313
10.84846785
10.84841547
10.84834563
10.84825743
10.84815203
10.84803205
10.84790091
10.84776197
10.84761692
10.84746644
10.84731147
10.84715361
10.84699503
10.84683829
10.84668624
10.846542
10.84640901
10.846291
10.84619194
10.84611583
10.84606651
10.84604746
10.84606101
10.84611012
10.84619705
10.8463239
10.84649276
10.84670583
10.84696556
10.84727492
10.84763752
10.84805754
10.84853958
10.84908835
10.84970879
10.85040643
10.85118923
10.8520665
10.85303259
10.85408784
10.85523439
10.85647516
10.85781361
10.85925364
10.86079953
10.86245579
10.86422704
10.86611798
10.86813338
10.87027808
10.87255705
10.8749754
10.87753843
10.88025177
10.88312163
10.88615618
10.88935807
10.89272811
10.89626941
10.89998436
10.90387645
10.90795053
10.91221191
10.91666542
10.92131593
10.92616861
10.93122895
10.93650265
10.94199554
10.94771359
10.95366286
10.95984947
10.96627916
10.97295761
10.97989058
10.98708389
10.9945434
11.0022755
11.010287
11.01858438
11.02717394
11.03606111
11.04525134
11.05475373
11.06457595
11.0747253
11.08520907
11.09603462
11.10720942
11.11874116
11.13063775
11.14290735
11.15555834
11.16859934
11.18203908
11.19588637
11.21014975
11.22483743
11.2399578
11.25552022
11.27153497
11.28801223
11.30496269
11.3223968
11.3403261
11.35876183
11.37771521
11.39719846
11.41722402
11.43780503
11.45895542
11.48069124
11.50303197
11.52600229
11.54962976
11.57392794
11.59889834
11.62454594
11.65087999
11.67791239
11.70565671
11.73412765
11.76334078
11.79331251
11.82405998
11.85560111
11.88795501
11.92114167
11.95518003
11.99008764
12.02588276
12.06258534
12.10021632
12.13879757
12.17835209
12.21890404
12.26048049
12.30311282
12.34682275
12.39163465
12.43757635
12.48467941
12.53298201
12.5825145
12.63330001
12.68536948
12.73876021
12.79350997
12.84965551
12.90722915
12.96627735
13.02684575
13.08897744
13.15271368
13.21809484
13.28516008
13.35395113
13.42451568
13.49687875
13.57112466
13.64733546
13.72558363
13.80593976
13.88847675
13.9732706
14.0604038
14.14995492
14.24200602
14.33664739
14.43396717
14.53405474
14.63700403
14.74291747
14.85190517
14.964087
15.0796038
15.19859955
15.32116375
15.44743011
15.57756843
15.7117839
15.85024722
15.99308865
16.14048058
16.29261945
16.44971376
16.61197368
16.77956493
16.95274115
17.13181302
17.317045
17.50872235
17.70716846
17.9128208
18.1260868
18.34743019
18.57739274
18.81640709
19.06498363
19.32373938
19.59322226
19.87395821
20.16648858
20.47171152
20.79037366
21.12324178
21.47180318
21.83717826
22.22024694
22.62244204
23.04508199
23.48998967
23.95893688
24.45281586
24.9738914
25.52402364
26.10426337
26.71678232
27.36375622
28.04833278
28.77133396
29.53487994
30.33704417
31.17830723
32.0567639
32.97412322
33.93742494
34.94699708
35.97640767
37.03426809
38.17821817
39.45902576
41.05389976
43.21175121
46.07611295
50.62601777
57.96391681
68.39671206
80.06514063
87.98939792
92.39472725
94.87586593
96.34780768
97.31759132
98.01929445
98.51663584
98.87880978
99.1434082
99.34075299
99.48954231
99.60206964
99.68809914
99.75418054
99.80503409
99.84477923
99.87617568
99.90108147
99.92095138
99.93682287
99.94951213
99.95967259
99.96780092
99.97430678
99.97951272
99.98367426
99.98700185
99.98965917
99.99178014
99.99347205
99.99482017
99.99589371
99.99674782
99.99742668
99.99796582
99.99839359
99.99873267
99.99900121
99.99921369
99.99938164
99.99951425
99.99961887
99.9997013
99.99976619
99.99981721
99.99985728
99.99988872
99.99991336
99.99993264
99.99994771
99.99995947
99.99996865
99.99997579
99.99998133
99.99998564
99.99998898
99.99999156
99.99999355
99.99999509
99.99999627
99.99999718
99.99999787
99.9999984
99.9999988
99.99999911
99.99999934
99.99999952
99.99999965
99.99999974
99.99999982
99.99999987
99.99999991
99.99999994
99.99999996
99.99999997
99.99999998
99.99999999
100
100
100
100
100
100
100
100
100
100
100
100
100
100
100
100
100
100
100
100
100
100
100
100
100
100
100
100
100
100
100
100
100
100
100
100
100
100
100
100
100
100
100
100
100
100
100
100
100
100
100
100
100
100
100
100
100
100
100
100
100
100
100
100
100
100
100
100
100
100
100
100
100
100
100
100
100
100
100
100
100
100
100
100
100
100
100
100
100
100
100
100
100
100
100
100
100
100
100
100
100
100
100
100
100
100
100
100
100
100
100
100
100
100
100
100
100
100
100
100
100
100
100
100
100
100
100
100
100
100
100
100
100
100
100
100
100
100
100
100
100
100
100
100
100
100
100
100
100
100
100
100
100
100
100
100
100
100
100
100
100
100
100
100
100
100
100
100
100
100
100
100
100
100
100
100
100
100
100
100
100
100
100
100
100
100
100
100
100
100
100
100
100
100
100
100
100
100
100
100
100
100
100
100
100
100
100
100
100
100
100
100
100
100
100
100
13.63399093
13.63345455
13.63266865
13.63193777
13.63148406
13.63142932
13.63184524
13.63274888
13.63412766
13.63594683
13.63816331
13.64073361
13.6436145
13.64676294
13.6501376
13.65370012
13.65741309
13.66124211
13.66515524
13.66912153
13.67310682
13.67708957
13.6810602
13.68500421
13.68890724
13.69275635
13.69654074
13.7002523
13.70388633
13.70744256
13.71092716
13.71435954
13.7177328
13.72102071
13.72420781
13.72728171
13.73023105
13.73304438
13.73570961
13.73821641
13.7405625
13.74275265
13.74479747
13.74670892
13.74849733
13.75017125
13.75173834
13.75320613
13.75458241
13.75587529
13.75709258
13.75823969
13.75931913
13.76033125
13.76127377
13.76214332
13.76293706
13.76365319
13.76429062
13.76484889
13.76532817
13.76572939
13.76605457
13.76630687
13.76648975
13.7666036
13.76666126
13.76667434
13.7666567
13.76663794
13.76659895
13.7665339
13.76644475
13.76633552
13.76621175
13.76607959
13.76594089
13.76579511
13.76564292
13.76548637
13.76532825
13.76517176
13.76502035
13.7648778
13.76474837
13.7646367
13.7645481
13.76448787
13.76446158
13.76447264
13.76452521
13.76462245
13.76476713
13.7649618
13.76520891
13.76551093
13.76587065
13.76629156
13.76677819
13.76733603
13.76797103
13.76868909
13.76949581
13.77039644
13.77139583
13.77249849
13.77370799
13.7750277
13.77646129
13.77801272
13.7796864
13.78148736
13.78342117
13.7854936
13.78771052
13.79007782
13.79260145
13.79528744
13.79814193
13.80117128
13.80438203
13.80778092
13.81137455
13.81516863
13.81916758
13.82337728
13.82780975
13.83246029
13.83733228
13.8424325
13.84776852
13.85334586
13.85917023
13.86524809
13.87158635
13.87819219
13.88507286
13.89223559
13.8996873
13.90743393
13.91548444
13.92384665
13.93252814
13.94153653
13.95087975
13.96056655
13.97060583
13.98100462
13.99177093
14.00291319
14.01444003
14.02635992
14.03868152
14.05141367
14.06456531
14.07814554
14.09216364
14.10662914
14.1215519
14.13694212
14.15281029
14.16916721
14.18602383
14.20339128
14.22128029
14.23970069
14.25866041
14.27817247
14.29825083
14.31890803
14.34015739
14.36201176
14.38448531
14.40759191
14.43134572
14.45576176
14.48085552
14.50664324
14.53314211
14.56037089
14.58835022
14.6171024
14.64664932
14.67700786
14.70819035
14.74020932
14.77307894
14.80681508
14.84143492
14.87695677
14.91339988
14.95078431
14.98913096
15.02846178
15.0688009
15.1101776
15.152616
15.19613195
15.24074656
15.28648474
15.33337261
15.38143731
15.4307077
15.48121372
15.53298596
15.58605519
15.64045339
15.69621422
15.75337395
15.81197088
15.87204404
15.93362797
15.99674447
16.06144395
16.1277727
16.19577766
16.26550646
16.33700723
16.41033148
16.48553409
16.5626671
16.64177788
16.72291489
16.80611783
16.89141884
16.97891963
17.06870461
17.16084774
17.25542414
17.35251835
17.45220938
17.55458411
17.65974461
17.76781925
17.878884
17.99302156
18.1103434
18.23095235
18.35494569
18.48243787
18.61356556
18.74845718
18.88725815
19.03014046
19.17723736
19.32868401
19.48460828
19.64523237
19.81077526
19.98144176
20.15741489
20.33885657
20.52601595
20.71916155
20.91858187
21.12461085
21.33756465
21.55765906
21.78521889
22.02061843
22.26428572
22.51666644
22.77822264
23.04933182
23.3306596
23.62290831
23.92675109
24.24283676
24.57177925
24.9143354
25.27127852
25.64357853
26.03230492
26.43857909
26.8636271
27.3089885
27.77589809
28.2661492
28.7816037
29.32476148
29.89817791
30.50422992
31.14464806
31.82243453
32.539111
33.29698415
34.09943415
34.94856956
35.84681845
36.79607121
37.79811472
38.84985657
39.94531863
41.09560999
42.31204194
43.58919664
44.90986306
46.32829863
47.91558157
49.74675556
52.04034155
55.01426304
58.60341578
63.18784404
69.25802383
76.76913697
84.23321976
89.52245679
92.86623952
94.84514924
96.03395028
96.84680865
97.48941191
98.03784023
98.4728782
98.80971637
99.06279991
99.25863644
99.41168867
99.53395081
99.63133162
99.70867201
99.7697239
99.81742392
99.85461111
99.88428238
99.90777464
99.92648294
99.94141001
99.95330272
99.96279865
99.9703835
99.97642913
99.98125721
99.98510619
99.98817272
99.9906166
99.99256092
99.99410745
99.99533671
99.99631263
99.997087
99.99770087
99.99818704
99.9985718
99.99887603
99.99911634
99.99930599
99.99945553
99.99957331
99.99966599
99.99973885
99.99979606
99.99984093
99.9998761
99.99990362
99.99992514
99.99994193
99.99995503
99.99996524
99.99997317
99.99997933
99.99998411
99.99998781
99.99999067
99.99999287
99.99999457
99.99999588
99.99999688
99.99999764
99.99999823
99.99999867
99.99999901
99.99999927
99.99999946
99.99999961
99.99999971
99.99999979
99.99999985
99.9999999
99.99999993
99.99999995
99.99999997
99.99999998
99.99999999
99.99999999
100
100
100
100
100
100
100
100
100
100
100
100
100
100
100
100
100
100
100
100
100
100
100
100
100
100
100
100
100
100
100
100
100
100
100
100
100
100
100
100
100
100
100
100
100
100
100
100
100
100
100
100
100
100
100
100
100
100
100
100
100
100
100
100
100
100
100
100
100
100
100
100
100
100
100
100
100
100
100
100
100
100
100
100
100
100
100
100
100
100
100
100
100
100
100
100
100
100
100
100
100
100
100
100
100
100
100
100
100
100
100
100
100
100
100
100
100
100
100
100
100
100
100
100
100
100
100
100
100
100
100
100
100
100
100
100
100
100
100
100
100
100
100
100
100
100
100
100
100
100
100
100
100
100
100
100
100
100
100
100
100
100
100
100
100
100
100
100
100
100
100
100
100
100
100
100
100
100
100
100
100
100
100
100
100
100
100
100
100
100
100
100
100
100
100
100
100
100
100
100
100
100
100
100
100
100
100
100
100
100
100
100
100
100
16.23739267
16.23719721
16.23698048
16.23697087
16.23735261
16.23821398
16.23958214
16.24150807
16.24397398
16.24693316
16.25033299
16.25412781
16.25826878
16.26269924
16.26734814
16.27219575
16.27720678
16.28234427
16.28757276
16.29285912
16.29817317
16.3034902
16.30879025
16.31405509
16.31926778
16.32441293
16.32947718
16.33444966
16.33932271
16.34409242
16.34875818
16.35332159
16.35778138
16.36212879
16.36635229
16.37044019
16.37438052
16.37815949
16.38175829
16.38514342
16.38831786
16.39129575
16.39409599
16.39673766
16.39923408
16.40159463
16.4038272
16.40593942
16.40793911
16.40983401
16.4116307
16.41333151
16.41492733
16.41642493
16.41783306
16.41915152
16.42037822
16.42151123
16.42254921
16.42349134
16.42433729
16.4250874
16.42574325
16.42630863
16.4267897
16.42719368
16.4275291
16.42780319
16.4280206
16.42818487
16.42830002
16.42837353
16.42841309
16.42842458
16.42841619
16.42840902
16.42840037
16.42838159
16.42835306
16.42831762
16.42827882
16.42824036
16.42820598
16.42817965
16.42816626
16.42817083
16.4282004
16.42826193
16.42836195
16.42850575
16.42869788
16.4289421
16.42924165
16.42959945
16.43001816
16.43050026
16.43104838
16.43166605
16.43235868
16.43313334
16.43399758
16.43495855
16.43602254
16.4371946
16.4384774
16.4398721
16.44138867
16.44303311
16.44481043
16.44672545
16.44878336
16.4509904
16.45335356
16.45587999
16.45857671
16.46145066
16.4645088
16.46775812
16.47120576
16.47485904
16.47872563
16.48281355
16.48713053
16.49168155
16.49646985
16.50149893
16.50677357
16.51229905
16.5180821
16.52413403
16.53047134
16.53709371
16.54400712
16.55121939
16.55873893
16.56657437
16.57473436
16.58322749
16.59206228
16.60124723
16.61079136
16.62070364
16.63099303
16.64166854
16.65273942
16.66421521
16.67610558
16.68842011
16.70116882
16.71436267
16.7280128
16.74212763
16.75671689
16.77179078
16.78735972
16.80343431
16.82002535
16.83714399
16.85480178
16.8730108
16.89178342
16.91113244
16.9310708
16.95161197
16.97276907
16.9945548
17.01698306
17.04006653
17.06381945
17.08825569
17.11339057
17.13923919
17.16581779
17.19314272
17.22123075
17.25009938
17.27976665
17.31025133
17.34157303
17.3737525
17.40681175
17.44077278
17.47565685
17.51148367
17.5482712
17.58603721
17.62480019
17.66457973
17.70539645
17.74727197
17.79022883
17.83429039
17.87948063
17.92582386
17.97334551
18.02207127
18.07202776
18.12324304
18.1757455
18.2295642
18.28472852
18.34126963
18.39922258
18.45862279
18.51950486
18.58190058
18.64584804
18.71138791
18.77856447
18.84742313
18.91801013
18.99037183
19.06455527
19.14060383
19.21854897
19.29845269
19.38037329
19.46436815
19.55049462
19.638811
19.7293769
19.82225382
19.91750689
20.01520215
20.11539975
20.21819736
20.32370764
20.43199578
20.54313114
20.65719782
20.77428674
20.89449759
21.01794862
21.14473314
21.2749624
21.40875645
21.54625413
21.68756025
21.83278407
21.98204252
22.13549775
22.29330708
22.45563211
22.62263163
22.79445653
22.97132302
23.15346109
23.34105584
23.53432082
23.7335178
23.93885681
24.15056993
24.36890585
24.59409724
24.82649513
25.06652496
25.31450559
25.57072536
25.83554476
26.10938508
26.39272844
26.68598101
26.98964177
27.30433799
27.63067026
27.96930063
28.32080171
28.68594499
29.0655827
29.4604734
29.87158353
30.29983794
30.74645574
31.21301918
31.70065516
32.21085234
32.74556095
33.30649237
33.8958535
34.51645796
35.17127693
35.86457777
36.59872471
37.37722941
38.2031135
39.0789337
40.00829828
40.9925134
42.03474869
43.13757234
44.3033413
45.52649461
46.7978587
48.13185629
49.54455764
51.04155443
52.6206734
54.31651832
56.21035572
58.36481287
60.94224948
63.97521559
67.51707578
71.62989779
76.21178206
81.12745554
86.05604629
89.87824951
92.59145165
94.27837531
95.36969694
96.14665386
96.70657261
97.21353447
97.69141212
98.12736128
98.5008748
98.80899678
99.0444768
99.23399918
99.38540083
99.50810576
99.60808102
99.68876001
99.75333229
99.80458706
99.84468593
99.87634296
99.90159588
99.92162517
99.93758073
99.95032469
99.96046252
99.96855659
99.9750135
99.98015127
99.98424928
99.98750952
99.99010226
99.99216453
99.99380175
99.99510123
99.99613178
99.99694814
99.99759439
99.99810564
99.99850963
99.9988286
99.99908027
99.99927856
99.99943472
99.99955754
99.99965406
99.99972984
99.99978927
99.99983583
99.99987226
99.99990074
99.99992298
99.99994032
99.99995383
99.99996434
99.9999725
99.99997884
99.99998374
99.99998754
99.99999046
99.99999272
99.99999446
99.99999579
99.99999682
99.9999976
99.9999982
99.99999865
99.99999899
99.99999925
99.99999945
99.9999996
99.99999971
99.99999979
99.99999985
99.99999989
99.99999993
99.99999995
99.99999997
99.99999998
99.99999999
99.99999999
100
100
100
100
100
100
100
100
100
100
100
100
100
100
100
100
100
100
100
100
100
100
100
100
100
100
100
100
100
100
100
100
100
100
100
100
100
100
100
100
100
100
100
100
100
100
100
100
100
100
100
100
100
100
100
100
100
100
100
100
100
100
100
100
100
100
100
100
100
100
100
100
100
100
100
100
100
100
100
100
100
100
100
100
100
100
100
100
100
100
100
100
100
100
100
100
100
100
100
100
100
100
100
100
100
100
100
100
100
100
100
100
100
100
100
100
100
100
100
100
100
100
100
100
100
100
100
100
100
100
100
100
100
100
100
100
100
100
100
100
100
100
100
100
100
100
100
100
100
100
100
100
100
100
100
100
100
100
100
100
100
100
100
100
100
100
100
100
100
100
100
100
100
100
100
100
100
100
100
100
100
100
100
100
100
100
100
100
100
100
100
100
100
100
100
100
100
100
100
100
100
100
100
100
100
100
100
100
100
100
100
100
18.62813006
18.62825738
18.62858698
18.6292794
18.63047774
18.63228068
18.63474096
18.63784327
18.64154245
18.64575244
18.65038005
18.65542724
18.66084961
18.66659153
18.67259721
18.67882027
18.68521698
18.6917457
18.69836769
18.70504759
18.71175395
18.71845973
18.72514174
18.73177939
18.73835389
18.74484773
18.75124554
18.7575342
18.76370313
18.76974491
18.77565321
18.78141508
18.78703463
18.7925172
18.79785555
18.80304018
18.80806053
18.81290333
18.81755297
18.82200012
18.82623161
18.83018477
18.8339196
18.83747765
18.84087415
18.84411736
18.84721421
18.85017179
18.85299756
18.85569906
18.85828342
18.86075644
18.86312176
18.86538223
18.86753844
18.86958871
18.87153086
18.87336313
18.87508427
18.87669327
18.87818902
18.87957028
18.88083675
18.88199237
18.88304712
18.88401193
18.88489566
18.88570281
18.88642973
18.88705559
18.88759674
18.88807663
18.8885105
18.88890399
18.88925267
18.88955132
18.88982085
18.89006953
18.89030301
18.89052624
18.89074374
18.89095952
18.89117716
18.89140007
18.89163243
18.89188017
18.89215183
18.8924566
18.89280285
18.89319733
18.89364535
18.89415128
18.89471889
18.89535153
18.89605204
18.89682257
18.89766474
18.89858112
18.89957786
18.90066455
18.901851
18.90314586
18.90455638
18.90608852
18.90774704
18.90953655
18.91146296
18.91353224
18.91575017
18.918122
18.92065304
18.923351
18.92622495
18.92928355
18.9325349
18.93598683
18.93964707
18.94352338
18.94762361
18.95195576
18.9565283
18.96135099
18.96643795
18.97179128
18.97740994
18.98329488
18.98944496
18.99587282
19.00258851
19.00960253
19.0169259
19.02456855
19.03254049
19.04085192
19.04951301
19.05853384
19.06792443
19.07769468
19.08785448
19.09841372
19.10938245
19.12077075
19.13258874
19.14484665
19.15755489
19.17072413
19.18436521
19.19848915
19.21310726
19.22823113
19.24387238
19.26004227
19.27675226
19.29401402
19.31183936
19.33024022
19.34922867
19.36881715
19.38901873
19.40984736
19.43131713
19.45344276
19.47623888