/*--------------------------------*- C++ -*----------------------------------*\
| =========                 |                                                 |
| \\      /  F ield         | OpenFOAM: The Open Source CFD Toolbox           |
|  \\    /   O peration     | Version:  v2006                                 |
|   \\  /    A nd           | Website:  www.openfoam.com                      |
|    \\/     M anipulation  |                                                 |
\*---------------------------------------------------------------------------*/
FoamFile
{
    version     2.0;
    format      ascii;
    class       volScalarField;
    location    "0.09";
    object      theta1;
}
// * * * * * * * * * * * * * * * * * * * * * * * * * * * * * * * * * * * * * //

dimensions      [0 0 0 0 0 0 0];


internalField   nonuniform List<scalar> 
72000
(
84.94438075
84.94145957
84.93605399
84.92846346
84.91897337
84.90782921
84.89524962
84.88142658
84.86652742
84.85070046
84.83408123
84.81679489
84.79893869
84.78059022
84.76182264
84.74270161
84.72328681
84.70363184
84.68378388
84.66378397
84.64366796
84.62346545
84.6032011
84.58289798
84.56257844
84.54226539
84.52198348
84.50175995
84.48162447
84.46160763
84.44173777
84.4220365
84.40251495
84.38317437
84.36401077
84.34501942
84.32619758
84.30754479
84.28906135
84.27074602
84.25259447
84.2345996
84.21675339
84.19904924
84.18148395
84.16405886
84.14678008
84.12965808
84.11270679
84.09594203
84.07937659
84.06301892
84.04687216
84.0309339
84.01520104
83.99966896
83.98434475
83.96918947
83.95418412
83.93931877
83.92458893
83.90999359
83.89553391
83.88121251
83.86703332
83.85300129
83.83911936
83.82539105
83.81182013
83.79840892
83.78515661
83.772059
83.759109
83.74629757
83.73361465
83.72104989
83.70859344
83.69623702
83.68397496
83.67180466
83.65972637
83.64774261
83.63585743
83.62407546
83.61240098
83.60083709
83.58938509
83.57804416
83.56681139
83.55568213
83.54465067
83.53371074
83.52285642
83.51208258
83.50138521
83.49076144
83.48020936
83.46972767
83.45931575
83.44897287
83.43869849
83.42849189
83.41835195
83.40827681
83.39826352
83.38830768
83.37840319
83.36854284
83.35871884
83.34892314
83.33914784
83.32938548
83.31962938
83.3098739
83.30011455
83.29034806
83.28057226
83.27078596
83.26098875
83.25118095
83.24136359
83.2315388
83.22171027
83.21188221
83.20205611
83.19223372
83.18241432
83.17257789
83.1627102
83.15280054
83.14284019
83.13282151
83.1227376
83.11258222
83.10234962
83.09203452
83.08163201
83.0711375
83.06054667
83.04985507
83.0390569
83.02814655
83.01711946
83.00597342
82.9947136
82.98333523
82.97182033
82.96015809
82.94834029
82.93636005
82.9242114
82.91188904
82.89938815
82.88670419
82.87383286
82.86077001
82.84751151
82.83405315
82.82039057
82.80651913
82.79243394
82.77812985
82.76360155
82.74884353
82.73385012
82.71861553
82.70313384
82.68739908
82.67140525
82.65514629
82.63861612
82.62180862
82.60471786
82.58733799
82.56966338
82.55168905
82.5334109
82.51482659
82.49593621
82.47675428
82.45734056
82.43787206
82.41897812
82.40062155
82.38222092
82.36361041
82.34473793
82.32558528
82.30614509
82.28641326
82.26638642
82.24606095
82.22543278
82.20449814
82.18325471
82.16170138
82.13983752
82.11766232
82.09517631
82.07238461
82.04929575
82.02592011
82.00227375
81.97839476
81.95425737
81.92985178
81.90517847
81.88024387
81.85505875
81.82962967
81.803946
81.77799393
81.75176288
81.72524302
81.69842762
81.67130377
81.64382918
81.61586688
81.58751304
81.55883246
81.52985004
81.50058246
81.47104267
81.44124072
81.41118498
81.38088298
81.35034342
81.31957923
81.28860776
81.257443
81.22608601
81.19454274
81.16283047
81.13097862
81.09903469
81.06707799
81.03524439
81.00393514
80.97414059
80.94521089
80.91653329
80.88786266
80.8590866
80.8301546
80.80106594
80.77185834
80.74249053
80.71294652
80.68323187
80.65332147
80.62315583
80.59270184
80.56196677
80.53097148
80.49973211
80.46824125
80.43646001
80.40416744
80.37069662
80.33599929
80.300613
80.26447593
80.22741612
80.18923219
80.14961238
80.1085428
80.06595964
80.02171324
79.97556985
79.92711886
79.87597143
79.82211684
79.76521311
79.70483581
79.64040527
79.57180061
79.49847066
79.41926455
79.33315483
79.23910371
79.13603361
79.02207253
78.89493099
78.75071249
78.58604926
78.39867659
78.18455881
77.93940994
77.65460467
77.32233311
76.93407949
76.47838501
75.93676413
75.2849947
74.49422339
73.52848517
72.33821748
70.8563835
68.99286531
66.65289341
63.70423427
60.12810134
56.04950894
52.04133292
48.21362089
38.26959099
2.861087482
2.008805227
1.385458675
1.212258052
1.114951002
1.062049504
1.030414622
1.013059195
1.008338852
1.004357547
1.001762486
1.000323337
0.9994606097
0.9988761234
0.9984935052
0.9982939503
0.9982418997
0.9982819202
0.9983837134
0.9985192379
0.9986737104
0.9988297824
0.9989807467
0.999121237
0.9992484921
0.9993618936
0.9994613229
0.9995476194
0.9996218017
0.9996850603
0.9997386749
0.9997838499
0.9998217312
0.9998533633
0.9998796745
0.9999014858
0.9999195112
0.999934366
0.9999465766
0.9999565907
0.9999647854
0.9999714777
0.9999769327
0.9999813711
0.9999849761
0.9999878996
0.9999902668
0.9999921806
0.9999937258
0.9999949717
0.9999959749
0.9999967816
0.9999974296
0.9999979494
0.9999983659
0.9999986992
0.9999989657
0.9999991785
0.9999993482
0.9999994834
0.999999591
0.9999996766
0.9999997446
0.9999997985
0.9999998412
0.999999875
0.9999999017
0.9999999228
0.9999999395
0.9999999526
0.9999999629
0.999999971
0.9999999774
0.9999999824
0.9999999863
0.9999999894
0.9999999918
0.9999999936
0.9999999951
0.9999999962
0.9999999971
0.9999999978
0.9999999983
0.9999999987
0.999999999
0.9999999992
0.9999999994
0.9999999996
0.9999999997
0.9999999998
0.9999999998
0.9999999999
0.9999999999
0.9999999999
1
1
1
1
1
1
1
1
1
1
1
1
1
1
1
1
1
1
1
1
1
1
1
1
1
1
1
1
1
1
1
1
1
1
1
1
1
1
1
1
1
1
1
1
1
1
1
1
1
1
1
1
1
1
1
1
1
1
1
1
1
1
1
1
1
1
1
1
1
1
1
1
1
1
1
1
1
1
1
1
1
1
1
1
1
1
1
1
1
1
1
1
1
1
1
1
1
1
1
1
1
1
1
1
1
1
1
1
1
1
1
1
1
1
1
1
1
1
1
1
1
1
1
1
1
1
1
1
1
1
1
1
1
1
1
1
1
1
1
1
1
1
1
1
1
1
1
1
1
1
1
1
1
1
1
1
1
1
1
1
1
1
1
1
1
1
1
1
1
1
1
1
1
1
1
1
1
1
1
1
1
1
1
1
1
1
1
1
1
1
1
1
1
1
1
1
1
1
1
1
88.95796994
88.95387396
88.94657923
88.93668891
88.92470547
88.91101181
88.89590987
88.87963356
88.86236813
88.844266
88.82545569
88.80604668
88.78613112
88.76578981
88.74509494
88.72409903
88.70284929
88.68138933
88.65975867
88.63799329
88.61612749
88.59418305
88.57217082
88.55010443
88.52799964
88.50587511
88.48375375
88.46166401
88.43964008
88.41772011
88.39594158
88.37433303
88.35290466
88.33164944
88.310553
88.28960163
88.26878619
88.24810252
88.22754898
88.20712309
88.18681907
88.16662873
88.14654386
88.12655907
88.10667399
88.08689424
88.06723155
88.04770324
88.02833132
88.00914169
87.99016492
87.97141579
87.95289245
87.93458662
87.91648383
87.89856854
87.88082407
87.86322892
87.84576733
87.82843035
87.81121466
87.79412123
87.77715401
87.76031946
87.74362724
87.72709221
87.71071647
87.69450584
87.67846867
87.66261148
87.64693482
87.63143401
87.61610086
87.60092525
87.58589627
87.57100261
87.55623272
87.54157673
87.52702835
87.51258554
87.49825024
87.48402756
87.46992466
87.45594966
87.44211033
87.42841306
87.41486192
87.4014582
87.38820035
87.37508433
87.36210442
87.34925421
87.33652762
87.32391965
87.31142679
87.29904713
87.28678015
87.27462641
87.26258723
87.25066436
87.23885989
87.22717595
87.21561439
87.20417641
87.19286191
87.1816682
87.17058861
87.15961509
87.14873925
87.13795286
87.12724816
87.11661822
87.10605727
87.09556097
87.08512654
87.0747528
87.06443994
87.05418939
87.04400354
87.03388549
87.02383902
87.01386861
87.00398004
86.99418243
86.98447501
86.97485198
86.96530806
86.9558337
86.94641953
86.93705755
86.92774093
86.91846354
86.90921998
86.90000561
86.8908165
86.88164942
86.8725017
86.86337129
86.85425684
86.84515756
86.83606766
86.82698228
86.81789765
86.80881118
86.79972138
86.79062426
86.78151252
86.77237868
86.76321687
86.7540222
86.74479079
86.73551991
86.7262073
86.71685094
86.70744905
86.69799998
86.68850217
86.67895399
86.66935361
86.65969895
86.64998762
86.64021696
86.63038409
86.62048584
86.61051878
86.60047912
86.59036304
86.58016686
86.56988713
86.55952032
86.549063
86.53851163
86.52786313
86.51711435
86.50626214
86.49530426
86.48423908
86.47306645
86.46178857
86.45040764
86.43891126
86.42723185
86.41501198
86.40226807
86.38931246
86.3761932
86.36291316
86.34946942
86.33585904
86.32207925
86.30812693
86.29399808
86.27968744
86.26518963
86.2505022
86.23562441
86.22055571
86.20529318
86.18982258
86.17415652
86.15830982
86.14229143
86.12610984
86.10977262
86.09327929
86.07662846
86.05981976
86.04285552
86.02574112
86.00848225
85.99107663
85.97350861
85.95575278
85.93779424
85.91962905
85.90125674
85.8826775
85.86390556
85.84492298
85.82570236
85.80623761
85.7865525
85.76665397
85.74654423
85.72622286
85.70568705
85.68493335
85.6639639
85.64278451
85.62139902
85.59979964
85.5779828
85.55595453
85.53373166
85.51134411
85.48884645
85.46634507
85.44394731
85.42170153
85.39950785
85.37717819
85.35454934
85.33149867
85.30791505
85.28376035
85.25902673
85.23366086
85.20760657
85.18081301
85.15319074
85.12460392
85.09486399
85.06400265
85.03199013
84.9987812
84.96433869
84.92858889
84.89154086
84.85398458
84.81582992
84.77599788
84.73396121
84.68922587
84.64142995
84.59027773
84.53533819
84.47620156
84.41240494
84.34355481
84.26926467
84.18933193
84.10251453
84.00775175
83.90391058
83.78980415
83.6642132
83.5254116
83.37161569
83.2009438
83.01080897
82.79827162
82.55951144
82.28952219
81.98400935
81.63640238
81.23908962
80.78320347
80.25734323
79.64688084
78.93452155
78.10056692
77.11766379
75.95179692
74.5612521
72.89172595
70.87217275
68.40812758
65.38650939
61.65690743
57.02351753
51.26417549
44.1196825
35.47222421
26.23327781
17.84610584
10.53020025
4.135107073
2.700178317
1.8794038
1.541261136
1.332004163
1.202888383
1.121811231
1.068646362
1.039622598
1.022311199
1.012123856
1.005910472
1.001839519
0.9990773963
0.9972606159
0.9962115941
0.9957350037
0.9956216669
0.9957550032
0.9960241519
0.9963889662
0.9967763692
0.9971674722
0.9975406852
0.9978841059
0.9981946571
0.9984694092
0.9987099321
0.9989180685
0.9990964855
0.9992484423
0.9993769761
0.9994851293
0.9995757199
0.9996512706
0.9997140504
0.9997660442
0.9998089747
0.9998443253
0.9998733637
0.9998971614
0.9999166224
0.9999325056
0.9999454437
0.9999559643
0.9999645047
0.9999714265
0.999977028
0.9999815544
0.999985207
0.9999881504
0.9999905192
0.9999924232
0.9999939517
0.9999951772
0.9999961587
0.9999969438
0.9999975712
0.9999980719
0.999998471
0.9999987889
0.9999990418
0.9999992427
0.9999994021
0.9999995286
0.9999996287
0.9999997079
0.9999997705
0.9999998199
0.9999998589
0.9999998896
0.9999999137
0.9999999326
0.9999999475
0.9999999592
0.9999999683
0.9999999754
0.999999981
0.9999999853
0.9999999887
0.9999999913
0.9999999933
0.9999999948
0.9999999961
0.999999997
0.9999999977
0.9999999983
0.9999999987
0.999999999
0.9999999993
0.9999999995
0.9999999996
0.9999999997
0.9999999998
0.9999999999
0.9999999999
0.9999999999
1
1
1
1
1
1
1
1
1
1
1
1
1
1
1
1
1
1
1
1
1
1
1
1
1
1
1
1
1
1
1
1
1
1
1
1
1
1
1
1
1
1
1
1
1
1
1
1
1
1
1
1
1
1
1
1
1
1
1
1
1
1
1
1
1
1
1
1
1
1
1
1
1
1
1
1
1
1
1
1
1
1
1
1
1
1
1
1
1
1
1
1
1
1
1
1
1
1
1
1
1
1
1
1
1
1
1
1
1
1
1
1
1
1
1
1
1
1
1
1
1
1
1
1
1
1
1
1
1
1
1
1
1
1
1
1
1
1
1
1
1
1
1
1
1
1
1
1
1
1
1
1
1
1
1
1
1
1
1
1
1
1
1
1
1
1
1
1
1
1
1
1
1
1
1
1
1
1
1
1
1
1
1
1
1
1
1
1
1
1
1
1
1
1
1
1
1
91.37353568
91.36881831
91.3603484
91.34887013
91.33499985
91.31922741
91.30192916
91.28337845
91.26378237
91.24330857
91.2220942
91.20025081
91.17787486
91.15505757
91.13189511
91.10842438
91.08469173
91.06074189
91.03661501
91.01234703
90.98797415
90.9635163
90.93897861
90.91437147
90.88970775
90.865004
90.84028266
90.81557447
90.79091989
90.76636813
90.74197216
90.7177761
90.69379136
90.66999843
90.64636986
90.62288261
90.59952332
90.57628808
90.55317815
90.53019329
90.50732636
90.48456566
90.46189888
90.43931781
90.41682147
90.39441707
90.37211977
90.34995178
90.327941
90.306119
90.28451787
90.26316078
90.24206129
90.22120699
90.20057151
90.18012901
90.15985503
90.13972767
90.11973159
90.09985877
90.08010752
90.06048093
90.04098511
90.02162818
90.0024212
89.98338308
89.9645172
89.94583366
89.92734717
89.90907075
89.89100551
89.87314514
89.85547892
89.8379942
89.82067822
89.80351779
89.78649772
89.76960448
89.75282998
89.73617224
89.71963467
89.70322476
89.6869528
89.67083032
89.65486855
89.63907682
89.62346142
89.60802489
89.59276586
89.57767947
89.56275853
89.54799493
89.53338112
89.51891116
89.50458129
89.49038994
89.47633743
89.46242541
89.44865641
89.43503351
89.42156031
89.40824065
89.39507826
89.3820763
89.36923704
89.35655989
89.34403496
89.33165237
89.31940222
89.30727501
89.29526194
89.28335522
89.2715485
89.25983731
89.24821923
89.23669383
89.22526246
89.21392789
89.202694
89.19156535
89.1805469
89.16964356
89.15885985
89.14819906
89.13766114
89.12724364
89.11694244
89.10674995
89.09665844
89.086661
89.07675137
89.0669235
89.057172
89.04749236
89.03788101
89.02833514
89.01885269
89.00943227
89.00007367
88.9907798
88.98154163
88.97235355
88.96321112
88.95411045
88.94504782
88.93601864
88.92701731
88.91803814
88.90907611
88.90012621
88.89118408
88.882249
88.87331944
88.86439394
88.85547131
88.84655058
88.83763083
88.82871112
88.8197902
88.81086646
88.80193783
88.79300189
88.78405591
88.77509691
88.76612144
88.75712555
88.74810513
88.73905654
88.72997648
88.72086142
88.71170792
88.70251227
88.6932713
88.68398161
88.6746398
88.66524315
88.65578918
88.64627585
88.6367014
88.62705958
88.61732769
88.60746131
88.59739413
88.5871249
88.57670788
88.56617392
88.55553435
88.54479241
88.53394823
88.52300047
88.51194662
88.50078264
88.48950129
88.4780861
88.46653945
88.45486496
88.44306447
88.43114206
88.41910261
88.40694907
88.39468459
88.38231339
88.3698405
88.35727035
88.34460448
88.331844
88.3189864
88.30602989
88.29297364
88.27981563
88.26654939
88.25316044
88.23962637
88.22591577
88.21204671
88.19803238
88.18389844
88.16972047
88.15544309
88.14103147
88.12647184
88.11175237
88.09686847
88.08181772
88.06659595
88.05119416
88.03559625
88.01979869
88.00379915
87.98759653
87.97117748
87.95453199
87.93765929
87.92057141
87.90327991
87.88579917
87.86813508
87.85034197
87.83241934
87.81428141
87.79580705
87.77688297
87.75740605
87.73726341
87.71632946
87.6946149
87.67206285
87.64859246
87.62409978
87.59847746
87.57160448
87.54339523
87.51374463
87.48254542
87.44969929
87.41513372
87.3787655
87.34058103
87.30053367
87.25831693
87.21340551
87.16535562
87.11372665
87.05804758
86.99783821
86.93257724
86.8616244
86.78429818
86.69999128
86.60812055
86.5078958
86.39801458
86.27718496
86.14414782
85.99720898
85.83452423
85.65405871
85.45315296
85.22878337
84.97756094
84.6953491
84.37741708
84.01784929
83.61030659
83.14716848
82.61920532
82.01457973
81.31801105
80.51257241
79.57592808
78.48424442
77.20599303
75.69552461
73.90439013
71.7684593
69.20913645
66.13443457
62.4161079
57.90646931
52.46769163
45.97911477
38.43352085
30.22622251
22.2514017
15.15123478
9.539058666
5.591511918
3.72670645
2.647871197
2.070997576
1.703680586
1.464948874
1.305608212
1.193852856
1.121460082
1.076519078
1.047431296
1.028341647
1.015606121
1.007303322
1.001844469
0.9983136183
0.9961776213
0.9950521333
0.994653552
0.9945831401
0.9948397442
0.9952239798
0.9956919169
0.9961854495
0.9966629068
0.9971160969
0.9975276884
0.9978969542
0.9982225858
0.9985055145
0.9987496087
0.9989581082
0.9991350241
0.9992843306
0.9994096232
0.999514315
0.9996014443
0.9996736947
0.9997334145
0.9997826422
0.9998231127
0.9998563012
0.9998834609
0.9999056364
0.9999237091
0.9999384099
0.9999503475
0.9999600254
0.999967859
0.9999741904
0.9999793002
0.9999834184
0.9999867331
0.9999893974
0.9999915365
0.9999932516
0.9999946252
0.999995724
0.9999966019
0.9999973026
0.9999978612
0.999998306
0.9999986598
0.9999989409
0.999999164
0.9999993409
0.999999481
0.9999995917
0.9999996793
0.9999997484
0.9999998028
0.9999998457
0.9999998794
0.9999999059
0.9999999267
0.999999943
0.9999999557
0.9999999657
0.9999999734
0.9999999795
0.9999999842
0.9999999878
0.9999999906
0.9999999928
0.9999999945
0.9999999958
0.9999999968
0.9999999976
0.9999999982
0.9999999986
0.999999999
0.9999999993
0.9999999995
0.9999999996
0.9999999997
0.9999999998
0.9999999999
0.9999999999
0.9999999999
1
1
1
1
1
1
1
1
1
1
1
1
1
1
1
1
1
1
1
1
1
1
1
1
1
1
1
1
1
1
1
1
1
1
1
1
1
1
1
1
1
1
1
1
1
1
1
1
1
1
1
1
1
1
1
1
1
1
1
1
1
1
1
1
1
1
1
1
1
1
1
1
1
1
1
1
1
1
1
1
1
1
1
1
1
1
1
1
1
1
1
1
1
1
1
1
1
1
1
1
1
1
1
1
1
1
1
1
1
1
1
1
1
1
1
1
1
1
1
1
1
1
1
1
1
1
1
1
1
1
1
1
1
1
1
1
1
1
1
1
1
1
1
1
1
1
1
1
1
1
1
1
1
1
1
1
1
1
1
1
1
1
1
1
1
1
1
1
1
1
1
1
1
1
1
1
1
1
1
1
1
1
1
1
1
1
1
1
1
1
1
1
1
1
1
93.24190449
93.23665567
93.22719866
93.21435011
93.19882201
93.1812069
93.16195834
93.14136922
93.11965745
93.09700702
93.07356788
93.04945138
93.02475435
92.9995694
92.97399312
92.94807842
92.92188128
92.895452
92.86883304
92.84205857
92.81515302
92.78813496
92.76101871
92.73381376
92.70652951
92.6791787
92.65178106
92.62436774
92.59698515
92.56969642
92.54257957
92.51572545
92.48914731
92.46278885
92.43660043
92.41054533
92.38460551
92.35878029
92.33307935
92.30751022
92.28206313
92.25672008
92.23146045
92.20626986
92.18114498
92.15609387
92.13113491
92.10629543
92.08161022
92.05711895
92.03286145
92.00887019
91.98516616
91.96173568
91.93854418
91.91555516
91.89273539
91.87005895
91.84750928
91.82507916
91.80276923
91.78058572
91.75853752
91.73663348
91.71488175
91.69329045
91.67187546
91.65065667
91.62965928
91.60891444
91.58841846
91.56816128
91.54812795
91.52830174
91.50866817
91.48921377
91.46991662
91.45075617
91.43172145
91.41281071
91.39402929
91.37538781
91.35690053
91.33858353
91.32045267
91.3025213
91.28479862
91.26728871
91.2499902
91.23289671
91.21599841
91.19928427
91.18274427
91.16637091
91.15015989
91.13411003
91.11822274
91.10250102
91.08694863
91.07156989
91.05636985
91.04135422
91.02652884
91.01189899
90.99746951
90.9832426
90.96920437
90.95534288
90.94164636
90.92810363
90.91470442
90.90143953
90.88830145
90.87528513
90.86238828
90.84961114
90.8369562
90.82442768
90.81203104
90.79977247
90.78765832
90.77569444
90.76388525
90.75223254
90.74073572
90.72939336
90.71820426
90.70715924
90.69625088
90.68547314
90.67482043
90.66428616
90.65386456
90.64355106
90.63334228
90.6232358
90.61322991
90.60332337
90.59351504
90.58380304
90.57418367
90.56465242
90.55520463
90.54583554
90.53654014
90.52731277
90.51814775
90.50904123
90.49998937
90.49098904
90.48203772
90.47313274
90.46427236
90.45545542
90.44668126
90.43794954
90.4292601
90.42061269
90.41200673
90.40344103
90.39491371
90.38642244
90.37796459
90.36953728
90.36113712
90.35275978
90.34439898
90.33605213
90.32771677
90.31938924
90.31106604
90.30274318
90.29441726
90.28608457
90.27774149
90.2693848
90.26101127
90.25261735
90.24419822
90.23574543
90.22724335
90.21866771
90.20999284
90.20121584
90.19235393
90.18342226
90.17442943
90.16537945
90.15627351
90.14711108
90.13789044
90.12860898
90.1192635
90.10985085
90.10036474
90.09079079
90.08112755
90.07139364
90.06160413
90.05175671
90.04184742
90.03187703
90.02184892
90.01176636
90.00163142
89.99144668
89.98120721
89.9709082
89.96054535
89.95011366
89.93960582
89.92900948
89.91830064
89.90748207
89.89655085
89.88551121
89.87437355
89.8631494
89.85183102
89.84041574
89.82889377
89.81724082
89.80544772
89.79351334
89.78143849
89.76920434
89.75679931
89.74420266
89.73139486
89.71835963
89.70508178
89.69154762
89.67774259
89.66364941
89.64928952
89.63466936
89.619795
89.60464011
89.58914932
89.57323845
89.55679803
89.53976147
89.52205822
89.50362742
89.48438831
89.4642481
89.44311794
89.42089316
89.39746483
89.37272475
89.34657136
89.31893652
89.2896226
89.25846013
89.22529175
89.18994666
89.15226163
89.11221508
89.06956988
89.02396836
88.97499259
88.92218004
88.86510704
88.80330737
88.73606854
88.66270609
88.58244188
88.49464421
88.39848531
88.29303975
88.17736122
88.05014483
87.90981417
87.75467107
87.5828931
87.39237563
87.18081069
86.94549381
86.6830045
86.38908128
86.05887175
85.68656573
85.26595844
84.79011771
84.25112844
83.63853155
82.93811975
82.1341146
81.20916883
80.14055821
78.90025262
77.45429371
75.76505522
73.77468764
71.42460963
68.65054916
65.36104144
61.44182229
56.81368202
51.41346539
45.21333065
38.36270937
31.11235462
23.90471079
17.29821109
12.01576525
8.286938517
5.889809847
4.287793822
3.205032563
2.485098869
2.005967891
1.69154026
1.479603316
1.325259953
1.219288762
1.145496893
1.095351486
1.060039302
1.036510043
1.020721407
1.010430351
1.003748463
0.9994835667
0.9967968657
0.9953411918
0.9947188734
0.9945630654
0.9947289402
0.9950887769
0.9955270553
0.9960228249
0.9965079931
0.9969710536
0.9974002404
0.9977841109
0.9981250271
0.9984224696
0.9986790851
0.9988990083
0.9990857996
0.9992435283
0.9993760102
0.9994867454
0.9995788962
0.9996553293
0.9997185175
0.9997705819
0.9998133878
0.9998484753
0.9998771785
0.9999006051
0.9999196872
0.9999352018
0.9999477936
0.9999579963
0.9999662497
0.9999729163
0.9999782933
0.9999826239
0.9999861073
0.9999889053
0.9999911501
0.9999929487
0.9999943882
0.9999955389
0.9999964576
0.9999971902
0.9999977738
0.9999982382
0.9999986073
0.9999989004
0.9999991328
0.9999993168
0.9999994625
0.9999995776
0.9999996685
0.9999997401
0.9999997966
0.999999841
0.9999998758
0.9999999032
0.9999999247
0.9999999414
0.9999999546
0.9999999648
0.9999999728
0.999999979
0.9999999838
0.9999999876
0.9999999905
0.9999999927
0.9999999944
0.9999999958
0.9999999968
0.9999999976
0.9999999982
0.9999999987
0.999999999
0.9999999993
0.9999999995
0.9999999996
0.9999999997
0.9999999998
0.9999999999
0.9999999999
1
1
1
1
1
1
1
1
1
1
1
1
1
1
1
1
1
1
1
1
1
1
1
1
1
1
1
1
1
1
1
1
1
1
1
1
1
1
1
1
1
1
1
1
1
1
1
1
1
1
1
1
1
1
1
1
1
1
1
1
1
1
1
1
1
1
1
1
1
1
1
1
1
1
1
1
1
1
1
1
1
1
1
1
1
1
1
1
1
1
1
1
1
1
1
1
1
1
1
1
1
1
1
1
1
1
1
1
1
1
1
1
1
1
1
1
1
1
1
1
1
1
1
1
1
1
1
1
1
1
1
1
1
1
1
1
1
1
1
1
1
1
1
1
1
1
1
1
1
1
1
1
1
1
1
1
1
1
1
1
1
1
1
1
1
1
1
1
1
1
1
1
1
1
1
1
1
1
1
1
1
1
1
1
1
1
1
1
1
1
1
1
1
1
94.77267132
94.76700676
94.75676762
94.74280083
94.72588784
94.70674492
94.68595151
94.66373743
94.64030394
94.61585864
94.59057666
94.56455441
94.53788383
94.51065442
94.48293592
94.45483061
94.4264121
94.39773916
94.36885874
94.33980703
94.31061036
94.28128593
94.25184353
94.22228829
94.19262375
94.16285576
94.13299701
94.10307426
94.07313609
94.04325783
94.01353857
93.98408498
93.95493763
93.9260382
93.89730962
93.86869567
93.84017281
93.81174779
93.78344875
93.75531259
93.7273173
93.69943084
93.67161657
93.64384866
93.61611988
93.58843883
93.56082695
93.53331684
93.50595126
93.4787815
93.45186234
93.4252403
93.39893308
93.37293035
93.34719344
93.32167079
93.29631678
93.27109869
93.24599772
93.2210076
93.19613242
93.17138355
93.14677491
93.1223169
93.09801485
93.07387643
93.04991681
93.02616053
93.0026409
92.97939954
92.9564455
92.93376983
92.91135097
92.8891645
92.86719488
92.84544576
92.82387639
92.80244703
92.78114354
92.75996536
92.73892063
92.71802388
92.69729439
92.6767543
92.65642591
92.63632826
92.61647446
92.59687084
92.5775161
92.55840141
92.53951258
92.52083387
92.50235139
92.48405525
92.46594033
92.44800612
92.43025564
92.41269386
92.39532584
92.37815674
92.3611929
92.34444216
92.32791294
92.31161258
92.29554506
92.27970855
92.26409495
92.24869161
92.23348443
92.21846015
92.20360686
92.18891319
92.17436955
92.15996983
92.14571164
92.13159596
92.11762653
92.10380922
92.09015138
92.07666116
92.06334685
92.05021616
92.03727486
92.02452355
92.01195988
91.99958203
91.98739115
91.97537607
91.9635295
91.95184651
91.94032385
91.92895227
91.91772501
91.90663732
91.89568599
91.88486898
91.87418505
91.86363327
91.85321261
91.84292125
91.83275592
91.8227123
91.81278534
91.8029695
91.79325902
91.78364811
91.77413141
91.76470442
91.75536351
91.74610624
91.73693076
91.72783392
91.71881397
91.7098701
91.70100214
91.69221046
91.6834957
91.67485851
91.66629908
91.65781671
91.64940939
91.64107467
91.63280985
91.62461222
91.61647864
91.60840559
91.60039006
91.59242713
91.58451241
91.57664149
91.56881048
91.5610151
91.55325143
91.54551544
91.53780326
91.53011127
91.52243583
91.51477301
91.5071179
91.49946404
91.49180404
91.4841248
91.47641204
91.4686623
91.46088041
91.45307257
91.44524365
91.43739684
91.42953345
91.42165325
91.41375494
91.40583692
91.39789911
91.38994719
91.3819755
91.37397855
91.36595609
91.35791051
91.3498446
91.34175786
91.33364636
91.32550798
91.31735037
91.30917709
91.30098946
91.29278639
91.28456462
91.2763188
91.2680428
91.25973078
91.25137774
91.24297982
91.23453633
91.22604724
91.21747104
91.20881417
91.2000794
91.1912659
91.18236838
91.17337936
91.16428728
91.15507861
91.14574554
91.13628764
91.12671439
91.11699703
91.10712047
91.09705403
91.08676945
91.07624472
91.06546116
91.05440328
91.04305658
91.03142045
91.01948752
91.00724931
90.99471157
90.98179205
90.9683988
90.95444241
90.9398729
90.92462253
90.90862414
90.89182852
90.87418995
90.85556142
90.83583757
90.81489608
90.79261967
90.76889605
90.74360304
90.71660106
90.68770664
90.65670888
90.62342567
90.5876663
90.54923829
90.50791903
90.46343662
90.4154647
90.36363484
90.30743984
90.24634206
90.17969814
90.10683059
90.02701249
89.93950601
89.84356653
89.73831742
89.62279586
89.49582634
89.35608488
89.20174464
89.03062552
88.8408874
88.630182
88.39604042
88.1358949
87.84674317
87.52377987
87.16185362
86.75480164
86.29688278
85.78083311
85.19781566
84.53633925
83.78359834
82.92496866
81.94224402
80.81444844
79.51474254
78.01182248
76.26866742
74.236979
71.87119651
69.11463708
65.88803831
62.11613779
57.75390632
52.78398875
47.22983146
41.21794966
34.91565056
28.52102324
22.40033468
17.06502605
12.92964128
9.806175613
7.450214907
5.627996084
4.235659473
3.228413587
2.537185639
2.073293301
1.760413069
1.54136279
1.381611549
1.266587961
1.180842973
1.121723314
1.079288638
1.049969301
1.029986518
1.016727411
1.00800577
1.002365611
0.9987563366
0.9965590441
0.9954145875
0.9949797111
0.9948852836
0.9951096055
0.9954714836
0.9958988145
0.9963706899
0.9968236862
0.9972542323
0.997649462
0.9980015595
0.9983128658
0.99858354
0.9988164908
0.9990154241
0.9991840969
0.9993260711
0.9994450327
0.9995443295
0.9996267446
0.9996950253
0.9997513373
0.9997976716
0.9998356862
0.9998667951
0.9998921979
0.9999128962
0.9999297293
0.9999433925
0.9999544638
0.99996342
0.9999706531
0.9999764866
0.9999811838
0.9999849612
0.9999879946
0.9999904276
0.9999923763
0.9999939354
0.9999951811
0.9999961753
0.9999969678
0.9999975989
0.9999981007
0.9999984994
0.9999988158
0.9999990666
0.9999992651
0.9999994221
0.9999995461
0.999999644
0.9999997211
0.9999997818
0.9999998295
0.999999867
0.9999998964
0.9999999194
0.9999999374
0.9999999514
0.9999999624
0.9999999709
0.9999999776
0.9999999828
0.9999999868
0.9999999899
0.9999999923
0.9999999941
0.9999999955
0.9999999966
0.9999999975
0.9999999981
0.9999999986
0.9999999989
0.9999999992
0.9999999994
0.9999999996
0.9999999997
0.9999999998
0.9999999999
0.9999999999
0.9999999999
1
1
1
1
1
1
1
1
1
1
1
1
1
1
1
1
1
1
1
1
1
1
1
1
1
1
1
1
1
1
1
1
1
1
1
1
1
1
1
1
1
1
1
1
1
1
1
1
1
1
1
1
1
1
1
1
1
1
1
1
1
1
1
1
1
1
1
1
1
1
1
1
1
1
1
1
1
1
1
1
1
1
1
1
1
1
1
1
1
1
1
1
1
1
1
1
1
1
1
1
1
1
1
1
1
1
1
1
1
1
1
1
1
1
1
1
1
1
1
1
1
1
1
1
1
1
1
1
1
1
1
1
1
1
1
1
1
1
1
1
1
1
1
1
1
1
1
1
1
1
1
1
1
1
1
1
1
1
1
1
1
1
1
1
1
1
1
1
1
1
1
1
1
1
1
1
1
1
1
1
1
1
1
1
1
1
1
1
1
1
1
96.06464256
96.05875631
96.04806949
96.03340378
96.01554985
95.9953081
95.97340154
95.94997678
95.92518801
95.89932967
95.87270301
95.84525785
95.81708104
95.78828045
95.75895884
95.72920969
95.69911247
95.6687321
95.63811994
95.60731468
95.57634309
95.54522111
95.51395524
95.48254482
95.45098516
95.41927259
95.38740545
95.35539676
95.32328925
95.2911679
95.25916437
95.22742077
95.19605011
95.16496973
95.13404284
95.10318156
95.07235548
95.04158254
95.01091579
94.98040519
94.95001905
94.91978231
94.8896084
94.85944471
94.82928075
94.79912665
94.76900675
94.73895794
94.70903045
94.67928963
94.64981457
94.62068571
94.59195307
94.56359895
94.53555
94.50772423
94.48005726
94.4525077
94.42505438
94.39769254
94.37043109
94.34328985
94.31629296
94.2894546
94.26277078
94.23624144
94.20988012
94.18371549
94.15778875
94.13214269
94.10682901
94.08184253
94.05714733
94.03270088
94.00847842
93.98447121
93.96061768
93.93688809
93.91327413
93.88977956
93.86641648
93.84320394
93.82016724
93.79733661
93.77474381
93.75241619
93.73037207
93.70862139
93.68716373
93.66598651
93.6450684
93.62438607
93.60391968
93.58365586
93.56358845
93.54371799
93.52405039
93.50459402
93.48535531
93.46633903
93.44755235
93.4290058
93.41071177
93.39268189
93.37492344
93.3574361
93.34021033
93.3232299
93.30647646
93.289934
93.27358978
93.25742909
93.24143849
93.22561014
93.20994164
93.19443485
93.17909507
93.16393013
93.14894972
93.13416443
93.11958505
93.10522241
93.09108945
93.0771828
93.06349415
93.05001833
93.03675055
93.02368679
93.01082246
92.99815423
92.98567985
92.97338677
92.96126748
92.9493172
92.93753305
92.92591359
92.91445829
92.903167
92.8920393
92.88107383
92.87026773
92.8596166
92.84911479
92.8387558
92.82853289
92.81843956
92.80846998
92.79861924
92.78888347
92.77925969
92.76974559
92.76033922
92.7510393
92.74184543
92.73275806
92.72377838
92.71490806
92.70614899
92.69750264
92.68896913
92.68054574
92.67222958
92.66401777
92.6559078
92.64789675
92.63998124
92.63215937
92.62442517
92.61677223
92.60919665
92.60169421
92.59426034
92.58689056
92.57958047
92.57232597
92.56512322
92.55796861
92.55085842
92.54378841
92.53675334
92.52974645
92.52276088
92.51579142
92.50883561
92.50189356
92.49496616
92.48805549
92.48116445
92.47429439
92.46744498
92.46061474
92.45380087
92.44699998
92.4402159
92.43345004
92.42670922
92.41999487
92.413299
92.4066204
92.39995904
92.39331493
92.38668836
92.38008186
92.37349798
92.36693778
92.36040023
92.35388173
92.34737488
92.34087033
92.33436092
92.32784327
92.32131963
92.31480172
92.30827284
92.30171973
92.29512636
92.28848157
92.28176783
92.27498405
92.26812765
92.26118531
92.25414142
92.24698709
92.23971306
92.23230741
92.22475712