/*--------------------------------*- C++ -*----------------------------------*\
| =========                 |                                                 |
| \\      /  F ield         | OpenFOAM: The Open Source CFD Toolbox           |
|  \\    /   O peration     | Version:  v2006                                 |
|   \\  /    A nd           | Website:  www.openfoam.com                      |
|    \\/     M anipulation  |                                                 |
\*---------------------------------------------------------------------------*/
FoamFile
{
    version     2.0;
    format      ascii;
    class       volScalarField;
    location    "0.09";
    object      theta2;
}
// * * * * * * * * * * * * * * * * * * * * * * * * * * * * * * * * * * * * * //

dimensions      [0 0 0 0 0 0 0];


internalField   nonuniform List<scalar> 
72000
(
3.766154797
3.76573454
3.765158182
3.764552214
3.764014166
3.763587888
3.763295167
3.763138756
3.763115598
3.763216575
3.76342764
3.763728266
3.764109235
3.764567634
3.765095163
3.765680089
3.76631072
3.766977066
3.767671204
3.76838749
3.769121506
3.769867023
3.770616168
3.771362289
3.772100488
3.77282712
3.773539536
3.77423603
3.774915824
3.775578939
3.776225784
3.776856306
3.777469046
3.778061168
3.778629267
3.779169952
3.779680094
3.780156929
3.780598189
3.78100236
3.781368972
3.781698655
3.781992947
3.782253936
3.782483922
3.78268526
3.782860341
3.783011646
3.783141724
3.783252709
3.783343781
3.783417885
3.78347991
3.78352884
3.783558849
3.783556063
3.783540027
3.783506267
3.783453864
3.783382681
3.783292934
3.783185203
3.783060576
3.782920901
3.782769029
3.782607624
3.782437987
3.782260995
3.782078105
3.781890688
3.78169935
3.781504348
3.78130606
3.781105099
3.780902223
3.780698141
3.780493347
3.780288184
3.780083034
3.779878442
3.77967514
3.779474021
3.779276112
3.779082543
3.778894532
3.778713355
3.778540308
3.778376657
3.778223585
3.778082196
3.777953211
3.777837562
3.777735969
3.777649129
3.777577754
3.777522615
3.777484578
3.777464803
3.777464253
3.777484503
3.777527004
3.777593368
3.777685301
3.777804599
3.777953015
3.778131843
3.778341636
3.778582802
3.778855947
3.779161909
3.77950172
3.77987658
3.78028782
3.780736872
3.781225239
3.781754481
3.782326205
3.782942064
3.783603758
3.784313034
3.785071662
3.785881288
3.786742721
3.78765258
3.788612585
3.78962383
3.790683544
3.791799888
3.792975863
3.794213389
3.795514168
3.796879835
3.798312036
3.799812486
3.801382991
3.803025455
3.804741887
3.806534456
3.808405515
3.810357145
3.812391154
3.814509149
3.816713038
3.819005442
3.821391871
3.823874598
3.826451697
3.829124755
3.831895931
3.83476741
3.837741486
3.840820664
3.844007507
3.847304568
3.8507144
3.85423958
3.857882732
3.861646543
3.865533774
3.869547266
3.873689941
3.877964789
3.88237485
3.886923178
3.891612793
3.896446693
3.901427976
3.90655992
3.911846036
3.917289937
3.922895386
3.928666194
3.93460646
3.940720247
3.947011581
3.95348483
3.960144316
3.966994332
3.974037858
3.981271239
3.988697514
3.996329529
4.004143269
4.012146532
4.0203731
4.028830674
4.037523477
4.046455867
4.055632737
4.065059438
4.074741689
4.084685523
4.094897264
4.105383535
4.116151284
4.127207682
4.138559925
4.150215232
4.16218087
4.174464486
4.187074178
4.200018893
4.213310004
4.226968501
4.240994231
4.255393465
4.270174445
4.285343856
4.300900242
4.316825448
4.333154481
4.349907295
4.36710602
4.38476555
4.402900352
4.421525673
4.440658555
4.460322398
4.480527336
4.501285661
4.522613318
4.544528348
4.567048544
4.590191505
4.613975407
4.638419532
4.663544156
4.689370031
4.715907967
4.743162116
4.771192347
4.800035172
4.829718407
4.860267438
4.891717124
4.924101425
4.957424129
4.991749962
5.027103888
5.063544309
5.101126784
5.139895598
5.179892216
5.221154822
5.263715654
5.307562504
5.352829139
5.399592683
5.447890705
5.497793705
5.549408928
5.602818784
5.658105611
5.715355485
5.774654504
5.836076091
5.899749107
5.965771748
6.034272243
6.105383263
6.179249487
6.256030199
6.335891123
6.419012637
6.5055732
6.595763495
6.689793513
6.787888468
6.890285457
6.997269668
7.109161087
7.226255454
7.348892283
7.477404428
7.612000146
7.752923622
7.900574347
8.055597199
8.218355507
8.389494813
8.569354629
8.758118329
8.956763283
9.16609132
9.387179859
9.619959637
9.864633683
10.12142868
10.3919159
10.67590626
10.97248103
11.27940941
11.59645248
11.92054402
12.24683139
12.57022214
12.88520641
13.18543475
13.44987424
13.66656627
13.83387726
13.96463424
14.2240839
15.07599911
17.7184175
24.9907818
53.35175431
76.64679031
86.14443433
91.26136238
94.17041897
96.04985703
97.32583398
98.18632201
98.72952576
99.10966741
99.38185559
99.56401557
99.67838366
99.75336355
99.80675653
99.84678301
99.87774163
99.90211538
99.92150211
99.93701356
99.94946033
99.95946097
99.96750121
99.97396461
99.97915895
99.98333111
99.98667984
99.98936573
99.99151805
99.99324129
99.99461973
99.99572129
99.99660075
99.9973022
99.99786111
99.998306
99.99865977
99.9989408
99.99916383
99.99934063
99.99948064
99.9995914
99.99967893
99.99974801
99.99980248
99.99984538
99.99987913
99.99990564
99.99992644
99.99994275
99.99995551
99.99996548
99.99997327
99.99997934
99.99998406
99.99998773
99.99999057
99.99999278
99.99999448
99.99999579
99.9999968
99.99999758
99.99999817
99.99999863
99.99999897
99.99999924
99.99999943
99.99999958
99.9999997
99.99999978
99.99999984
99.99999989
99.99999992
99.99999995
99.99999997
99.99999998
99.99999999
99.99999999
100
100
100
100
100
100
100
100
100
100
100
100
100
100
100
100
100
100
100
100
100
100
100
100
100
100
100
100
100
100
100
100
100
100
100
100
100
100
100
100
100
100
100
100
100
100
100
100
100
100
100
100
100
100
100
100
100
100
100
100
100
100
100
100
100
100
100
100
100
100
100
100
100
100
100
100
100
100
100
100
100
100
100
100
100
100
100
100
100
100
100
100
100
100
100
100
100
100
100
100
100
100
100
100
100
100
100
100
100
100
100
100
100
100
100
100
100
100
100
100
100
100
100
100
100
100
100
100
100
100
100
100
100
100
100
100
100
100
100
100
100
100
100
100
100
100
100
100
100
100
100
100
100
100
100
100
100
100
100
100
100
100
100
100
100
100
100
100
100
100
100
100
100
100
100
100
100
100
100
100
100
100
100
100
100
100
100
100
100
100
100
100
100
100
100
100
100
100
100
100
100
100
100
100
100
100
100
100
100
100
100
100
100
100
100
100
7.517922669
7.517243502
7.516286304
7.515314116
7.514501824
7.513936506
7.513665957
7.513684668
7.51399331
7.514568251
7.515383329
7.516411891
7.517630351
7.519019347
7.520559561
7.522222738
7.523982402
7.525816703
7.527708211
7.529645286
7.531628624
7.533645202
7.535667939
7.537682291
7.539678156
7.541647784
7.543585263
7.545486499
7.547349314
7.549173377
7.550959571
7.552708126
7.554415866
7.556076403
7.557682468
7.559227079
7.560703827
7.562106926
7.563431473
7.564674133
7.565834003
7.56691274
7.567914037
7.568842649
7.569703547
7.570501562
7.571241433
7.57192803
7.572566645
7.573163424
7.573726289
7.574261105
7.574770216
7.575250505
7.575694852
7.576096979
7.576451606
7.576762332
7.577029821
7.577254356
7.577436461
7.577577223
7.577678616
7.577744133
7.577780435
7.577802493
7.577804772
7.577786897
7.577752306
7.577704328
7.577643886
7.577571247
7.577487295
7.577393627
7.577292252
7.577185064
7.577073313
7.576957781
7.576839309
7.576719059
7.57659854
7.57647954
7.576364077
7.576254368
7.576152828
7.576062034
7.575984681
7.575923454
7.57588088
7.575859621
7.575860843
7.575886984
7.575939537
7.576020044
7.576130038
7.576271142
7.576445179
7.576654302
7.576900992
7.577188162
7.577518958
7.577896719
7.578324977
7.578807574
7.579348564
7.579951008
7.580615672
7.581343284
7.58213526
7.58299355
7.583920506
7.584918804
7.585991373
7.587141316
7.588371845
7.589686247
7.591087872
7.592580136
7.594166538
7.595850681
7.597636301
7.599527337
7.60152821
7.603644935
7.605878881
7.608229364
7.610697795
7.613286978
7.616000132
7.618840754
7.621812453
7.624918723
7.628163074
7.63154917
7.635080856
7.638762148
7.642597245
7.646590649
7.650747635
7.655075889
7.659575913
7.664250697
7.669103923
7.674139236
7.679358934
7.684766184
7.690366326
7.696165808
7.702169591
7.708382168
7.714808195
7.721452978
7.728321836
7.735419986
7.742752617
7.750324956
7.758142323
7.766210164
7.774534078
7.78311983
7.791973344
7.801100693
7.810508042
7.820201581
7.830187387
7.840471428
7.851059862
7.861959282
7.873176799
7.884719658
7.896595401
7.908811581
7.921376372
7.934297842
7.947583914
7.961243295
7.975284713
7.989717305
8.004550211
8.01979429
8.035465905
8.051594056
8.068249149
8.085438661
8.10311939
8.1212865
8.13994482
8.159102466
8.178769093
8.198955311
8.219672443
8.240932425
8.262747757
8.285131515
8.308097446
8.331659726
8.355832338
8.380629265
8.406065904
8.432155883
8.458913541
8.486354591
8.514495075
8.54334806
8.57293673
8.603281617
8.634400912
8.666312036
8.699032388
8.732582299
8.766993541
8.802291489
8.838495001
8.875627536
8.913715639
8.952787155
8.992870067
9.033990524
9.076180009
9.119466105
9.163879442
9.209456209
9.25622852
9.304227476
9.353485434
9.404037354
9.455920054
9.509179489
9.563862296
9.620008951
9.677680578
9.736935246
9.797817403
9.860337824
9.924578892
9.990633161
10.05858205
10.12849724
10.20048705
10.27460147
10.35089999
10.42945968
10.5103566
10.59364205
10.67942144
10.76780492
10.85891259
10.95287303
11.04982337
11.14989553
11.25321376
11.35991644
11.47013475
11.58401921
11.7017317
11.82345138
11.94935052
12.07964098
12.21441681
12.35387735
12.49836127
12.6481707
12.80358492
12.9649493
13.13261247
13.30682082
13.48799933
13.67650511
13.87285412
14.07748009
14.29082056
14.51346274
14.74607475
14.98938429
15.24403809
15.51031539
15.78947129
16.0826227
16.39061898
16.71398935
17.05332672
17.40995306
17.78582162
18.18167139
18.59884831
19.03850093
19.50207534
19.99124301
20.50715998
21.05059499
21.62062233
22.21573553
22.83601936
23.4795819
24.14575169
24.83322921
25.53509607
26.22388242
26.90412931
27.59152988
28.318861
29.21644356
30.51910518
33.08144157
39.08123802
51.08288016
71.1145806
84.10948791
90.4348789
93.92654999
95.90367109
97.14565325
97.98406267
98.54914843
98.94652371
99.2271528
99.43081911
99.57475527
99.67515432
99.74692937
99.80023609
99.8411317
99.87312578
99.89844504
99.91861789
99.93476779
99.94771962
99.95811317
99.96646024
99.97316067
99.9785387
99.98285301
99.98631136
99.98908216
99.9912999
99.99307363
99.99449104
99.99562259
99.99652515
99.99724436
99.99781691
99.99827228
99.99863408
99.99892126
99.99914899
99.99932938
99.99947214
99.99958498
99.99967409
99.99974438
99.99979976
99.99984335
99.99987762
99.99990452
99.99992562
99.99994214
99.99995507
99.99996516
99.99997304
99.99997917
99.99998394
99.99998765
99.99999052
99.99999274
99.99999445
99.99999578
99.99999679
99.99999757
99.99999817
99.99999863
99.99999897
99.99999924
99.99999944
99.99999959
99.9999997
99.99999978
99.99999985
99.99999989
99.99999992
99.99999995
99.99999997
99.99999998
99.99999999
99.99999999
100
100
100
100
100
100
100
100
100
100
100
100
100
100
100
100
100
100
100
100
100
100
100
100
100
100
100
100
100
100
100
100
100
100
100
100
100
100
100
100
100
100
100
100
100
100
100
100
100
100
100
100
100
100
100
100
100
100
100
100
100
100
100
100
100
100
100
100
100
100
100
100
100
100
100
100
100
100
100
100
100
100
100
100
100
100
100
100
100
100
100
100
100
100
100
100
100
100
100
100
100
100
100
100
100
100
100
100
100
100
100
100
100
100
100
100
100
100
100
100
100
100
100
100
100
100
100
100
100
100
100
100
100
100
100
100
100
100
100
100
100
100
100
100
100
100
100
100
100
100
100
100
100
100
100
100
100
100
100
100
100
100
100
100
100
100
100
100
100
100
100
100
100
100
100
100
100
100
100
100
100
100
100
100
100
100
100
100
100
100
100
100
100
100
100
100
100
100
100
100
100
100
100
100
100
100
100
100
100
100
100
100
100
100
100
100
10.75607572
10.75535818
10.75429825
10.75322882
10.75236803
10.75183696
10.75169864
10.75196365
10.7526239
10.75365111
10.75501008
10.75666482
10.75858267
10.76074009
10.76313673
10.76570505
10.76840474
10.77120482
10.77407909
10.77700469
10.77996148
10.78293174
10.78589937
10.78884988
10.7917708
10.79465164
10.79748399
10.80026188
10.80298215
10.80564479
10.80825274
10.81080915
10.81330955
10.81574284
10.81809763
10.82036375
10.82253193
10.82459351
10.82654059
10.82836737
10.83007235
10.83165843
10.83313193
10.8345006
10.83577201
10.83695308
10.83805037
10.83907051
10.8400207
10.84090946
10.84174871
10.84254859
10.84332665
10.84407332
10.84477053
10.84541069
10.84599011
10.84650772
10.84696309
10.84735616
10.84768737
10.84795789
10.84816984
10.84832652
10.84843242
10.848493
10.84851409
10.84850312
10.84846784
10.84841547
10.84834562
10.84825742
10.84815203
10.84803204
10.84790091
10.84776196
10.84761692
10.84746644
10.84731146
10.8471536
10.84699502
10.84683828
10.84668623
10.84654199
10.84640901
10.84629099
10.84619193
10.84611583
10.84606651
10.84604746
10.846061
10.84611012
10.84619705
10.8463239
10.84649276
10.84670583
10.84696556
10.84727492
10.84763752
10.84805754
10.84853957
10.84908835
10.84970878
10.85040643
10.85118923
10.8520665
10.85303259
10.85408784
10.85523439
10.85647516
10.85781361
10.85925364
10.86079953
10.86245579
10.86422704
10.86611798
10.86813337
10.87027808
10.87255705
10.8749754
10.87753843
10.88025176
10.88312163
10.88615618
10.88935807
10.89272811
10.89626941
10.89998436
10.90387645
10.90795053
10.91221191
10.91666542
10.92131593
10.92616861
10.93122895
10.93650264
10.94199554
10.94771359
10.95366286
10.95984946
10.96627916
10.9729576
10.97989057
10.98708388
10.9945434
11.00227549
11.01028699
11.01858437
11.02717393
11.0360611
11.04525133
11.05475372
11.06457593
11.07472529
11.08520906
11.0960346
11.1072094
11.11874115
11.13063774
11.14290733
11.15555833
11.16859932
11.18203906
11.19588635
11.21014973
11.22483741
11.23995778
11.2555202
11.27153495
11.28801221
11.30496267
11.32239678
11.34032608
11.35876182
11.37771519
11.39719844
11.417224
11.43780502
11.45895541
11.48069123
11.50303197
11.52600229
11.54962976
11.57392794
11.59889834
11.62454594
11.65087999
11.6779124
11.70565673
11.73412766
11.7633408
11.79331253
11.82406
11.85560115
11.88795504
11.92114171
11.95518007
11.99008769
12.02588281
12.0625854
12.10021638
12.13879764
12.17835215
12.21890411
12.26048056
12.30311289
12.34682283
12.39163473
12.43757643
12.48467949
12.53298209
12.58251459
12.63330009
12.68536956
12.73876029
12.79351004
12.84965557
12.90722921
12.96627741
13.0268458
13.08897748
13.15271371
13.21809485
13.28516009
13.35395112
13.42451566
13.49687872
13.5711246
13.64733538
13.72558353
13.80593965
13.88847662
13.97327044
14.06040362
14.14995472
14.2420058
14.33664715
14.43396691
14.53405446
14.63700373
14.74291716
14.85190484
14.96408666
15.07960346
15.1985992
15.3211634
15.44742976
15.57756809
15.71178358
15.85024692
15.99308838
16.14048033
16.29261925
16.4497136
16.61197358
16.77956488
16.95274117
17.13181311
17.31704517
17.50872261
17.7071688
17.91282124
18.12608733
18.34743082
18.57739346
18.8164079
19.06498454
19.32374037
19.59322333
19.87395935
20.16648977
20.47171276
20.79037493
21.12324306
21.47180444
21.83717949
22.22024812
22.62244315
23.04508299
23.48999054
23.95893759
24.45281639
24.97389171
25.5240237
26.10426316
26.71678183
27.3637554
28.04833164
28.77133252
29.53487818
30.33704217
31.1783051
32.05676168
32.97412093
33.93742273
34.94699513
35.97640658
37.03426787
38.17821854
39.45902677
41.05390015
43.21175024
46.07610073
50.62598921
57.96388376
68.39667907
80.06510389
87.98936791
92.39470493
94.87584986
96.34779657
97.31758364
98.01928942
98.51663221
98.87880732
99.14340665
99.34075199
99.48954171
99.60206929
99.68809895
99.75418044
99.80503405
99.84477922
99.87617569
99.90108149
99.92095141
99.9368229
99.94951216
99.95967262
99.96780094
99.9743068
99.97951274
99.98367427
99.98700186
99.98965919
99.99178015
99.99347206
99.99482018
99.99589372
99.99674782
99.99742668
99.99796582
99.99839359
99.99873267
99.99900122
99.99921369
99.99938164
99.99951425
99.99961887
99.9997013
99.99976619
99.99981721
99.99985728
99.99988872
99.99991336
99.99993264
99.99994771
99.99995947
99.99996865
99.99997579
99.99998133
99.99998564
99.99998898
99.99999156
99.99999355
99.99999509
99.99999627
99.99999718
99.99999787
99.9999984
99.9999988
99.99999911
99.99999934
99.99999952
99.99999965
99.99999974
99.99999982
99.99999987
99.99999991
99.99999994
99.99999996
99.99999997
99.99999998
99.99999999
100
100
100
100
100
100
100
100
100
100
100
100
100
100
100
100
100
100
100
100
100
100
100
100
100
100
100
100
100
100
100
100
100
100
100
100
100
100
100
100
100
100
100
100
100
100
100
100
100
100
100
100
100
100
100
100
100
100
100
100
100
100
100
100
100
100
100
100
100
100
100
100
100
100
100
100
100
100
100
100
100
100
100
100
100
100
100
100
100
100
100
100
100
100
100
100
100
100
100
100
100
100
100
100
100
100
100
100
100
100
100
100
100
100
100
100
100
100
100
100
100
100
100
100
100
100
100
100
100
100
100
100
100
100
100
100
100
100
100
100
100
100
100
100
100
100
100
100
100
100
100
100
100
100
100
100
100
100
100
100
100
100
100
100
100
100
100
100
100
100
100
100
100
100
100
100
100
100
100
100
100
100
100
100
100
100
100
100
100
100
100
100
100
100
100
100
100
100
100
100
100
100
100
100
100
100
100
100
100
100
100
100
100
100
100
100
13.63399093
13.63345455
13.63266865
13.63193777
13.63148406
13.63142931
13.63184524
13.63274887
13.63412765
13.63594682
13.63816331
13.6407336
13.64361449
13.64676293
13.65013759
13.65370011
13.65741308
13.6612421
13.66515523
13.66912152
13.67310681
13.67708957
13.68106019
13.6850042
13.68890723
13.69275635
13.69654074
13.70025229
13.70388632
13.70744256
13.71092715
13.71435953
13.71773279
13.7210207
13.7242078
13.7272817
13.73023104
13.73304437
13.7357096
13.7382164
13.74056249
13.74275264
13.74479746
13.74670891
13.74849732
13.75017124
13.75173833
13.75320612
13.7545824
13.75587528
13.75709257
13.75823968
13.75931912
13.76033124
13.76127376
13.76214331
13.76293705
13.76365318
13.76429061
13.76484889
13.76532816
13.76572938
13.76605456
13.76630686
13.76648974
13.7666036
13.76666125
13.76667433
13.76665669
13.76663794
13.76659894
13.7665339
13.76644475
13.76633551
13.76621174
13.76607959
13.76594089
13.7657951
13.76564292
13.76548636
13.76532824
13.76517175
13.76502034
13.76487779
13.76474837
13.7646367
13.76454809
13.76448787
13.76446158
13.76447264
13.76452521
13.76462244
13.76476712
13.7649618
13.76520891
13.76551093
13.76587065
13.76629156
13.76677819
13.76733603
13.76797103
13.76868909
13.76949581
13.77039644
13.77139583
13.77249849
13.77370799
13.7750277
13.77646129
13.77801272
13.7796864
13.78148736
13.78342117
13.7854936
13.78771052
13.79007782
13.79260145
13.79528744
13.79814193
13.80117128
13.80438203
13.80778092
13.81137455
13.81516863
13.81916758
13.82337727
13.82780974
13.83246029
13.83733228
13.8424325
13.84776852
13.85334586
13.85917023
13.86524808
13.87158634
13.87819218
13.88507286
13.89223558
13.89968729
13.90743392
13.91548443
13.92384664
13.93252813
13.94153652
13.95087974
13.96056654
13.97060582
13.98100461
13.99177091
14.00291317
14.01444002
14.0263599
14.0386815
14.05141365
14.06456529
14.07814552
14.09216362
14.10662911
14.12155188
14.1369421
14.15281027
14.16916719
14.1860238
14.20339125
14.22128026
14.23970067
14.25866039
14.27817245
14.29825081
14.31890801
14.34015737
14.36201174
14.38448529
14.4075919
14.43134571
14.45576174
14.4808555
14.50664323
14.5331421
14.56037088
14.58835022
14.6171024
14.64664933
14.67700786
14.70819036
14.74020934
14.77307896
14.8068151
14.84143494
14.8769568
14.91339991
14.95078435
14.98913101
15.02846183
15.06880095
15.11017766
15.15261606
15.19613201
15.24074664
15.28648482
15.33337269
15.3814374
15.43070779
15.48121381
15.53298605
15.58605529
15.64045349
15.69621432
15.75337405
15.81197098
15.87204414
15.93362807
15.99674456
16.06144404
16.12777279
16.19577774
16.26550653
16.33700729
16.41033154
16.48553413
16.56266713
16.6417779
16.72291489
16.80611781
16.89141881
16.97891958
17.06870453
17.16084764
17.25542402
17.3525182
17.45220921
17.55458392
17.65974439
17.767819
17.87888373
17.99302126
18.11034308
18.23095201
18.35494533
18.48243749
18.61356516
18.74845677
18.88725773
19.03014004
19.17723694
19.32868359
19.48460788
19.64523199
19.8107749
19.98144143
20.15741459
20.33885632
20.52601576
20.71916142
20.91858181
21.12461086
21.33756475
21.55765925
21.78521918
22.02061882
22.26428621
22.51666705
22.77822336
23.04933265
23.33066054
23.62290936
23.92675224
24.242838
24.57178058
24.91433679
25.27127998
25.64358002
26.03230643
26.43858058
26.86362856
27.3089899
27.7758994
28.26615038
28.78160472
29.3247623
29.89817849
30.50423024
31.14464806
31.82243419
32.53911028
33.29698304
34.09943261
34.94856758
35.84681603
36.79606834
37.79811149
38.84985307
39.94531498
41.09560608
42.31203799
43.58919287
44.90985963
46.32829476
47.91557711
49.7467511
52.04033546
55.01424969
58.60339348
63.18781579
69.25800111
76.76910732
84.23318547
89.5224308
92.86621961
94.84513589
96.03394109
96.8468017
97.48940708
98.03783684
98.47287587
98.80971499
99.06279911
99.25863603
99.41168851
99.5339508
99.63133169
99.70867213
99.76972403
99.81742405
99.85461123
99.8842825
99.90777474
99.92648303
99.94141009
99.95330279
99.96279871
99.97038355
99.97642917
99.98125724
99.98510622
99.98817274
99.99061661
99.99256093
99.99410746
99.99533672
99.99631264
99.99708701
99.99770087
99.99818705
99.9985718
99.99887603
99.99911634
99.999306
99.99945554
99.99957331
99.99966599
99.99973885
99.99979606
99.99984094
99.9998761
99.99990362
99.99992514
99.99994193
99.99995503
99.99996524
99.99997317
99.99997933
99.99998411
99.99998781
99.99999067
99.99999287
99.99999457
99.99999588
99.99999688
99.99999764
99.99999823
99.99999867
99.99999901
99.99999927
99.99999946
99.99999961
99.99999971
99.99999979
99.99999985
99.9999999
99.99999993
99.99999995
99.99999997
99.99999998
99.99999999
99.99999999
100
100
100
100
100
100
100
100
100
100
100
100
100
100
100
100
100
100
100
100
100
100
100
100
100
100
100
100
100
100
100
100
100
100
100
100
100
100
100
100
100
100
100
100
100
100
100
100
100
100
100
100
100
100
100
100
100
100
100
100
100
100
100
100
100
100
100
100
100
100
100
100
100
100
100
100
100
100
100
100
100
100
100
100
100
100
100
100
100
100
100
100
100
100
100
100
100
100
100
100
100
100
100
100
100
100
100
100
100
100
100
100
100
100
100
100
100
100
100
100
100
100
100
100
100
100
100
100
100
100
100
100
100
100
100
100
100
100
100
100
100
100
100
100
100
100
100
100
100
100
100
100
100
100
100
100
100
100
100
100
100
100
100
100
100
100
100
100
100
100
100
100
100
100
100
100
100
100
100
100
100
100
100
100
100
100
100
100
100
100
100
100
100
100
100
100
100
100
100
100
100
100
100
100
100
100
100
100
100
100
100
100
100
100
16.23739268
16.23719721
16.23698048
16.23697086
16.23735261
16.23821398
16.23958213
16.24150806
16.24397398
16.24693315
16.25033298
16.25412781
16.25826877
16.26269923
16.26734813
16.27219574
16.27720677
16.28234426
16.28757275
16.29285911
16.29817317
16.30349019
16.30879024
16.31405508
16.31926777
16.32441292
16.32947717
16.33444965
16.3393227
16.34409241
16.34875817
16.35332158
16.35778137
16.36212878
16.36635228
16.37044018
16.37438051
16.37815948
16.38175828
16.38514341
16.38831785
16.39129574
16.39409598
16.39673765
16.39923407
16.40159462
16.40382719
16.40593941
16.4079391
16.409834
16.41163069
16.4133315
16.41492732
16.41642492
16.41783305
16.41915151
16.42037821
16.42151122
16.4225492
16.42349133
16.42433728
16.4250874
16.42574324
16.42630862
16.42678969
16.42719367
16.4275291
16.42780319
16.42802059
16.42818487
16.42830001
16.42837352
16.42841308
16.42842457
16.42841618
16.42840901
16.42840036
16.42838158
16.42835305
16.42831762
16.42827881
16.42824035
16.42820598
16.42817964
16.42816626
16.42817082
16.4282004
16.42826193
16.42836195
16.42850575
16.42869788
16.4289421
16.42924165
16.42959945
16.43001816
16.43050026
16.43104838
16.43166605
16.43235868
16.43313334
16.43399758
16.43495855
16.43602254
16.4371946
16.4384774
16.4398721
16.44138868
16.44303311
16.44481043
16.44672545
16.44878336
16.4509904
16.45335357
16.45587999
16.45857671
16.46145066
16.4645088
16.46775812
16.47120576
16.47485904
16.47872563
16.48281355
16.48713053
16.49168155
16.49646985
16.50149893
16.50677357
16.51229905
16.51808209
16.52413402
16.53047133
16.53709371
16.54400712
16.55121938
16.55873892
16.56657436
16.57473435
16.58322748
16.59206227
16.60124722
16.61079135
16.62070363
16.63099301
16.64166852
16.6527394
16.6642152
16.67610556
16.6884201
16.7011688
16.71436265
16.72801278
16.74212761
16.75671687
16.77179075
16.78735969
16.80343428
16.82002533
16.83714396
16.85480175
16.87301077
16.89178339
16.91113241
16.93107078
16.95161195
16.97276905
16.99455477
17.01698304
17.04006651
17.06381942
17.08825567
17.11339055
17.13923917
17.16581777
17.1931427
17.22123074
17.25009937
17.27976664
17.31025132
17.34157303
17.3737525
17.40681176
17.44077279
17.47565686
17.51148368
17.54827122
17.58603723
17.62480022
17.66457976
17.70539649
17.74727202
17.79022888
17.83429044
17.87948069
17.92582393
17.97334558
18.02207135
18.07202784
18.12324313
18.17574559
18.22956429
18.28472862
18.34126973
18.39922269
18.4586229
18.51950497
18.5819007
18.64584816
18.71138803
18.77856459
18.84742325
18.91801025
18.99037193
19.06455538
19.14060392
19.21854906
19.29845276
19.38037335
19.46436821
19.55049466
19.63881103
19.72937691
19.82225381
19.91750686
20.0152021
20.11539967
20.21819726
20.32370752
20.43199563
20.54313096
20.65719762
20.77428651
20.89449733
21.01794833
21.14473283
21.27496205
21.40875608
21.54625373
21.68755983
21.83278363
21.98204207
22.13549729
22.29330661
22.45563163
22.62263115
22.79445606
22.97132256
23.15346065
23.34105544
23.53432044
23.73351747
23.93885654
24.15056971
24.3689057
24.59409717
24.82649514
25.06652506
25.3145058
25.57072568
25.83554519
26.10938562
26.39272911
26.68598181
26.98964268
27.30433903
27.63067141
27.9693019
28.32080308
28.68594646
29.06558425
29.46047501
29.8715852
30.29983963
30.74645744
31.21302085
31.70065677
32.21085387
32.74556234
33.30649359
33.89585451
34.51645871
35.17127738
35.86457785
36.59872438
37.37722863
38.20311222
39.0789319
40.00829597
40.99251054
42.03474526
43.13756839
44.30333688
45.5264899
46.79785373
48.13185099
49.5445519
51.04154823
52.62066688
54.31651086
56.2103472
58.36480349
60.94223428
63.97519169
67.51705091
71.62988118
76.21176432
81.12742939
86.05601774
89.87822548
92.591434
94.27836367
95.36968814
96.14664774
96.70656832
97.21353127
97.69140984
98.12735993
98.50087412
98.80899658
99.0444769
99.23399945
99.38540118
99.50810615
99.60808141
99.68876038
99.75333262
99.80458735
99.84468617
99.87634317
99.90159606
99.92162532
99.93758085
99.95032479
99.96046261
99.96855665
99.97501355
99.98015131
99.98424932
99.98750955
99.99010228
99.99216454
99.99380176
99.99510124
99.99613179
99.99694815
99.99759439
99.99810564
99.99850964
99.9988286
99.99908027
99.99927856
99.99943472
99.99955754
99.99965406
99.99972984
99.99978927
99.99983583
99.99987226
99.99990074
99.99992298
99.99994032
99.99995383
99.99996434
99.9999725
99.99997884
99.99998374
99.99998754
99.99999046
99.99999272
99.99999446
99.99999579
99.99999682
99.9999976
99.9999982
99.99999865
99.99999899
99.99999925
99.99999945
99.9999996
99.99999971
99.99999979
99.99999985
99.99999989
99.99999993
99.99999995
99.99999997
99.99999998
99.99999999
99.99999999
100
100
100
100
100
100
100
100
100
100
100
100
100
100
100
100
100
100
100
100
100
100
100
100
100
100
100
100
100
100
100
100
100
100
100
100
100
100
100
100
100
100
100
100
100
100
100
100
100
100
100
100
100
100
100
100
100
100
100
100
100
100
100
100
100
100
100
100
100
100
100
100
100
100
100
100
100
100
100
100
100
100
100
100
100
100
100
100
100
100
100
100
100
100
100
100
100
100
100
100
100
100
100
100
100
100
100
100
100
100
100
100
100
100
100
100
100
100
100
100
100
100
100
100
100
100
100
100
100
100
100
100
100
100
100
100
100
100
100
100
100
100
100
100
100
100
100
100
100
100
100
100
100
100
100
100
100
100
100
100
100
100
100
100
100
100
100
100
100
100
100
100
100
100
100
100
100
100
100
100
100
100
100
100
100
100
100
100
100
100
100
100
100
100
100
100
100
100
100
100
100
100
100
100
100
100
100
100
100
100
100
100
18.62813006
18.62825738
18.62858698
18.6292794
18.63047773
18.63228067
18.63474096
18.63784327
18.64154244
18.64575243
18.65038004
18.65542723
18.6608496
18.66659152
18.6725972
18.67882026
18.68521697
18.69174569
18.69836768
18.70504758
18.71175394
18.71845972
18.72514173
18.73177938
18.73835388
18.74484772
18.75124553
18.75753419
18.76370312
18.7697449
18.7756532
18.78141507
18.78703462
18.79251719
18.79785554
18.80304017
18.80806052
18.81290332
18.81755296
18.82200011
18.8262316
18.83018476
18.83391959
18.83747764
18.84087414
18.84411735
18.8472142
18.85017178
18.85299755
18.85569905
18.85828341
18.86075644
18.86312175
18.86538222
18.86753844
18.8695887
18.87153085
18.87336312
18.87508427
18.87669326
18.87818901
18.87957027
18.88083674
18.88199236
18.88304711
18.88401192
18.88489565
18.8857028
18.88642972
18.88705558
18.88759674
18.88807663
18.8885105
18.88890399
18.88925266
18.88955131
18.88982084
18.89006953
18.89030301
18.89052624
18.89074374
18.89095952
18.89117715
18.89140007
18.89163243
18.89188017
18.89215183
18.8924566
18.89280285
18.89319733
18.89364535
18.89415128
18.89471889
18.89535153
18.89605204
18.89682257
18.89766475
18.89858112
18.89957786
18.90066455
18.901851
18.90314586
18.90455639
18.90608852
18.90774704
18.90953655
18.91146296
18.91353225
18.91575017
18.918122
18.92065305
18.923351
18.92622495
18.92928355
18.9325349
18.93598683
18.93964707
18.94352338
18.94762361
18.95195576
18.9565283
18.96135099
18.96643794
18.97179127
18.97740993
18.98329487
18.98944495
18.99587281
19.0025885
19.00960252
19.01692589
19.02456854
19.03254048
19.04085191
19.04951299
19.05853383
19.06792441
19.07769467
19.08785446
19.09841371
19.10938243
19.12077073
19.13258872
19.14484663
19.15755487
19.17072411
19.18436519
19.19848913
19.21310723
19.22823111
19.24387235
19.26004225
19.27675223
19.29401399
19.31183933
19.33024019
19.34922864
19.36881712
19.3890187
19.40984733
19.4313171
19.45344273
19.47623885