/*--------------------------------*- C++ -*----------------------------------*\
| =========                 |                                                 |
| \\      /  F ield         | OpenFOAM: The Open Source CFD Toolbox           |
|  \\    /   O peration     | Version:  v2006                                 |
|   \\  /    A nd           | Website:  www.openfoam.com                      |
|    \\/     M anipulation  |                                                 |
\*---------------------------------------------------------------------------*/
FoamFile
{
    version     2.0;
    format      ascii;
    class       volVectorField;
    location    "0.09";
    object      U;
}
// * * * * * * * * * * * * * * * * * * * * * * * * * * * * * * * * * * * * * //

dimensions      [0 1 -1 0 0 0 0];


internalField   nonuniform List<vector> 
72000
(
(-0.0002422554064 0.0355992489 0)
(-0.0001461906705 0.03475682272 0)
(-0.0001331791896 0.03440920364 0)
(-9.97376833e-05 0.03409414641 0)
(-8.081512668e-05 0.03382840702 0)
(-6.792192724e-05 0.03360455565 0)
(-5.872394744e-05 0.03341184343 0)
(-5.201399106e-05 0.03324087017 0)
(-4.711476405e-05 0.03308649248 0)
(-4.347479206e-05 0.03294463464 0)
(-4.07559594e-05 0.03281222349 0)
(-3.872600986e-05 0.03268693793 0)
(-3.722432621e-05 0.03256701638 0)
(-3.613107689e-05 0.03245109556 0)
(-3.5355656e-05 0.03233809149 0)
(-3.48316372e-05 0.03222712785 0)
(-3.450955206e-05 0.03211749411 0)
(-3.43501474e-05 0.03200861417 0)
(-3.432070478e-05 0.03190001917 0)
(-3.43936802e-05 0.03179131789 0)
(-3.455321078e-05 0.03168217881 0)
(-3.479291031e-05 0.03157233725 0)
(-3.510267515e-05 0.03146158641 0)
(-3.546780252e-05 0.03134974998 0)
(-3.587643747e-05 0.03123667696 0)
(-3.63198129e-05 0.03112224499 0)
(-3.679010224e-05 0.03100635701 0)
(-3.727993554e-05 0.03088894009 0)
(-3.778237766e-05 0.03076994461 0)
(-3.829158571e-05 0.03064934273 0)
(-3.880357447e-05 0.03052712404 0)
(-3.931531735e-05 0.03040328853 0)
(-3.982355154e-05 0.03027784073 0)
(-4.032684321e-05 0.03015078745 0)
(-4.082618966e-05 0.03002213567 0)
(-4.132355669e-05 0.02989188982 0)
(-4.182158959e-05 0.02976004854 0)
(-4.232261557e-05 0.02962660372 0)
(-4.282788365e-05 0.02949154239 0)
(-4.333435573e-05 0.029354855 0)
(-4.383699829e-05 0.02921654515 0)
(-4.433202089e-05 0.02907663142 0)
(-4.48166001e-05 0.02893514609 0)
(-4.528938744e-05 0.02879212981 0)
(-4.574939179e-05 0.02864762596 0)
(-4.619604796e-05 0.02850168029 0)
(-4.662918604e-05 0.02835434029 0)
(-4.705050334e-05 0.02820565285 0)
(-4.746600799e-05 0.0280556692 0)
(-4.788548105e-05 0.02790442482 0)
(-4.829783919e-05 0.02775194303 0)
(-4.86778908e-05 0.02759829934 0)
(-4.902745812e-05 0.02744355172 0)
(-4.935912045e-05 0.0272877437 0)
(-4.967544627e-05 0.02713089558 0)
(-4.999419638e-05 0.0269730325 0)
(-5.030997874e-05 0.02681420126 0)
(-5.060682018e-05 0.02665442089 0)
(-5.089300939e-05 0.02649371166 0)
(-5.116961791e-05 0.02633210504 0)
(-5.143535985e-05 0.02616963319 0)
(-5.168859563e-05 0.02600633248 0)
(-5.192706016e-05 0.0258422447 0)
(-5.214689449e-05 0.02567741838 0)
(-5.234612144e-05 0.02551189837 0)
(-5.25291204e-05 0.02534572926 0)
(-5.270115433e-05 0.02517896977 0)
(-5.286324731e-05 0.02501167675 0)
(-5.30151208e-05 0.02484389382 0)
(-5.315713971e-05 0.02467565863 0)
(-5.328892156e-05 0.02450700405 0)
(-5.340978477e-05 0.02433796326 0)
(-5.351898285e-05 0.02416857267 0)
(-5.361566782e-05 0.02399887168 0)
(-5.369926495e-05 0.02382890185 0)
(-5.376929257e-05 0.02365870651 0)
(-5.382556449e-05 0.0234883303 0)
(-5.386836846e-05 0.0233178174 0)
(-5.3898232e-05 0.02314721044 0)
(-5.391598232e-05 0.02297655015 0)
(-5.392257583e-05 0.02280587464 0)
(-5.391895998e-05 0.02263521923 0)
(-5.390588066e-05 0.02246461671 0)
(-5.388367943e-05 0.02229409824 0)
(-5.385223255e-05 0.02212369469 0)
(-5.381089116e-05 0.02195343818 0)
(-5.375877149e-05 0.0217833632 0)
(-5.369504022e-05 0.02161350683 0)
(-5.361903268e-05 0.02144390817 0)
(-5.353048064e-05 0.02127460755 0)
(-5.342931098e-05 0.02110564534 0)
(-5.33157074e-05 0.02093706185 0)
(-5.319022585e-05 0.02076889614 0)
(-5.305348975e-05 0.02060118535 0)
(-5.2906142e-05 0.02043396478 0)
(-5.274870188e-05 0.02026726799 0)
(-5.258146651e-05 0.02010112763 0)
(-5.240431095e-05 0.01993557617 0)
(-5.22169389e-05 0.01977064675 0)
(-5.201917575e-05 0.01960637371 0)
(-5.181100935e-05 0.01944279165 0)
(-5.159279304e-05 0.01927993484 0)
(-5.136505779e-05 0.01911783654 0)
(-5.112823612e-05 0.01895652894 0)
(-5.088264837e-05 0.01879604271 0)
(-5.062776768e-05 0.01863640747 0)
(-5.036313941e-05 0.01847765331 0)
(-5.008877147e-05 0.01831981074 0)
(-4.980443843e-05 0.01816291097 0)
(-4.951002351e-05 0.01800698649 0)
(-4.920525415e-05 0.01785207073 0)
(-4.888986248e-05 0.01769819818 0)
(-4.856372222e-05 0.0175454041 0)
(-4.822687419e-05 0.017393724 0)
(-4.787947875e-05 0.01724319313 0)
(-4.752179383e-05 0.01709384616 0)
(-4.715411831e-05 0.01694571705 0)
(-4.677674451e-05 0.01679883891 0)
(-4.638997191e-05 0.01665324413 0)
(-4.599404811e-05 0.01650896442 0)
(-4.558913416e-05 0.01636603096 0)
(-4.517570191e-05 0.01622447483 0)
(-4.475540928e-05 0.01608432508 0)
(-4.432751438e-05 0.01594560651 0)
(-4.388868681e-05 0.01580834864 0)
(-4.343859714e-05 0.01567258138 0)
(-4.298028054e-05 0.01553833255 0)
(-4.251471555e-05 0.01540563438 0)
(-4.204026375e-05 0.01527451932 0)
(-4.155615237e-05 0.01514501957 0)
(-4.106210143e-05 0.01501716853 0)
(-4.055799619e-05 0.01489100003 0)
(-4.004375777e-05 0.01476654808 0)
(-3.951931602e-05 0.01464384688 0)
(-3.898459735e-05 0.01452293075 0)
(-3.843950384e-05 0.01440383404 0)
(-3.788380022e-05 0.01428659116 0)
(-3.731677589e-05 0.01417123693 0)
(-3.673825379e-05 0.01405780277 0)
(-3.614937606e-05 0.01394631995 0)
(-3.555101718e-05 0.01383682757 0)
(-3.494274427e-05 0.01372936477 0)
(-3.432407282e-05 0.01362396713 0)
(-3.369668005e-05 0.01352067198 0)
(-3.306011287e-05 0.01341951901 0)
(-3.241007878e-05 0.0133205421 0)
(-3.174630354e-05 0.01322377294 0)
(-3.107151109e-05 0.01312925143 0)
(-3.038634344e-05 0.01303701688 0)
(-2.969067825e-05 0.01294710474 0)
(-2.898392432e-05 0.01285955143 0)
(-2.826566791e-05 0.01277439581 0)
(-2.753594335e-05 0.01269167708 0)
(-2.679463459e-05 0.01261143403 0)
(-2.604157702e-05 0.01253370609 0)
(-2.527643758e-05 0.01245853345 0)
(-2.449866103e-05 0.01238595766 0)
(-2.370761717e-05 0.01231602198 0)
(-2.290237921e-05 0.01224877195 0)
(-2.208238865e-05 0.01218425512 0)
(-2.124708591e-05 0.01212252092 0)
(-2.039767954e-05 0.01206361789 0)
(-1.953542617e-05 0.01200759181 0)
(-1.866348957e-05 0.01195448205 0)
(-1.778221136e-05 0.01190432102 0)
(-1.688667134e-05 0.01185715054 0)
(-1.597758964e-05 0.01181301621 0)
(-1.504533745e-05 0.01177197793 0)
(-1.409635964e-05 0.01173409828 0)
(-1.311997018e-05 0.01169944493 0)
(-1.212870185e-05 0.01166807746 0)
(-1.110367237e-05 0.01164008328 0)
(-1.007457788e-05 0.01161553325 0)
(-9.053399288e-06 0.01159442637 0)
(-7.971287398e-06 0.01157683984 0)
(-6.880991769e-06 0.01156285462 0)
(-5.757383487e-06 0.01155255328 0)
(-4.622725348e-06 0.011546008 0)
(-3.475176961e-06 0.01154327274 0)
(-2.322959741e-06 0.01154440076 0)
(-1.150995617e-06 0.01154951019 0)
(8.561280624e-08 0.01155870925 0)
(1.389674022e-06 0.01157205988 0)
(2.712371585e-06 0.01158964716 0)
(4.044548188e-06 0.01161158278 0)
(5.402196798e-06 0.01163796261 0)
(6.790757668e-06 0.01166888096 0)
(8.21225839e-06 0.01170444043 0)
(9.668188914e-06 0.01174474883 0)
(1.115990224e-05 0.0117899184 0)
(1.268847728e-05 0.01184006521 0)
(1.425534687e-05 0.01189530926 0)
(1.586183248e-05 0.01195577278 0)
(1.750982128e-05 0.01202158249 0)
(1.920179655e-05 0.01209287625 0)
(2.094070831e-05 0.01216979995 0)
(2.273140669e-05 0.0122525054 0)
(2.457597782e-05 0.01234114021 0)
(2.647455379e-05 0.01243585098 0)
(2.842741057e-05 0.01253681389 0)
(3.043568895e-05 0.01264422042 0)
(3.250214751e-05 0.01275825807 0)
(3.462351744e-05 0.01287912722 0)
(3.6810216e-05 0.0130070434 0)
(3.907445803e-05 0.01314221212 0)
(4.141364499e-05 0.01328485052 0)
(4.382977917e-05 0.01343519296 0)
(4.63288433e-05 0.01359348403 0)
(4.891951475e-05 0.01375997318 0)
(5.159908721e-05 0.01393491938 0)
(5.436302044e-05 0.01411860831 0)
(5.721542303e-05 0.01431133361 0)
(6.016196107e-05 0.01451339089 0)
(6.321238861e-05 0.01472509278 0)
(6.637529176e-05 0.01494678507 0)
(6.964689357e-05 0.01517883626 0)
(7.299793217e-05 0.01542161655 0)
(7.646865787e-05 0.01567548532 0)
(8.012014068e-05 0.01594087539 0)
(8.393826959e-05 0.01621820946 0)
(8.79121098e-05 0.01650794029 0)
(9.204295885e-05 0.01681057582 0)
(9.633546843e-05 0.01712662942 0)
(0.0001007960164 0.01745661621 0)
(0.0001054400281 0.01780108089 0)
(0.0001102828595 0.01816060224 0)
(0.0001153379916 0.01853579575 0)
(0.0001206256139 0.01892733854 0)
(0.0001261613886 0.01933593512 0)
(0.0001319481352 0.01976231248 0)
(0.000137991946 0.02020727431 0)
(0.000144309535 0.02067166124 0)
(0.0001509088981 0.02115629203 0)
(0.0001578169642 0.0216620046 0)
(0.0001650507105 0.02218980256 0)
(0.0001725536306 0.02274073851 0)
(0.0001804244302 0.02331585185 0)
(0.0001889281871 0.02391634318 0)
(0.0001979556296 0.0245433046 0)
(0.0002073091985 0.02519814759 0)
(0.0002170875519 0.0258823958 0)
(0.0002273885896 0.02659752171 0)
(0.0002382384837 0.02734502362 0)
(0.0002496787555 0.02812644029 0)
(0.000261786018 0.02894352444 0)
(0.0002745699137 0.02979823924 0)
(0.0002880309977 0.03069271796 0)
(0.000302158412 0.03162916336 0)
(0.0003170148741 0.03260977237 0)
(0.0003328382735 0.0336370174 0)
(0.000349718884 0.03471356427 0)
(0.0003676677622 0.03584218608 0)
(0.0003867486555 0.03702612474 0)
(0.0004070450687 0.03826886997 0)
(0.0004286715179 0.03957400387 0)
(0.0004516517002 0.04094536722 0)
(0.0004758969296 0.04238702858 0)
(0.0005018142006 0.04390306083 0)
(0.00052988325 0.04549807079 0)
(0.0005598855148 0.04717762288 0)
(0.0005918480804 0.04894797313 0)
(0.0006261177142 0.05081554061 0)
(0.0006628230162 0.05278704057 0)
(0.0007018774281 0.05486991821 0)
(0.0007437527407 0.05707223108 0)
(0.0007892962153 0.0594033566 0)
(0.0008387448814 0.06187336279 0)
(0.0008922924794 0.06449332231 0)
(0.0009500970882 0.06727624864 0)
(0.001013105255 0.07023491004 0)
(0.001081955072 0.07338266654 0)
(0.001157125787 0.07673790125 0)
(0.00123959096 0.0803205796 0)
(0.001329296337 0.08415137476 0)
(0.001427742564 0.0882527451 0)
(0.001537538466 0.09265220892 0)
(0.001659796431 0.09738068333 0)
(0.001795565795 0.1024711627 0)
(0.001946038043 0.1079613013 0)
(0.002114045891 0.1138988156 0)
(0.002301393041 0.1203347486 0)
(0.002512076537 0.1273250014 0)
(0.002752416785 0.1349388715 0)
(0.003024675049 0.1432527106 0)
(0.003334048332 0.152360517 0)
(0.003689066414 0.1623693772 0)
(0.004102644038 0.1734017443 0)
(0.004581595263 0.185606024 0)
(0.005136440015 0.1991587074 0)
(0.005789773375 0.2142722919 0)
(0.006570254501 0.2311874192 0)
(0.007500309531 0.2501913294 0)
(0.008606597568 0.2716394363 0)
(0.009943861608 0.2959375835 0)
(0.01155886757 0.3235367898 0)
(0.01348974458 0.3549653278 0)
(0.01577873538 0.3908061854 0)
(0.01846065052 0.4315587598 0)
(0.0213873104 0.477404568 0)
(0.02407495446 0.5278980956 0)
(0.02517514025 0.5816856763 0)
(0.02183905908 0.6352796351 0)
(0.01050840889 0.6775126542 0)
(-0.01966121953 0.706402076 0)
(-0.04394053244 0.7907325576 0)
(0.05008027891 0.7888717309 0)
(0.06028251699 0.5797875249 0)
(-0.0081406152 0.5174180681 0)
(-0.005269876143 0.4955722936 0)
(-0.01052496751 0.4505583476 0)
(-0.009664944322 0.4210787837 0)
(-0.008011845128 0.3893488429 0)
(-0.007039765696 0.3629053125 0)
(-0.005741706186 0.3401781648 0)
(-0.004304269767 0.3221730966 0)
(-0.002912700228 0.3063793756 0)
(-0.002238725606 0.2925241283 0)
(-0.002159690528 0.2805978304 0)
(-0.002023743291 0.2705469386 0)
(-0.00181251296 0.2617984856 0)
(-0.001630169254 0.2541256179 0)
(-0.001482149347 0.2473285732 0)
(-0.0013455579 0.2412571059 0)
(-0.001217661456 0.2357798069 0)
(-0.001110226783 0.230809377 0)
(-0.001017777116 0.2262744357 0)
(-0.0009361893641 0.2221174102 0)
(-0.0008645924355 0.2182890794 0)
(-0.0008015639597 0.2147493511 0)
(-0.0007453706518 0.2114654324 0)
(-0.0006950503892 0.2084089883 0)
(-0.0006499112816 0.2055548083 0)
(-0.0006094186177 0.2028816196 0)
(-0.0005730250689 0.2003708652 0)
(-0.0005400722789 0.1980060542 0)
(-0.000510119002 0.195772895 0)
(-0.0004829688573 0.1936589083 0)
(-0.0004582789405 0.1916531017 0)
(-0.000435671988 0.1897459899 0)
(-0.0004149087926 0.187929212 0)
(-0.0003958049492 0.186195315 0)
(-0.0003782029055 0.184537693 0)
(-0.0003619534709 0.1829504168 0)
(-0.000346922001 0.1814281175 0)
(-0.000333000406 0.1799659199 0)
(-0.0003200972401 0.1785593936 0)
(-0.0003081241751 0.1772045094 0)
(-0.0002969950529 0.1758976026 0)
(-0.0002866343299 0.1746353353 0)
(-0.000276978456 0.1734146583 0)
(-0.0002679700253 0.1722327798 0)
(-0.0002595566911 0.1710871389 0)
(-0.0002516905373 0.1699753787 0)
(-0.0002443287859 0.1688953271 0)
(-0.0002374326856 0.1678449803 0)
(-0.0002309664677 0.1668224892 0)
(-0.0002248970209 0.165826146 0)
(-0.0002191942482 0.1648543711 0)
(-0.0002138312438 0.163905701 0)
(-0.0002087837868 0.1629787772 0)
(-0.0002040299275 0.1620723355 0)
(-0.0001995497012 0.1611851979 0)
(-0.0001953249683 0.1603162641 0)
(-0.0001913391866 0.1594645053 0)
(-0.000187577187 0.1586289579 0)
(-0.0001840250536 0.1578087181 0)
(-0.0001806699962 0.1570029373 0)
(-0.0001775002888 0.1562108168 0)
(-0.000174505181 0.1554316044 0)
(-0.0001716747873 0.15466459 0)
(-0.0001689999702 0.1539091028 0)
(-0.0001664722484 0.1531645082 0)
(-0.0001640837531 0.1524302053 0)
(-0.0001618271527 0.1517056244 0)
(-0.0001596956598 0.150990225 0)
(-0.0001576829667 0.1502834932 0)
(-0.0001557832375 0.1495849404 0)
(-0.0001539910927 0.1488941011 0)
(-0.0001523015288 0.1482105312 0)
(-0.000150709924 0.1475338066 0)
(-0.0001492119583 0.1468635217 0)
(-0.0001478035859 0.1461992888 0)
(-0.0001464810226 0.1455407363 0)
(-0.0001452406848 0.1448875083 0)
(-0.0001440792194 0.1442392635 0)
(-0.0001429934613 0.1435956745 0)
(-0.0001419804341 0.1429564266 0)
(-0.0001410373755 0.1423212175 0)
(-0.0001401616848 0.1416897561 0)
(-0.0001393509556 0.1410617617 0)
(-0.0001386029214 0.1404369637 0)
(-0.0001379154678 0.1398151004 0)
(-0.0001372865946 0.1391959192 0)
(-0.0001367143769 0.1385791754 0)
(-0.0001361969702 0.1379646328 0)
(-0.0001357325462 0.1373520628 0)
(-0.0001353193205 0.1367412446 0)
(-0.0001349554968 0.1361319652 0)
(-0.0001346392708 0.1355240194 0)
(-0.0001343688493 0.1349172098 0)
(-0.0001341424038 0.1343113469 0)
(-0.0001339581343 0.1337062487 0)
(-0.0001338142259 0.1331017413 0)
(-0.0001337088923 0.1324976582 0)
(-0.0001336403949 0.1318938406 0)
(-0.0001336070165 0.1312901369 0)
(-0.0001336071207 0.1306864026 0)
(-0.0001336391297 0.1300825 0)
(-0.0001337015492 0.1294782977 0)
(-0.00013379297 0.1288736708 0)
(-0.0001339120589 0.1282684998 0)
(-0.0001340575854 0.1276626708 0)
(-0.0001342283931 0.1270560749 0)
(-0.0001344234093 0.1264486082 0)
(-0.0001346416387 0.1258401708 0)
(-0.0001348821391 0.1252306673 0)
(-0.0001351440462 0.1246200057 0)
(-0.0001354265322 0.1240080981 0)
(-0.000135728817 0.1233948595 0)
(-0.0001360501422 0.1227802083 0)
(-0.0001363897914 0.1221640662 0)
(-0.0001367470528 0.1215463577 0)
(-0.0001371212279 0.1209270101 0)
(-0.0001375116355 0.120305954 0)
(-0.0001379175737 0.1196831226 0)
(-0.0001383383628 0.1190584522 0)
(-0.0001387733014 0.1184318822 0)
(-0.0001392216875 0.117803355 0)
(-0.000139682816 0.1171728159 0)
(-0.0001401559582 0.1165402137 0)
(-0.0001406403921 0.1159055002 0)
(-0.0001411353817 0.1152686306 0)
(-0.0001416401757 0.1146295633 0)
(-0.0001421540286 0.1139882599 0)
(-0.000142676173 0.1133446856 0)
(-0.0001432058558 0.1126988087 0)
(-0.0001437422992 0.112050601 0)
(-0.000144284736 0.1114000375 0)
(-0.0001448324028 0.1107470966 0)
(-0.0001453845196 0.11009176 0)
(-0.000145940328 0.1094340127 0)
(-0.0001464990553 0.1087738429 0)
(-0.0001470599457 0.1081112421 0)
(-0.0001476222388 0.1074462051 0)
(-0.0001481851922 0.1067787298 0)
(-0.0001487480603 0.1061088172 0)
(-0.0001493101067 0.1054364716 0)
(-0.0001498706148 0.1047617002 0)
(-0.000150428874 0.1040845134 0)
(-0.000150984172 0.1034049246 0)
(-0.0001515358224 0.1027229502 0)
(-0.0001520831432 0.1020386093 0)
(-0.0001526254635 0.1013519243 0)
(-0.000153162127 0.1006629201 0)
(-0.0001536924862 0.09997162458 0)
(-0.0001542159104 0.09927806848 0)
(-0.0001547317701 0.09858228516 0)
(-0.0001552394534 0.0978843107 0)
(-0.0001557383567 0.0971841839 0)
(-0.0001562278889 0.09648194613 0)
(-0.0001567074637 0.09577764138 0)
(-0.0001571765074 0.09507131613 0)
(-0.0001576344553 0.09436301938 0)
(-0.0001580807474 0.09365280254 0)
(-0.0001585148363 0.09294071939 0)
(-0.0001589361794 0.09222682607 0)
(-0.0001593442426 0.09151118095 0)
(-0.0001597385029 0.09079384472 0)
(-0.0001601184357 0.09007488017 0)
(-0.0001604835373 0.08935435233 0)
(-0.0001608332988 0.0886323283 0)
(-0.0001611672226 0.08790887735 0)
(-0.0001614848175 0.08718407079 0)
(-0.0001617856028 0.08645798204 0)
(-0.0001620691081 0.08573068656 0)
(-0.0001623348544 0.0850022619 0)
(-0.0001625823848 0.08427278759 0)
(-0.0001628112444 0.08354234524 0)
(-0.0001630209856 0.08281101844 0)
(-0.0001632111674 0.08207889272 0)
(-0.000163381356 0.08134605559 0)
(-0.0001635311269 0.08061259642 0)
(-0.0001636600664 0.07987860647 0)
(-0.0001637677587 0.07914417874 0)
(-0.0001638538116 0.07840940802 0)
(-0.000163917826 0.07767439075 0)
(-0.0001639594226 0.07693922505 0)
(-0.0001639782251 0.07620401059 0)
(-0.0001639738711 0.07546884859 0)
(-0.0001639460047 0.07473384179 0)
(-0.0001638942829 0.07399909435 0)
(-0.0001638183689 0.07326471191 0)
(-0.0001637179374 0.07253080145 0)
(-0.0001635926848 0.07179747135 0)
(-0.000163442296 0.07106483133 0)
(-0.0001632664783 0.07033299237 0)
(-0.000163064958 0.06960206676 0)
(-0.0001628374563 0.068872168 0)
(-0.0001625837165 0.06814341076 0)
(-0.0001623034921 0.06741591087 0)
(-0.0001619965394 0.06668978525 0)
(-0.0001616626378 0.06596515183 0)
(-0.0001613015756 0.06524212959 0)
(-0.0001609131505 0.06452083836 0)
(-0.0001604971743 0.06380139888 0)
(-0.0001600534727 0.0630839327 0)
(-0.0001595818845 0.06236856213 0)
(-0.0001590822634 0.06165541014 0)
(-0.0001585544726 0.06094460039 0)
(-0.0001579983917 0.06023625704 0)
(-0.0001574139175 0.05953050481 0)
(-0.000156800957 0.05882746885 0)
(-0.0001561594314 0.05812727469 0)
(-0.0001554892819 0.05743004814 0)
(-0.00015479046 0.05673591532 0)
(-0.00015406293 0.05604500247 0)
(-0.0001533066817 0.05535743596 0)
(-0.0001525217075 0.05467334222 0)
(-0.0001517080212 0.05399284761 0)
(-0.0001508656582 0.05331607845 0)
(-0.0001499946613 0.05264316089 0)
(-0.0001490950874 0.05197422087 0)
(-0.0001481670183 0.05130938404 0)
(-0.0001472105492 0.05064877576 0)
(-0.0001462257869 0.04999252097 0)
(-0.0001452128562 0.04934074416 0)
(-0.0001441718983 0.04869356935 0)
(-0.0001431030721 0.04805111994 0)
(-0.0001420065516 0.04741351877 0)
(-0.0001408825253 0.04678088791 0)
(-0.0001397311984 0.04615334872 0)
(-0.0001385527871 0.04553102175 0)
(-0.0001373475309 0.04491402658 0)
(-0.0001361156723 0.0443024819 0)
(-0.0001348574832 0.04369650533 0)
(-0.0001335732364 0.04309621339 0)
(-0.0001322632191 0.04250172144 0)
(-0.0001309277422 0.0419131436 0)
(-0.0001295671202 0.04133059271 0)
(-0.0001281816764 0.04075418027 0)
(-0.0001267717558 0.04018401637 0)
(-0.0001253377058 0.03962020971 0)
(-0.0001238798856 0.03906286746 0)
(-0.000122398658 0.03851209533 0)
(-0.0001208944069 0.03796799746 0)
(-0.0001193675093 0.03743067648 0)
(-0.0001178183464 0.03690023336 0)
(-0.0001162473212 0.03637676755 0)
(-0.0001146548182 0.03586037685 0)
(-0.0001130412327 0.03535115745 0)
(-0.0001114069636 0.03484920392 0)
(-0.0001097524035 0.03435460922 0)
(-0.0001080779425 0.03386746468 0)
(-0.0001063839608 0.03338786006 0)
(-0.0001046708408 0.0329158835 0)
(-0.0001029389548 0.03245162163 0)
(-0.0001011886513 0.03199515956 0)
(-9.942028477e-05 0.03154658092 0)
(-9.763417606e-05 0.03110596797 0)
(-9.58306322e-05 0.03067340165 0)
(-9.400994783e-05 0.03024896161 0)
(-9.217237799e-05 0.0298327264 0)
(-9.03181584e-05 0.02942477358 0)
(-8.844748342e-05 0.02902517978 0)
(-8.656051964e-05 0.02863402092 0)
(-8.465738551e-05 0.02825137241 0)
(-8.273814774e-05 0.02787730926 0)
(-8.080283093e-05 0.02751190642 0)
(-7.885138447e-05 0.02715523893 0)
(-7.688370054e-05 0.0268073823 0)
(-7.489959434e-05 0.02646841273 0)
(-7.289879102e-05 0.02613840757 0)
(-7.08809184e-05 0.02581744561 0)
(-6.884550342e-05 0.02550560765 0)
(-6.679194415e-05 0.02520297692 0)
(-6.471949857e-05 0.02490963964 0)
(-6.262727195e-05 0.02462568575 0)
(-6.051418363e-05 0.02435120951 0)
(-5.837893803e-05 0.02408631047 0)
(-5.622000761e-05 0.02383109433 0)
(-5.403557609e-05 0.02358567408 0)
(-5.182348844e-05 0.02335017132 0)
(-4.958119054e-05 0.02312471776 0)
(-4.730565541e-05 0.02290945704 0)
(-4.499324534e-05 0.02270454695 0)
(-4.263960769e-05 0.0225101621 0)
(-4.023943931e-05 0.02232649726 0)
(-3.778625818e-05 0.02215377154 0)
(-3.527201053e-05 0.02199223364 0)
(-3.268669526e-05 0.02184216815 0)
(-3.00182387e-05 0.02170390572 0)
(-2.725057258e-05 0.02157783507 0)
(-2.436295826e-05 0.02146438837 0)
(-2.136232824e-05 0.0213640604 0)
(-1.824058074e-05 0.02127772122 0)
(-1.48555175e-05 0.02120564065 0)
(-1.186288876e-05 0.02114593932 0)
(-1.35672674e-05 0.02110355458 0)
(2.400679848e-06 0.02111693478 0)
(3.503693201e-06 0.02092844149 0)
(-0.001091118737 0.09308030275 0)
(-0.0009346329705 0.09184808596 0)
(-0.000763066282 0.09117869341 0)
(-0.0006348173918 0.09055531877 0)
(-0.0005401794555 0.08999535242 0)
(-0.0004685479526 0.08949631831 0)
(-0.0004147811134 0.08905109111 0)
(-0.0003742210719 0.08864625471 0)
(-0.0003434722615 0.08827367748 0)
(-0.0003201298372 0.08792641356 0)
(-0.0003024323721 0.08759880695 0)
(-0.0002890703739 0.08728634953 0)
(-0.0002790861615 0.08698545853 0)
(-0.0002717656398 0.08669324955 0)
(-0.0002665740192 0.08640738055 0)
(-0.0002631000741 0.08612592325 0)
(-0.0002610199128 0.08584729053 0)
(-0.0002600777688 0.08557017362 0)
(-0.0002600807184 0.08529349499 0)
(-0.0002609052962 0.08501635634 0)
(-0.000262405333 0.08473798933 0)
(-0.0002643827304 0.08445777842 0)
(-0.0002667337717 0.08417524251 0)
(-0.0002694253037 0.08388996766 0)
(-0.0002724056708 0.08360160828 0)
(-0.0002756209929 0.08330988264 0)
(-0.000279020141 0.08301456497 0)
(-0.0002825538363 0.08271548482 0)
(-0.000286174263 0.0824125268 0)
(-0.0002898382143 0.08210562802 0)
(-0.0002935118623 0.08179476657 0)
(-0.0002971742883 0.08147994297 0)
(-0.0003008124454 0.08116117117 0)
(-0.0003044182457 0.08083847606 0)
(-0.0003079917111 0.08051188381 0)
(-0.0003115426948 0.08018141396 0)
(-0.0003150888328 0.07984707285 0)
(-0.000318646576 0.07950884975 0)
(-0.0003222232494 0.07916671783 0)
(-0.0003258025111 0.07882065767 0)
(-0.0003293570196 0.07847068756 0)
(-0.0003328578433 0.07811686206 0)
(-0.0003362800588 0.07775926531 0)
(-0.0003396154584 0.07739799797 0)
(-0.0003428600062 0.07703316461 0)
(-0.0003460084199 0.07666487519 0)
(-0.0003490553457 0.07629324636 0)
(-0.0003519985447 0.07591840472 0)
(-0.0003548407565 0.07554049809 0)
(-0.0003575736485 0.07515964192 0)
(-0.0003601896858 0.07477589238 0)
(-0.0003627107762 0.07438935925 0)
(-0.0003651528724 0.07400019668 0)
(-0.0003675157462 0.07360849584 0)
(-0.0003698048787 0.07321430847 0)
(-0.0003720308193 0.0728177006 0)
(-0.0003741945651 0.0724187414 0)
(-0.0003762909178 0.07201750739 0)
(-0.0003783199736 0.07161406772 0)
(-0.0003802777208 0.0712084974 0)
(-0.0003821571555 0.070800878 0)
(-0.0003839490626 0.07039129991 0)
(-0.0003856433566 0.06997986338 0)
(-0.0003872394489 0.06956668528 0)
(-0.0003887647477 0.06915188255 0)
(-0.0003901797128 0.0687355577 0)
(-0.0003914410243 0.06831785904 0)
(-0.0003925852855 0.0678989192 0)
(-0.0003936378648 0.06747884534 0)
(-0.0003946125954 0.06705773146 0)
(-0.000395513534 0.06663565988 0)
(-0.0003963343141 0.06621271574 0)
(-0.0003970680175 0.06578899247 0)
(-0.0003977099217 0.06536459025 0)
(-0.0003982563057 0.06493961412 0)
(-0.000398702089 0.06451417307 0)
(-0.0003990450233 0.06408837886 0)
(-0.0003992878706 0.06366234159 0)
(-0.0003994351195 0.06323616757 0)
(-0.0003994927575 0.06280995861 0)
(-0.0003994676998 0.06238381012 0)
(-0.0003993666923 0.06195781057 0)
(-0.0003991949175 0.06153204232 0)
(-0.000398954779 0.06110658385 0)
(-0.0003986451318 0.06068151319 0)
(-0.0003982612841 0.06025691189 0)
(-0.0003977969148 0.05983286783 0)
(-0.0003972462317 0.05940947533 0)
(-0.0003966049732 0.05898683379 0)
(-0.0003958708281 0.05856504508 0)
(-0.0003950433448 0.0581442113 0)
(-0.0003941241226 0.05772443434 0)
(-0.0003931164806 0.05730581315 0)
(-0.0003920247481 0.05688844197 0)
(-0.0003908533149 0.05647241064 0)
(-0.0003896056474 0.0560578049 0)
(-0.0003882834735 0.055644708 0)
(-0.0003868863817 0.05523320285 0)
(-0.0003854126318 0.05482337466 0)
(-0.0003838608983 0.05441531145 0)
(-0.0003822313727 0.05400910208 0)
(-0.0003805257939 0.05360483416 0)
(-0.0003787467485 0.05320259268 0)
(-0.000376897451 0.05280245993 0)
(-0.0003749811058 0.05240451299 0)
(-0.0003729951184 0.05200882802 0)
(-0.0003709357826 0.0516154865 0)
(-0.0003688028507 0.0512245705 0)
(-0.0003665945424 0.05083616227 0)
(-0.0003643089337 0.05045034724 0)
(-0.0003619440197 0.05006721282 0)
(-0.00035949802 0.04968684906 0)
(-0.0003569701631 0.04930934781 0)
(-0.0003543608055 0.04893480116 0)
(-0.0003516711703 0.04856330045 0)
(-0.0003489030046 0.04819493548 0)
(-0.0003460582725 0.04782979423 0)
(-0.0003431389299 0.04746796281 0)
(-0.0003401467024 0.04710952562 0)
(-0.0003370829203 0.0467545656 0)
(-0.0003339483879 0.04640316529 0)
(-0.0003307433251 0.04605540986 0)
(-0.0003274659383 0.04571137633 0)
(-0.0003241188492 0.04537113174 0)
(-0.0003207074621 0.04503475544 0)
(-0.0003172308973 0.04470233296 0)
(-0.0003136870577 0.04437394112 0)
(-0.0003100740396 0.0440496585 0)
(-0.0003063879515 0.04372956973 0)
(-0.0003026252663 0.0434137619 0)
(-0.0002987840477 0.04310232496 0)
(-0.0002948634062 0.04279534977 0)
(-0.000290862856 0.04249292758 0)
(-0.0002867820691 0.04219515022 0)
(-0.0002826209705 0.04190210991 0)
(-0.0002783795608 0.04161389876 0)
(-0.0002740578364 0.0413306087 0)
(-0.0002696590477 0.04105233333 0)
(-0.000265194832 0.04077916041 0)
(-0.0002606473109 0.04051117186 0)
(-0.0002559987939 0.04024847541 0)
(-0.00025126074 0.03999117395 0)
(-0.0002464362436 0.03973936492 0)
(-0.0002415263549 0.03949314854 0)
(-0.0002365355387 0.03925262367 0)
(-0.0002314658174 0.03901788217 0)
(-0.0002263038945 0.03878901966 0)
(-0.0002210448392 0.03856614798 0)
(-0.0002156991421 0.03834937178 0)
(-0.0002102704861 0.03813878637 0)
(-0.000204753697 0.03793449078 0)
(-0.0001991449709 0.03773659351 0)
(-0.0001934459407 0.0375452026 0)
(-0.0001876563767 0.03736042384 0)
(-0.0001817746313 0.03718236473 0)
(-0.0001757983465 0.0370111347 0)
(-0.0001697239739 0.03684684627 0)
(-0.0001635474788 0.03668961556 0)
(-0.0001572635056 0.03653956376 0)
(-0.0001508682258 0.03639681629 0)
(-0.0001443584784 0.03626150425 0)
(-0.0001377398065 0.03613375766 0)
(-0.0001310186059 0.03601370405 0)
(-0.0001242147375 0.03590145907 0)
(-0.0001173278066 0.03579711788 0)
(-0.0001103302571 0.03570080413 0)
(-0.0001032219261 0.03561264027 0)
(-9.595645928e-05 0.03553278863 0)
(-8.856252483e-05 0.0354614106 0)
(-8.099660763e-05 0.03539868432 0)
(-7.331512704e-05 0.03534476522 0)
(-6.537562419e-05 0.03529985293 0)
(-5.739442414e-05 0.03526415715 0)
(-4.934949911e-05 0.03523768905 0)
(-4.106144961e-05 0.0352206675 0)
(-3.267703267e-05 0.03521335375 0)
(-2.402175323e-05 0.03521588877 0)
(-1.52940464e-05 0.03522847356 0)
(-6.358772308e-06 0.03525131428 0)
(2.810777507e-06 0.03528455473 0)
(1.215106329e-05 0.03532839017 0)
(2.168094098e-05 0.0353831154 0)
(3.141823461e-05 0.03544901023 0)
(4.135855037e-05 0.03552631317 0)
(5.150482546e-05 0.03561523191 0)
(6.186836918e-05 0.03571600458 0)
(7.24613215e-05 0.03582889339 0)
(8.329488157e-05 0.03595417239 0)
(9.437921998e-05 0.03609212562 0)
(0.0001057230373 0.03624304689 0)
(0.0001173340335 0.03640723878 0)
(0.0001292175346 0.03658501374 0)
(0.0001413752777 0.03677668627 0)
(0.0001538280418 0.03698257904 0)
(0.0001666041134 0.03720304867 0)
(0.0001797141849 0.03743847095 0)
(0.0001931576146 0.0376892368 0)
(0.0002069073033 0.03795573212 0)
(0.0002210062257 0.03823832432 0)
(0.0002355319117 0.03853747063 0)
(0.0002504852245 0.03885365778 0)
(0.0002658635413 0.03918736244 0)
(0.0002816816588 0.0395390847 0)
(0.0002979594185 0.03990934425 0)
(0.0003147164717 0.04029868121 0)
(0.0003319731603 0.04070765307 0)
(0.0003497550922 0.0411368471 0)
(0.0003680886947 0.04158687812 0)
(0.0003869999881 0.04205838466 0)
(0.0004065076506 0.042552037 0)
(0.0004266270094 0.04306853468 0)
(0.0004473687402 0.04360859392 0)
(0.0004687474628 0.04417292722 0)
(0.0004908356138 0.04476229869 0)
(0.0005137080734 0.04537759012 0)
(0.0005373920481 0.04601976954 0)
(0.0005619356279 0.0466896964 0)
(0.0005873440058 0.04738820314 0)
(0.0006135732642 0.04811638136 0)
(0.0006406746475 0.04887531885 0)
(0.0006688110445 0.04966608476 0)
(0.0006980585321 0.05048991016 0)
(0.0007284004782 0.05134802798 0)
(0.0007598689265 0.05224166739 0)
(0.0007925302249 0.05317213611 0)
(0.0008264374591 0.05414083417 0)
(0.0008617053867 0.05514922947 0)
(0.0008984681749 0.05619895462 0)
(0.0009367548101 0.05729171905 0)
(0.00097662912 0.0584292528 0)
(0.001018196818 0.0596134341 0)
(0.001061494313 0.06084624171 0)
(0.001106478758 0.06212958439 0)
(0.001153354751 0.0634653992 0)
(0.001202450543 0.06485619223 0)
(0.001253863809 0.06630433895 0)
(0.001307664457 0.0678120548 0)
(0.001364004679 0.06938227422 0)
(0.001422989006 0.07101811921 0)
(0.001484689717 0.07272248142 0)
(0.001549313748 0.07449851816 0)
(0.001617025933 0.07634965847 0)
(0.001687780958 0.07827936708 0)
(0.001761855099 0.08029103907 0)
(0.001839921485 0.0823887231 0)
(0.001922244143 0.08457700998 0)
(0.002008940488 0.08686071803 0)
(0.002100343307 0.08924472127 0)
(0.002196679549 0.09173377588 0)
(0.002297912693 0.09433335048 0)
(0.002404091513 0.09704942058 0)