/*--------------------------------*- C++ -*----------------------------------*\
| =========                 |                                                 |
| \\      /  F ield         | OpenFOAM: The Open Source CFD Toolbox           |
|  \\    /   O peration     | Version:  v2006                                 |
|   \\  /    A nd           | Website:  www.openfoam.com                      |
|    \\/     M anipulation  |                                                 |
\*---------------------------------------------------------------------------*/
FoamFile
{
    version     2.0;
    format      ascii;
    class       volVectorField;
    location    "0.09";
    object      U_0;
}
// * * * * * * * * * * * * * * * * * * * * * * * * * * * * * * * * * * * * * //

dimensions      [0 1 -1 0 0 0 0];


internalField   nonuniform List<vector> 
72000
(
(-0.0002422545921 0.03559925503 0)
(-0.0001461898061 0.03475682712 0)
(-0.0001331782546 0.03440920657 0)
(-9.973672484e-05 0.0340941478 0)
(-8.081415232e-05 0.03382840684 0)
(-6.792095521e-05 0.03360455389 0)
(-5.872299592e-05 0.03341184018 0)
(-5.201307826e-05 0.03324086553 0)
(-4.711390683e-05 0.03308648661 0)
(-4.347400587e-05 0.03294462772 0)
(-4.075525692e-05 0.03281221577 0)
(-3.87254012e-05 0.03268692965 0)
(-3.722381828e-05 0.0325670078 0)
(-3.613067327e-05 0.03245108695 0)
(-3.535535678e-05 0.03233808311 0)
(-3.48314391e-05 0.03222711994 0)
(-3.450944863e-05 0.03211748688 0)
(-3.435012972e-05 0.03200860781 0)
(-3.432076223e-05 0.03190001382 0)
(-3.439380022e-05 0.03179131365 0)
(-3.45533807e-05 0.03168217573 0)
(-3.479311775e-05 0.03157233535 0)
(-3.510290868e-05 0.03146158566 0)
(-3.54680525e-05 0.03134975031 0)
(-3.58766963e-05 0.03123667828 0)
(-3.632007546e-05 0.03112224721 0)
(-3.679036655e-05 0.03100636 0)
(-3.728020245e-05 0.03088894374 0)
(-3.778265042e-05 0.03076994883 0)
(-3.829187017e-05 0.03064934744 0)
(-3.880387807e-05 0.03052712921 0)
(-3.931564831e-05 0.03040329414 0)
(-3.982391838e-05 0.03027784681 0)
(-4.03272537e-05 0.03015079407 0)
(-4.082664962e-05 0.03002214292 0)
(-4.132406954e-05 0.02989189782 0)
(-4.182215518e-05 0.02976005745 0)
(-4.232323009e-05 0.02962661367 0)
(-4.282853909e-05 0.02949155353 0)
(-4.333503976e-05 0.02935486744 0)
(-4.383769495e-05 0.02921655898 0)
(-4.433271025e-05 0.02907664668 0)
(-4.481725951e-05 0.02893516276 0)
(-4.528999312e-05 0.02879214781 0)
(-4.574991909e-05 0.02864764514 0)
(-4.619647353e-05 0.02850170043 0)
(-4.662948861e-05 0.02835436113 0)
(-4.705066574e-05 0.02820567405 0)
(-4.746601776e-05 0.02805569039 0)
(-4.788533212e-05 0.0279044456 0)
(-4.829753234e-05 0.02775196301 0)
(-4.86774341e-05 0.02759831812 0)
(-4.902686711e-05 0.02744356896 0)
(-4.935841753e-05 0.02728775911 0)
(-4.967466007e-05 0.02713090894 0)
(-4.999336068e-05 0.02697304368 0)
(-5.030913069e-05 0.02681421024 0)
(-5.060599873e-05 0.02665442776 0)
(-5.089225279e-05 0.02649371661 0)
(-5.116896236e-05 0.02633210837 0)
(-5.143483742e-05 0.02616963528 0)
(-5.168823181e-05 0.02600633379 0)
(-5.192687302e-05 0.02584224573 0)
(-5.214689324e-05 0.02567741968 0)
(-5.234630582e-05 0.02551190046 0)
(-5.252948075e-05 0.02534573264 0)
(-5.270167175e-05 0.0251789749 0)
(-5.286389442e-05 0.02501168398 0)
(-5.301586354e-05 0.02484390342 0)
(-5.315793896e-05 0.02467567073 0)
(-5.328973491e-05 0.02450701869 0)
(-5.341056907e-05 0.02433798034 0)
(-5.351969633e-05 0.02416859197 0)
(-5.361627222e-05 0.02399889287 0)
(-5.369972786e-05 0.02382892451 0)
(-5.376958846e-05 0.02365873015 0)
(-5.382567608e-05 0.0234883544 0)
(-5.386828739e-05 0.02331784141 0)
(-5.389795896e-05 0.02314723382 0)
(-5.391552634e-05 0.0229765724 0)
(-5.392195402e-05 0.02280589532 0)
(-5.391819555e-05 0.02263523796 0)
(-5.390500174e-05 0.0224646332 0)
(-5.388271725e-05 0.02229411231 0)
(-5.385121924e-05 0.02212370624 0)
(-5.380985866e-05 0.02195344719 0)
(-5.375774965e-05 0.02178336975 0)
(-5.369405483e-05 0.02161351105 0)
(-5.361810537e-05 0.02144391026 0)
(-5.352962766e-05 0.02127460774 0)
(-5.342854357e-05 0.02110564386 0)
(-5.331503161e-05 0.02093705895 0)
(-5.318964294e-05 0.02076889205 0)
(-5.305299731e-05 0.02060118028 0)
(-5.290573508e-05 0.02043395892 0)
(-5.274837353e-05 0.02026726149 0)
(-5.258120951e-05 0.0201011206 0)
(-5.240411844e-05 0.01993556872 0)
(-5.221680571e-05 0.01977063895 0)
(-5.201909882e-05 0.01960636562 0)
(-5.181098757e-05 0.01944278334 0)
(-5.159282821e-05 0.01927992638 0)
(-5.136515393e-05 0.01911782804 0)
(-5.112839902e-05 0.01895652051 0)
(-5.088288512e-05 0.01879603451 0)
(-5.062808546e-05 0.01863639969 0)
(-5.036354503e-05 0.01847764617 0)
(-5.008927e-05 0.0183198045 0)
(-4.980503269e-05 0.0181629059 0)
(-4.951071264e-05 0.01800698288 0)
(-4.920603354e-05 0.01785206886 0)
(-4.889072331e-05 0.01769819833 0)
(-4.856465075e-05 0.01754540653 0)
(-4.822785245e-05 0.0173937289 0)
(-4.788048461e-05 0.01724320066 0)
(-4.75228017e-05 0.01709385641 0)
(-4.715509981e-05 0.01694573004 0)
(-4.677766955e-05 0.01679885455 0)
(-4.639080987e-05 0.01665326229 0)
(-4.599476869e-05 0.01650898485 0)
(-4.558970914e-05 0.01636605336 0)
(-4.517610614e-05 0.01622449879 0)
(-4.475562158e-05 0.01608435015 0)
(-4.432751916e-05 0.0159456322 0)
(-4.388847453e-05 0.01580837441 0)
(-4.34381649e-05 0.01567260668 0)
(-4.297963274e-05 0.01553835683 0)
(-4.251386345e-05 0.01540565712 0)
(-4.203922632e-05 0.01527454004 0)
(-4.155495532e-05 0.01514503785 0)
(-4.106077627e-05 0.01501718401 0)
(-4.055657954e-05 0.01489101245 0)
(-4.004229048e-05 0.0147665573 0)
(-3.951784142e-05 0.01464385285 0)
(-3.898315948e-05 0.01452293352 0)
(-3.843814681e-05 0.01440383379 0)
(-3.788256565e-05 0.01428658816 0)
(-3.731570163e-05 0.01417123155 0)
(-3.673737263e-05 0.01405779548 0)
(-3.61487143e-05 0.01394631125 0)
(-3.555059367e-05 0.01383681804 0)
(-3.494256989e-05 0.01372935499 0)
(-3.432414952e-05 0.01362395768 0)
(-3.369700119e-05 0.01352066343 0)
(-3.306066372e-05 0.01341951188 0)
(-3.241083671e-05 0.01332053686 0)
(-3.174723959e-05 0.01322376996 0)
(-3.107259088e-05 0.01312925099 0)
(-3.038752881e-05 0.01303701917 0)
(-2.969192912e-05 0.01294710985 0)
(-2.898520015e-05 0.01285955933 0)
(-2.826692935e-05 0.01277440639 0)
(-2.753715411e-05 0.01269169015 0)
(-2.679576201e-05 0.01261144932 0)
(-2.604259369e-05 0.01253372327 0)
(-2.527732166e-05 0.01245855216 0)
(-2.449939709e-05 0.01238597753 0)
(-2.370819568e-05 0.01231604263 0)
(-2.290279657e-05 0.01224879301 0)
(-2.208264623e-05 0.01218427626 0)
(-2.124718944e-05 0.01212254185 0)
(-2.039763821e-05 0.01206363835 0)
(-1.953525155e-05 0.01200761159 0)
(-1.866319474e-05 0.011954501 0)
(-1.778181038e-05 0.01190433903 0)
(-1.68861777e-05 0.01185716753 0)
(-1.597701601e-05 0.01181303214 0)
(-1.504469599e-05 0.01177199279 0)
(-1.409566078e-05 0.01173411207 0)
(-1.31192228e-05 0.01169945766 0)
(-1.212791356e-05 0.01166808914 0)
(-1.110284968e-05 0.01164009393 0)
(-1.007372683e-05 0.01161554288 0)
(-9.05252603e-06 0.01159443497 0)
(-7.970398481e-06 0.01157684742 0)
(-6.880093606e-06 0.01156286118 0)
(-5.756484765e-06 0.01155255881 0)
(-4.62183388e-06 0.0115460125 0)
(-3.474301791e-06 0.01154327623 0)
(-2.322112399e-06 0.01154440326 0)
(-1.150201369e-06 0.01154951173 0)
(8.634068638e-08 0.01155870993 0)
(1.390324676e-06 0.0115720598 0)
(2.712932243e-06 0.01158964645 0)
(4.045004498e-06 0.01161158159 0)
(5.402536038e-06 0.01163796113 0)
(6.790968486e-06 0.01166887937 0)
(8.212332557e-06 0.01170443895 0)
(9.668120888e-06 0.01174474767 0)
(1.115968981e-05 0.01178991777 0)
(1.268812149e-05 0.01184006531 0)
(1.425485215e-05 0.01189531027 0)
(1.586120544e-05 0.01195577485 0)
(1.750907142e-05 0.01202158575 0)
(1.920093452e-05 0.0120928808 0)
(2.093974577e-05 0.01216980586 0)
(2.273035585e-05 0.01225251274 0)
(2.457485096e-05 0.01234114902 0)
(2.647336342e-05 0.01243586129 0)
(2.842616993e-05 0.01253682576 0)
(3.043441218e-05 0.0126442339 0)
(3.250085115e-05 0.01275827322 0)
(3.462222123e-05 0.0128791441 0)
(3.680894374e-05 0.01300706206 0)
(3.907323871e-05 0.01314223259 0)
(4.141251253e-05 0.01328487277 0)
(4.382877268e-05 0.01343521689 0)
(4.632800503e-05 0.01359350947 0)
(4.891888813e-05 0.01375999982 0)
(5.159871393e-05 0.01393494682 0)
(5.436293649e-05 0.01411863602 0)
(5.721565542e-05 0.01431136096 0)
(6.016252327e-05 0.01451341719 0)
(6.321327764e-05 0.01472511731 0)
(6.63764856e-05 0.01494680713 0)
(6.964835024e-05 0.01517885522 0)
(7.29995911e-05 0.01542163193 0)
(7.647044123e-05 0.01567549683 0)
(8.012195909e-05 0.01594088297 0)
(8.394002745e-05 0.01621821332 0)
(8.791371189e-05 0.01650794089 0)
(9.204431887e-05 0.01681057388 0)
(9.633651564e-05 0.01712662586 0)
(0.0001007967026 0.01745661209 0)
(0.0001054403323 0.01780107736 0)
(0.0001102827917 0.01816060042 0)
(0.0001153375931 0.01853579664 0)
(0.000120624955 0.01892734295 0)
(0.0001261605641 0.01933594358 0)
(0.0001319472577 0.0197623252 0)
(0.0001379911356 0.02020729113 0)
(0.0001443089091 0.02067168163 0)
(0.0001509085611 0.02115631515 0)
(0.0001578169964 0.02166202932 0)
(0.0001650511584 0.0221898276 0)
(0.0001725545016 0.02274076251 0)
(0.0001804256892 0.02331587351 0)
(0.0001889297562 0.02391636139 0)
(0.0001979573927 0.02454331852 0)
(0.0002073110115 0.02519815677 0)
(0.0002170892538 0.02588240021 0)
(0.0002273900155 0.02659752178 0)
(0.0002382394803 0.0273450202 0)
(0.000249679196 0.02812643457 0)
(0.0002617858146 0.02894351783 0)
(0.0002745690254 0.02979823329 0)
(0.0002880294344 0.03069271416 0)
(0.0003021562317 0.03162916305 0)
(0.0003170121789 0.03260977661 0)
(0.0003328351974 0.03363702691 0)
(0.0003497155776 0.03471357938 0)
(0.0003676643793 0.0358422068 0)
(0.0003867453389 0.03702615075 0)
(0.0004070419378 0.03826890074 0)
(0.0004286686625 0.03957403878 0)
(0.0004516491758 0.04094540563 0)
(0.0004758947593 0.04238706994 0)
(0.0005018123797 0.04390310473 0)
(0.0005298817557 0.04549811696 0)
(0.0005598843086 0.04717767121 0)
(0.0005918471209 0.04894802364 0)
(0.0006261169648 0.05081559338 0)
(0.000662822449 0.05278709568 0)
(0.0007018770289 0.05486997568 0)
(0.0007437525052 0.05707229085 0)
(0.0007892961517 0.0594034185 0)
(0.0008387450103 0.06187342653 0)
(0.0008922928307 0.06449338753 0)
(0.0009500976998 0.06727631492 0)
(0.001013106159 0.07023497697 0)
(0.001081956312 0.07338273373 0)
(0.001157127412 0.07673796838 0)
(0.001239593019 0.08032064648 0)
(0.001329298878 0.0841514413 0)
(0.001427745637 0.08825281132 0)
(0.001537542113 0.09265227495 0)
(0.001659800697 0.09738074939 0)
(0.00179557072 0.1024712291 0)
(0.001946043653 0.1079613683 0)
(0.002114052197 0.1138988838 0)
(0.002301400008 0.1203348184 0)
(0.002512084112 0.1273250734 0)
(0.002752424923 0.1349389465 0)
(0.003024683675 0.1432527896 0)
(0.003334057374 0.1523606013 0)
(0.003689075803 0.1623694684 0)
(0.004102653627 0.1734018443 0)
(0.004581605035 0.1856061355 0)
(0.005136450058 0.1991588332 0)
(0.005789783655 0.2142724354 0)
(0.006570265212 0.2311875839 0)
(0.007500321013 0.2501915198 0)
(0.008606610151 0.2716396575 0)
(0.009943875639 0.2959378402 0)
(0.01155888357 0.3235370869 0)
(0.01348976303 0.3549656701 0)
(0.01577875639 0.3908065761 0)
(0.01846067395 0.4315591984 0)
(0.02138733388 0.4774050486 0)
(0.02407497712 0.5278986008 0)
(0.02517515546 0.5816861699 0)
(0.02183906613 0.6352800439 0)
(0.0105083838 0.6775128771 0)
(-0.01966135021 0.7064021784 0)
(-0.04394070857 0.7907326657 0)
(0.05008041389 0.7888716798 0)
(0.06028249572 0.5797871042 0)
(-0.008140859646 0.5174177033 0)
(-0.005269895884 0.495571758 0)
(-0.01052491887 0.4505577778 0)
(-0.009664912142 0.4210783073 0)
(-0.008011816598 0.3893484365 0)
(-0.007039750073 0.3629049986 0)
(-0.005741690076 0.3401779441 0)
(-0.004304247189 0.3221729457 0)
(-0.002912683347 0.3063792554 0)
(-0.002238719402 0.2925240307 0)
(-0.002159685817 0.280597756 0)
(-0.002023739291 0.2705468766 0)
(-0.001812509857 0.2617984302 0)
(-0.001630167381 0.2541255645 0)
(-0.001482148702 0.2473285194 0)
(-0.001345558412 0.2412570508 0)
(-0.001217662891 0.2357797506 0)
(-0.001110228957 0.2308093204 0)
(-0.001017779884 0.2262743803 0)
(-0.0009361925046 0.2221173576 0)
(-0.0008645957116 0.218289031 0)
(-0.0008015671623 0.2147493079 0)
(-0.0007453735642 0.2114653948 0)
(-0.0006950528251 0.2084089562 0)
(-0.000649913115 0.2055547811 0)
(-0.0006094197928 0.2028815963 0)
(-0.0005730256141 0.2003708445 0)
(-0.0005400722938 0.1980060349 0)
(-0.0005101186344 0.1957728758 0)
(-0.0004829682855 0.1936588883 0)
(-0.0004582783439 0.1916530804 0)
(-0.0004356715226 0.1897459669 0)
(-0.0004149085735 0.1879291875 0)
(-0.0003958050445 0.1861952893 0)
(-0.0003782033383 0.1845376667 0)
(-0.0003619542271 0.1829503904 0)
(-0.000346923042 0.1814280917 0)
(-0.0003330016811 0.1799658957 0)
(-0.0003200986969 0.1785593719 0)
(-0.0003081257673 0.1772044913 0)
(-0.0002969967426 0.1758975893 0)
(-0.0002866360858 0.174635328 0)
(-0.0002769802504 0.173414658 0)
(-0.0002679718286 0.1722327873 0)
(-0.0002595584679 0.1710871545 0)
(-0.0002516922443 0.1699754021 0)
(-0.0002443303713 0.1688953572 0)
(-0.0002374340916 0.1678450154 0)
(-0.0002309676354 0.166822527 0)
(-0.0002248978945 0.1658261838 0)
(-0.0002191947816 0.1648544061 0)
(-0.0002138314048 0.1639057307 0)
(-0.000208783561 0.1629787992 0)
(-0.0002040293208 0.1620723481 0)
(-0.0001995487396 0.1611852 0)
(-0.0001953236964 0.1603162554 0)
(-0.0001913376652 0.1594644861 0)
(-0.0001875754891 0.158628929 0)
(-0.0001840232599 0.157808681 0)
(-0.0001806681906 0.1570028935 0)
(-0.0001774985542 0.1562107684 0)
(-0.0001745035951 0.1554315532 0)
(-0.0001716734193 0.1546645381 0)
(-0.0001689988783 0.1539090521 0)
(-0.000166471478 0.1531644603 0)
(-0.0001640833358 0.1524301616 0)
(-0.0001618271059 0.1517055861 0)
(-0.0001596959868 0.1509901927 0)
(-0.0001576836579 0.1502834674 0)
(-0.0001557842709 0.1495849213 0)
(-0.0001539924351 0.1488940886 0)
(-0.0001523031381 0.1482105249 0)
(-0.0001507117493 0.1475338059 0)
(-0.0001492139436 0.1468635263 0)
(-0.0001478056707 0.1461992981 0)
(-0.000146483145 0.1455407498 0)
(-0.0001452427833 0.1448875255 0)
(-0.0001440812361 0.144239284 0)
(-0.0001429953438 0.1435956979 0)
(-0.0001419821381 0.1429564526 0)
(-0.0001410388663 0.1423212457 0)
(-0.000140162939 0.1416897859 0)
(-0.000139351961 0.1410617926 0)
(-0.0001386036774 0.140436995 0)
(-0.0001379159842 0.1398151316 0)
(-0.00013728689 0.1391959494 0)
(-0.0001367144767 0.1385792041 0)
(-0.0001361969041 0.1379646593 0)
(-0.0001357323458 0.1373520865 0)
(-0.0001353190171 0.1367412653 0)
(-0.0001349551193 0.1361319826 0)
(-0.0001346388446 0.1355240336 0)
(-0.0001343683954 0.1349172209 0)
(-0.0001341419387 0.134311355 0)
(-0.0001339576701 0.1337062542 0)
(-0.0001338137715 0.1331017446 0)
(-0.0001337084544 0.1324976597 0)
(-0.0001336399796 0.1318938407 0)
(-0.0001336066296 0.1312901359 0)
(-0.0001336067691 0.1306864007 0)
(-0.0001336388213 0.1300824974 0)
(-0.0001337012934 0.1294782947 0)
(-0.000133792776 0.1288736675 0)
(-0.0001339119367 0.1282684963 0)
(-0.0001340575433 0.1276626672 0)
(-0.0001342284371 0.1270560715 0)
(-0.0001344235423 0.1264486051 0)
(-0.0001346418593 0.1258401682 0)
(-0.0001348824409 0.1252306653 0)
(-0.0001351444187 0.1246200045 0)
(-0.0001354269606 0.1240080976 0)
(-0.0001357292828 0.1233948599 0)
(-0.0001360506243 0.1227802095 0)
(-0.0001363902679 0.122164068 0)
(-0.0001367475017 0.1215463598 0)
(-0.0001371216291 0.1209270123 0)
(-0.0001375119712 0.1203059558 0)
(-0.0001379178302 0.1196831238 0)
(-0.0001383385308 0.1190584525 0)
(-0.0001387733766 0.1184318812 0)
(-0.0001392216706 0.1178033524 0)
(-0.0001396827122 0.1171728117 0)
(-0.000140155777 0.1165402079 0)
(-0.0001406401467 0.1159054928 0)
(-0.0001411350875 0.1152686217 0)
(-0.0001416398497 0.1146295531 0)
(-0.0001421536882 0.1139882488 0)
(-0.0001426758351 0.1133446738 0)
(-0.0001432055363 0.1126987967 0)
(-0.0001437420116 0.112050589 0)
(-0.0001442844912 0.1114000259 0)
(-0.0001448322084 0.1107470857 0)
(-0.0001453843802 0.1100917501 0)
(-0.0001459402449 0.1094340039 0)
(-0.0001464990267 0.1087738355 0)
(-0.0001470599675 0.1081112362 0)
(-0.0001476223043 0.1074462007 0)
(-0.0001481852934 0.106778727 0)
(-0.0001487481875 0.1061088159 0)
(-0.0001493102503 0.1054364717 0)
(-0.0001498707655 0.1047617016 0)
(-0.0001504290224 0.1040845161 0)
(-0.0001509843103 0.1034049283 0)
(-0.000151535944 0.1027229547 0)
(-0.0001520832426 0.1020386145 0)
(-0.0001526255369 0.10135193 0)
(-0.0001531621723 0.1006629261 0)
(-0.0001536925025 0.09997163086 0)
(-0.0001542158976 0.09927807489 0)
(-0.0001547317296 0.09858229164 0)
(-0.0001552393869 0.09788431725 0)
(-0.0001557382662 0.09718419056 0)
(-0.0001562277768 0.09648195294 0)
(-0.0001567073322 0.09577764843 0)
(-0.0001571763587 0.0950713235 0)
(-0.000157634291 0.09436302711 0)
(-0.0001580805691 0.09365281065 0)
(-0.0001585146449 0.09294072784 0)
(-0.0001589359761 0.09222683474 0)
(-0.0001593440279 0.09151118966 0)
(-0.0001597382774 0.09079385319 0)
(-0.0001601181997 0.09007488807 0)
(-0.0001604832911 0.08935435927 0)
(-0.0001608330428 0.08863233387 0)
(-0.000161166957 0.08790888113 0)
(-0.0001614845423 0.08718407242 0)
(-0.0001617853183 0.0864579812 0)
(-0.000162068814 0.08573068305 0)
(-0.0001623345508 0.08500225564 0)
(-0.0001625820717 0.08427277865 0)
(-0.0001628109214 0.08354233382 0)
(-0.0001630206524 0.08281100489 0)
(-0.0001632108238 0.08207887751 0)
(-0.0001633810024 0.08134603929 0)
(-0.0001635307633 0.08061257964 0)
(-0.0001636596938 0.07987858985 0)
(-0.0001637673787 0.07914416289 0)
(-0.0001638534261 0.0784093935 0)
(-0.0001639174379 0.07767437802 0)
(-0.0001639590354 0.07693921446 0)
(-0.0001639778433 0.07620400237 0)
(-0.0001639734994 0.07546884284 0)
(-0.0001639456483 0.07473383847 0)
(-0.0001638939473 0.07399909335 0)
(-0.0001638180597 0.07326471301 0)
(-0.0001637176597 0.07253080439 0)
(-0.0001635924434 0.07179747581 0)
(-0.0001634420949 0.07106483701 0)
(-0.0001632663207 0.07033299895 0)
(-0.0001630648463 0.06960207395 0)
(-0.0001628373915 0.06887217555 0)
(-0.0001625836991 0.06814341845 0)
(-0.0001623035211 0.06741591853 0)
(-0.0001619966139 0.06668979273 0)
(-0.0001616627553 0.06596515902 0)
(-0.0001613017336 0.06524213639 0)
(-0.0001609133458 0.0645208447 0)
(-0.0001604974036 0.06380140473 0)
(-0.0001600537326 0.06308393801 0)
(-0.0001595821715 0.06236856689 0)
(-0.0001590825739 0.06165541435 0)
(-0.0001585548031 0.06094460405 0)
(-0.0001579987389 0.06023626017 0)
(-0.0001574142782 0.05953050747 0)
(-0.000156801328 0.05882747108 0)
(-0.0001561598097 0.05812727654 0)
(-0.0001554896644 0.05743004968 0)
(-0.0001547908439 0.0567359166 0)
(-0.0001540633125 0.05604500353 0)
(-0.0001533070601 0.05535743683 0)
(-0.0001525220791 0.0546733429 0)
(-0.0001517083838 0.0539928481 0)
(-0.0001508660098 0.0533160787 0)
(-0.000149995 0.05264316084 0)
(-0.0001490954116 0.05197422047 0)
(-0.0001481673269 0.05130938322 0)
(-0.0001472108417 0.05064877447 0)
(-0.0001462260629 0.04999251917 0)
(-0.0001452131157 0.04934074186 0)
(-0.0001441721418 0.04869356657 0)
(-0.0001431033003 0.04805111675 0)
(-0.0001420067654 0.04741351528 0)
(-0.000140882726 0.04678088429 0)
(-0.0001397313873 0.04615334514 0)
(-0.0001385529658 0.04553101842 0)
(-0.0001373477011 0.04491402372 0)
(-0.0001361158357 0.04430247972 0)
(-0.0001348576413 0.04369650403 0)
(-0.0001335733909 0.04309621312 0)
(-0.0001322633716 0.04250172231 0)
(-0.000130927894 0.04191314568 0)
(-0.0001295672723 0.04133059598 0)
(-0.0001281818298 0.04075418467 0)
(-0.0001267719111 0.04018402178 0)
(-0.0001253378636 0.03962021593 0)
(-0.0001238800459 0.03906287428 0)
(-0.0001223988205 0.03851210249 0)
(-0.0001208945709 0.03796800469 0)
(-0.0001193676737 0.0374306835 0)
(-0.00011781851 0.03690023992 0)
(-0.0001162474821 0.03637677342 0)
(-0.0001146549746 0.03586038185 0)
(-0.0001130413826 0.03535116146 0)
(-0.0001114071045 0.03484920686 0)
(-0.0001097525335 0.03435461108 0)
(-0.0001080780594 0.03386746553 0)
(-0.0001063840631 0.03338786 0)
(-0.000104670927 0.0329158827 0)
(-0.000102939024 0.03245162029 0)
(-0.0001011887029 0.03199515791 0)
(-9.942031885e-05 0.03154657922 0)
(-9.763419327e-05 0.03110596645 0)
(-9.583063365e-05 0.03067340052 0)
(-9.400993473e-05 0.03024896107 0)
(-9.217235237e-05 0.02983272661 0)
(-9.03181224e-05 0.02942477462 0)
(-8.844743954e-05 0.02902518169 0)
(-8.656047012e-05 0.0286340237 0)
(-8.465733268e-05 0.02825137597 0)
(-8.273809379e-05 0.0278773135 0)
(-8.080277764e-05 0.02751191117 0)
(-7.885133341e-05 0.02715524401 0)
(-7.688365298e-05 0.0268073875 0)
(-7.48995509e-05 0.02646841785 0)
(-7.289875183e-05 0.02613841243 0)
(-7.08808833e-05 0.02581745006 0)
(-6.884547185e-05 0.02550561156 0)
(-6.679191527e-05 0.0252029802 0)
(-6.471947104e-05 0.02490964226 0)
(-6.26272446e-05 0.02462568772 0)
(-6.051415506e-05 0.02435121088 0)
(-5.837890709e-05 0.02408631133 0)
(-5.621997298e-05 0.02383109478 0)
(-5.403553718e-05 0.02358567426 0)
(-5.182344468e-05 0.02335017136 0)
(-4.958114173e-05 0.02312471778 0)
(-4.730560193e-05 0.02290945716 0)
(-4.499318797e-05 0.02270454727 0)
(-4.263954737e-05 0.02251016267 0)
(-4.023937755e-05 0.02232649813 0)
(-3.778619664e-05 0.02215377272 0)
(-3.527195072e-05 0.02199223511 0)
(-3.26866391e-05 0.02184216986 0)
(-3.001818773e-05 0.02170390762 0)
(-2.725052822e-05 0.02157783708 0)
(-2.436292167e-05 0.0214643904 0)
(-2.136229996e-05 0.02136406237 0)
(-1.824056071e-05 0.02127772305 0)
(-1.485550512e-05 0.02120564225 0)
(-1.18628833e-05 0.02114594063 0)
(-1.356726677e-05 0.02110355555 0)
(2.400677928e-06 0.02111693538 0)
(3.503689263e-06 0.02092844165 0)
(-0.001091115308 0.09308031607 0)
(-0.0009346292551 0.09184809763 0)
(-0.000763062434 0.09117870358 0)
(-0.000634813476 0.09055532733 0)
(-0.0005401755362 0.08999535931 0)
(-0.0004685440964 0.08949632353 0)
(-0.0004147773872 0.08905109471 0)
(-0.0003742175402 0.0886462568 0)
(-0.0003434689852 0.08827367823 0)
(-0.0003201268701 0.08792641319 0)
(-0.0003024297589 0.08759880572 0)
(-0.0002890681477 0.08728634771 0)
(-0.0002790843442 0.08698545642 0)
(-0.0002717642399 0.08669324746 0)
(-0.000266573032 0.08640737877 0)
(-0.0002630994827 0.08612592207 0)
(-0.0002610196892 0.0858472902 0)
(-0.0002600778755 0.08557017435 0)
(-0.0002600811112 0.08529349695 0)
(-0.0002609059265 0.08501635964 0)
(-0.0002624061507 0.08473799404 0)
(-0.0002643836869 0.08445778454 0)
(-0.0002667348233 0.08417525003 0)
(-0.0002694264127 0.0838899765 0)
(-0.0002724068088 0.08360161834 0)
(-0.0002756221416 0.0833098938 0)
(-0.0002790212925 0.08301457709 0)
(-0.0002825549938 0.08271549779 0)
(-0.0002861754399 0.08241254051 0)
(-0.0002898394319 0.08210564238 0)
(-0.0002935131473 0.08179478153 0)
(-0.0002971756709 0.08147995852 0)
(-0.0003008139557 0.08116118735 0)
(-0.0003044199102 0.08083849295 0)
(-0.0003079935487 0.08051190151 0)
(-0.0003115447148 0.08018143262 0)
(-0.0003150910316 0.07984709262 0)
(-0.000318648935 0.0795088708 0)
(-0.0003222257352 0.07916674033 0)
(-0.0003258050746 0.07882068174 0)
(-0.0003293595968 0.0784707133 0)
(-0.0003328603587 0.07811688951 0)
(-0.0003362824269 0.07775929443 0)
(-0.00033961759 0.07739802868 0)
(-0.000342861811 0.07703319672 0)
(-0.0003460098131 0.07666490846 0)
(-0.0003490562523 0.07629328045 0)
(-0.0003519989052 0.07591843924 0)
(-0.0003548405322 0.07554053262 0)
(-0.0003575728236 0.07515967599 0)
(-0.0003601882713 0.07477592552 0)
(-0.0003627088104 0.074389391 0)
(-0.0003651504211 0.07400022664 0)
(-0.0003675129009 0.07360852367 0)
(-0.0003698017527 0.07321433393 0)
(-0.0003720275435 0.07281772353 0)
(-0.0003741912813 0.07241876178 0)
(-0.0003762877725 0.07201752533 0)
(-0.0003783171099 0.07161408342 0)
(-0.000380275271 0.07120851122 0)
(-0.0003821552337 0.0708008904 0)
(-0.0003839477588 0.0703913114 0)
(-0.0003856427298 0.06997987456 0)
(-0.0003872395244 0.06956669677 0)
(-0.0003887655156 0.06915189497 0)
(-0.0003901811268 0.06873557164 0)
(-0.0003914430044 0.06831787501 0)
(-0.000392587721 0.06789893763 0)
(-0.0003936406215 0.06747886653 0)
(-0.0003946155205 0.06705775558 0)
(-0.0003955164662 0.06663568697 0)
(-0.0003963370907 0.06621274569 0)
(-0.0003970704833 0.06578902501 0)
(-0.0003977119369 0.06536462501 0)
(-0.000398257753 0.06493965062 0)
(-0.0003987028798 0.06451421074 0)
(-0.0003990451008 0.06408841709 0)
(-0.0003992872126 0.06366237974 0)
(-0.0003994337371 0.06323620501 0)
(-0.0003994906944 0.06280999476 0)
(-0.0003994650282 0.06238384446 0)
(-0.0003993635077 0.06195784265 0)
(-0.0003991913319 0.06153207181 0)
(-0.000398950915 0.06110661051 0)
(-0.0003986411149 0.0606815369 0)
(-0.0003982572367 0.06025693262 0)
(-0.0003977929498 0.05983288566 0)
(-0.0003972424471 0.05940949041 0)
(-0.0003966014489 0.05898684633 0)
(-0.0003958676247 0.05856505533 0)
(-0.0003950405018 0.05814421955 0)
(-0.0003941216605 0.05772444086 0)
(-0.000393114402 0.05730581821 0)
(-0.0003920230419 0.05688844581 0)
(-0.0003908519596 0.05647241348 0)
(-0.0003896046156 0.05605780692 0)
(-0.000388282737 0.05564470934 0)
(-0.0003868859129 0.05523320363 0)
(-0.0003854124096 0.05482337498 0)
(-0.0003838609089 0.05441531138 0)
(-0.0003822316109 0.05400910172 0)
(-0.0003805262645 0.05360483361 0)
(-0.0003787474632 0.05320259206 0)
(-0.0003768984285 0.0528024594 0)
(-0.0003749823688 0.05240451274 0)
(-0.0003729966897 0.05200882827 0)
(-0.0003709376814 0.05161548753 0)
(-0.0003688050905 0.05122457261 0)
(-0.0003665971265 0.05083616578 0)
(-0.0003643118526 0.0504503525 0)
(-0.0003619472487 0.05006722017 0)
(-0.0003595015185 0.04968685883 0)
(-0.0003569738736 0.04930936029 0)
(-0.0003543646543 0.0489348166 0)
(-0.000351675069 0.04856331903 0)
(-0.0003489068528 0.0481949573 0)
(-0.0003460619605 0.04782981932 0)
(-0.0003431423435 0.04746799108 0)
(-0.0003401497261 0.04710955689 0)
(-0.0003370854423 0.04675459959 0)
(-0.0003339503057 0.04640320164 0)
(-0.0003307445488 0.04605544811 0)
(-0.0003274663956 0.04571141594 0)
(-0.0003241184885 0.04537117213 0)
(-0.0003207062566 0.04503479598 0)
(-0.0003172288459 0.04470237301 0)
(-0.0003136841874 0.04437398004 0)
(-0.0003100704045 0.04404969566 0)
(-0.000306383633 0.04372960457 0)
(-0.0003026203704 0.04341379392 0)
(-0.0002987787028 0.04310235375 0)
(-0.0002948577585 0.04279537503 0)
(-0.0002908570655 0.04249294912 0)
(-0.0002867763038 0.04219516798 0)
(-0.0002826154005 0.04190212396 0)
(-0.0002783743529 0.04161390931 0)
(-0.0002740531469 0.04133061606 0)
(-0.0002696550169 0.04105233794 0)
(-0.0002651915795 0.0407791628 0)
(-0.0002606449296 0.04051117264 0)
(-0.0002559973484 0.04024847524 0)
(-0.0002512602626 0.03999117351 0)
(-0.0002464367332 0.03973936491 0)
(-0.0002415277777 0.03949314963 0)
(-0.0002365378296 0.03925262647 0)
(-0.0002314688826 0.03901788722 0)
(-0.0002263076167 0.03878902741 0)
(-0.0002210490818 0.03856615878 0)
(-0.0002157037559 0.03834938585 0)
(-0.0002102753148 0.03813880381 0)
(-0.0002047585846 0.03793451158 0)
(-0.0001991497677 0.03773661755 0)
(-0.0001934505078 0.03754522966 0)
(-0.0001876605918 0.0373604536 0)
(-0.0001817783923 0.03718239683 0)
(-0.0001758015732 0.03701116872 0)
(-0.0001697266101 0.03684688177 0)
(-0.0001635494914 0.03668965211 0)
(-0.0001572648835 0.03653960093 0)
(-0.0001508689772 0.03639685368 0)
(-0.0001443586275 0.03626154152 0)
(-0.0001377393905 0.03613379451 0)
(-0.0001310176706 0.03601374022 0)
(-0.0001242133341 0.03590149439 0)
(-0.0001173259893 0.0357971522 0)
(-0.0001103280789 0.03570083738 0)
(-0.000103219438 0.03561267238 0)
(-9.59537083e-05 0.03553281958 0)
(-8.855955297e-05 0.03546144039 0)
(-8.099345116e-05 0.03539871296 0)
(-7.331181708e-05 0.03534479271 0)
(-6.537218726e-05 0.03529987929 0)
(-5.739088686e-05 0.0352641824 0)
(-4.934588823e-05 0.03523771317 0)
(-4.105779351e-05 0.03522069051 0)
(-3.267335988e-05 0.03521337564 0)
(-2.401810455e-05 0.03521590954 0)
(-1.529045353e-05 0.03522849321 0)
(-6.355283234e-06 0.03525133284 0)
(2.814122547e-06 0.03528457223 0)
(1.215419474e-05 0.03532840667 0)
(2.168380163e-05 0.03538313099 0)
(3.142077083e-05 0.03544902503 0)
(4.136070735e-05 0.03552632734 0)
(5.150654925e-05 0.03561524564 0)
(6.186961178e-05 0.03571601807 0)
(7.24620431e-05 0.03582890689 0)
(8.329505223e-05 0.03595418614 0)
(9.437882145e-05 0.03609213988 0)
(0.0001057220644 0.03624306189 0)
(0.0001173324939 0.03640725478 0)
(0.0001292154475 0.03658503093 0)
(0.0001413726732 0.03677670484 0)
(0.0001538249583 0.03698259915 0)
(0.0001666005964 0.03720307043 0)
(0.0001797102832 0.03743849445 0)
(0.0001931533796 0.03768926212 0)
(0.0002069027877 0.03795575932 0)
(0.0002210014843 0.03823835344 0)
(0.0002355270016 0.03853750173 0)
(0.0002504802082 0.03885369092 0)
(0.0002658584905 0.03918739768 0)
(0.0002816766574 0.03953912212 0)
(0.0002979545658 0.0399093839 0)
(0.0003147118847 0.04029872309 0)
(0.0003319689736 0.04070769715 0)
(0.0003497514554 0.04113689324 0)
(0.0003680857671 0.04158692609 0)
(0.0003869979289 0.0420584341 0)
(0.0004065066079 0.0425520874 0)
(0.0004266271063 0.04306858542 0)
(0.0004473700608 0.04360864426 0)
(0.0004687500379 0.04417297632 0)
(0.0004908394099 0.0447623457 0)
(0.0005137129848 0.04537763422 0)
(0.0005373978958 0.04601981 0)
(0.0005619421645 0.04668973266 0)
(0.0005873509249 0.04738823486 0)
(0.00061358022 0.04811640846 0)
(0.0006406812764 0.04887534158 0)
(0.000668816994 0.04966610365 0)
(0.000698063488 0.05048992606 0)
(0.0007284041915 0.05134804197 0)
(0.0007598712373 0.05224168071 0)
(0.0007925310807 0.05317215011 0)
(0.0008264369236 0.05414085014 0)
(0.0008617036401 0.05514924859 0)
(0.0008984655044 0.05619897785 0)
(0.0009367515888 0.057291747 0)
(0.0009766257785 0.05842928571 0)
(0.001018193809 0.05961347179 0)
(0.001061492072 0.06084628357 0)
(0.001106477659 0.06212962945 0)
(0.001153355073 0.06346544615 0)
(0.001202452434 0.06485623959 0)
(0.001253867262 0.06630438514 0)
(0.001307669307 0.06781209834 0)
(0.001364010605 0.06938231381 0)
(0.001422995553 0.07101815391 0)
(0.001484696328 0.07272251073 0)
(0.001549319813 0.07449854209 0)
(0.001617030841 0.07634967757 0)
(0.001687784152 0.07827938237 0)
(0.001761856133 0.08029105198 0)
(0.00183992007 0.08238873534 0)
(0.001922240168 0.0845770234 0)
(0.002008934034 0.08686073446 0)
(0.002100334638 0.08924474233 0)
(0.002196669085 0.09173380289 0)
(0.002297900965 0.09433338437 0)