/*--------------------------------*- C++ -*----------------------------------*\
| =========                 |                                                 |
| \\      /  F ield         | OpenFOAM: The Open Source CFD Toolbox           |
|  \\    /   O peration     | Version:  v2006                                 |
|   \\  /    A nd           | Website:  www.openfoam.com                      |
|    \\/     M anipulation  |                                                 |
\*---------------------------------------------------------------------------*/
FoamFile
{
    version     2.0;
    format      ascii;
    class       volScalarField;
    location    "0.12";
    object      C2H6;
}
// * * * * * * * * * * * * * * * * * * * * * * * * * * * * * * * * * * * * * //

dimensions      [0 0 0 0 0 0 0];


internalField   nonuniform List<scalar> 
168000
(
3.4181582e-13
3.418066354e-13
3.417951929e-13
3.417864354e-13
3.417861169e-13
3.417861169e-13
3.417871301e-13
3.417895545e-13
3.417944469e-13
3.418047962e-13
3.417907848e-13
3.417911467e-13
3.417879985e-13
3.417861531e-13
3.417896269e-13
3.417979786e-13
3.417949245e-13
3.417877814e-13
3.417951777e-13
3.417932454e-13
3.417928331e-13
3.417866959e-13
3.41786334e-13
3.417886644e-13
3.417861169e-13
3.417861169e-13
3.417861169e-13
3.417861169e-13
3.417861169e-13
3.417861169e-13
3.417861169e-13
3.417861169e-13
3.417861169e-13
3.417861169e-13
3.417861169e-13
3.417861169e-13
3.453117438e-13
4.578771991e-13
6.977537394e-13
1.501726126e-12
3.418664542e-13
3.418399718e-13
3.418093642e-13
3.417936006e-13
3.417873907e-13
3.417861169e-13
3.418028782e-13
3.418169041e-13
3.418293739e-13
3.418331444e-13
3.418157314e-13
3.418148339e-13
3.418034496e-13
3.417934263e-13
3.418012423e-13
3.418119896e-13
3.418104335e-13
3.41796285e-13
3.418066701e-13
3.418101947e-13
3.418080744e-13
3.417917618e-13
3.418078794e-13
3.417861169e-13
3.417861169e-13
3.417861169e-13
3.417861169e-13
3.417861169e-13
3.417861169e-13
3.417861169e-13
3.417861169e-13
3.417861169e-13
3.417861169e-13
3.417861169e-13
3.417861169e-13
3.417861169e-13
3.520305295e-13
4.680241642e-13
7.386227963e-13
1.588355566e-12
3.4189733e-13
3.418609539e-13
3.418302231e-13
3.418088865e-13
3.417996513e-13
3.417982469e-13
3.418070832e-13
3.418171066e-13
3.418531481e-13
3.418558113e-13
3.418269923e-13
3.418265e-13
3.418061635e-13
3.417972981e-13
3.418101439e-13
3.418253925e-13
3.418211442e-13
3.418081537e-13
3.418137624e-13
3.418195883e-13
3.418154993e-13
3.417997587e-13
3.418201175e-13
3.417861169e-13
3.417861169e-13
3.417861169e-13
3.417861169e-13
3.417861169e-13
3.417861169e-13
3.417861169e-13
3.417861169e-13
3.417861169e-13
3.417861169e-13
3.417861169e-13
3.417861169e-13
3.417861169e-13
3.586267096e-13
4.80075178e-13
7.811838102e-13
1.682868703e-12
3.419228065e-13
3.418959472e-13
3.418512412e-13
3.418297454e-13
3.418311775e-13
3.418273048e-13
3.418264717e-13
3.418261893e-13
3.418641776e-13
3.418791731e-13
3.418498693e-13
3.418289821e-13
3.418119894e-13
3.418038477e-13
3.418248713e-13
3.418363059e-13
3.418337005e-13
3.418272234e-13
3.418163678e-13
3.418316018e-13
3.418281642e-13
3.418130387e-13
3.418207254e-13
3.417861169e-13
3.417861169e-13
3.417861169e-13
3.417861169e-13
3.417861169e-13
3.417861169e-13
3.417861169e-13
3.417861169e-13
3.417861169e-13
3.417861169e-13
3.417861169e-13
3.417861169e-13
3.417861169e-13
3.652714543e-13
4.939168701e-13
8.258576207e-13
1.785525717e-12
3.419526036e-13
3.419265764e-13
3.418821669e-13
3.418674451e-13
3.418393128e-13
3.418321325e-13
3.418409684e-13
3.418413081e-13
3.418693232e-13
3.418967523e-13
3.418834066e-13
3.418495141e-13
3.418210357e-13
3.418132197e-13
3.418312761e-13
3.418405034e-13
3.41846872e-13
3.418424574e-13
3.418220489e-13
3.418389836e-13
3.41835944e-13
3.418161145e-13
3.418056792e-13
3.417861169e-13
3.417861169e-13
3.417861169e-13
3.417861169e-13
3.417861169e-13
3.417861169e-13
3.417861169e-13
3.417861169e-13
3.417861169e-13
3.417861169e-13
3.417861169e-13
3.417861169e-13
3.417861169e-13
3.721079095e-13
5.095161211e-13
8.730397503e-13
1.89668073e-12
3.41970068e-13
3.419493095e-13
3.419182744e-13
3.418820216e-13
3.418572403e-13
3.418422578e-13
3.418540756e-13
3.418668196e-13
3.418906587e-13
3.419115379e-13
3.419026648e-13
3.418527995e-13
3.418370658e-13
3.418230982e-13
3.418406481e-13
3.418469443e-13
3.418606224e-13
3.418500563e-13
3.418318551e-13
3.418435067e-13
3.418359802e-13
3.418144138e-13
3.417861169e-13
3.417861169e-13
3.417861169e-13
3.417861169e-13
3.417861169e-13
3.417861169e-13
3.417861169e-13
3.417861169e-13
3.417861169e-13
3.417861169e-13
3.417861169e-13
3.417861169e-13
3.417861169e-13
3.423587009e-13
3.792527894e-13
5.268652881e-13
9.231104355e-13
2.01673452e-12
3.419715013e-13
3.419595943e-13
3.419281538e-13
3.419146261e-13
3.418722795e-13
3.418590559e-13
3.418647507e-13
3.418640406e-13
3.418882342e-13
3.419212502e-13
3.419169872e-13
3.418639591e-13
3.418418784e-13
3.418348223e-13
3.418467634e-13
3.418588855e-13
3.418715141e-13
3.41855665e-13
3.418407205e-13
3.418401415e-13
3.418295754e-13
3.418080452e-13
3.417861169e-13
3.417861169e-13
3.417861169e-13
3.417861169e-13
3.417861169e-13
3.417861169e-13
3.417861169e-13
3.417861169e-13
3.417861169e-13
3.417861169e-13
3.417861169e-13
3.417861169e-13
3.417861169e-13
3.437196228e-13
3.868159613e-13
5.459833193e-13
9.764292131e-13
2.146137384e-12
3.419778706e-13
3.419627432e-13
3.419328297e-13
3.419333567e-13
3.418946576e-13
3.418870138e-13
3.41879768e-13
3.418691936e-13
3.418931847e-13
3.419289143e-13
3.419270252e-13
3.418878493e-13
3.418534577e-13
3.418529873e-13
3.418608033e-13
3.418616356e-13
3.41878317e-13
3.41868945e-13
3.418482832e-13
3.418436877e-13
3.41828128e-13
3.417917256e-13
3.417861169e-13
3.417861169e-13
3.417861169e-13
3.417861169e-13
3.417861169e-13
3.417861169e-13
3.417861169e-13
3.417861169e-13
3.417861169e-13
3.417861169e-13
3.417861169e-13
3.417861169e-13
3.417861169e-13
3.454197004e-13
3.948883444e-13
5.668960095e-13
1.033348455e-12
2.285406971e-12
3.419958634e-13
3.419721668e-13
3.419458286e-13
3.419449369e-13
3.419066429e-13
3.418877667e-13
3.418850156e-13
3.418751283e-13
3.419019996e-13
3.419438956e-13
3.419333793e-13
3.418917572e-13
3.418702115e-13
3.418614908e-13
3.418676061e-13
3.418667739e-13
3.418778827e-13
3.418723464e-13
3.418618527e-13
3.418523359e-13
3.418233515e-13
3.417861169e-13
3.417861169e-13
3.417861169e-13
3.417861169e-13
3.417861169e-13
3.417861169e-13
3.417861169e-13
3.417861169e-13
3.417861169e-13
3.417861169e-13
3.417861169e-13
3.417861169e-13
3.417861169e-13
3.417861169e-13
3.47478678e-13
4.035560811e-13
5.896863165e-13
1.094213845e-12
2.435108064e-12
3.420288015e-13
3.419982798e-13
3.419675556e-13
3.41947304e-13
3.419335804e-13
3.419000125e-13
3.418968848e-13
3.418850219e-13
3.419235234e-13
3.419565827e-13
3.419354274e-13
3.419057395e-13
3.418771229e-13
3.418650732e-13
3.41867389e-13
3.418722017e-13
3.418803795e-13
3.418737214e-13
3.418653988e-13
3.418597901e-13
3.418237134e-13
3.417861169e-13
3.417861169e-13
3.417861169e-13
3.417861169e-13
3.417861169e-13
3.417861169e-13
3.417861169e-13
3.417861169e-13
3.417861169e-13
3.417861169e-13
3.417861169e-13
3.417861169e-13
3.417861169e-13
3.417861169e-13
3.498849319e-13
4.128999e-13
6.144583756e-13
1.159386989e-12
2.59585783e-12
3.420585407e-13
3.420314998e-13
3.420036921e-13
3.41969675e-13
3.419456672e-13
3.419154139e-13
3.419121631e-13
3.418978538e-13
3.419231689e-13
3.419702177e-13
3.419585867e-13
3.419411442e-13
3.419017366e-13
3.418770505e-13
3.418747346e-13
3.418761459e-13
3.418820441e-13
3.418779189e-13
3.418770867e-13
3.418661587e-13
3.418161145e-13
3.417861169e-13
3.417861169e-13
3.417861169e-13
3.417861169e-13
3.417861169e-13
3.417861169e-13
3.417861169e-13
3.417861169e-13
3.417861169e-13
3.417861169e-13
3.417861169e-13
3.417861169e-13
3.417861169e-13
3.417861169e-13
3.526656901e-13
4.230054658e-13
6.41307405e-13
1.229222331e-12
2.76834302e-12
3.420718219e-13
3.420492319e-13
3.420103002e-13
3.420088437e-13
3.419841773e-13
3.41937336e-13
3.419373273e-13
3.419155202e-13
3.419336341e-13
3.419857271e-13
3.419862185e-13
3.419656278e-13
3.419104284e-13
3.418855178e-13
3.418918864e-13
3.418844323e-13
3.418908733e-13
3.418888469e-13
3.418804157e-13
3.418693792e-13
3.418164402e-13
3.417861169e-13
3.417861169e-13
3.417861169e-13
3.417861169e-13
3.417861169e-13
3.417861169e-13
3.417861169e-13
3.417861169e-13
3.417861169e-13
3.417861169e-13
3.417861169e-13
3.417861169e-13
3.417861169e-13
3.417861169e-13
3.558418115e-13
4.339480933e-13
6.703743215e-13
1.304088163e-12
2.953280637e-12
3.420818894e-13
3.420513312e-13
3.420218081e-13
3.420314172e-13
3.420077278e-13
3.419580856e-13
3.419593e-13
3.419333386e-13
3.419525165e-13
3.419998904e-13
3.420090014e-13
3.419818898e-13
3.419371482e-13
3.418987978e-13
3.419032848e-13
3.418952879e-13
3.418927549e-13
3.418911627e-13
3.418830572e-13
3.418690897e-13
3.418090222e-13
3.417861169e-13
3.417861169e-13
3.417861169e-13
3.417861169e-13
3.417861169e-13
3.417861169e-13
3.417861169e-13
3.417861169e-13
3.417861169e-13
3.417861169e-13
3.417861169e-13
3.417861169e-13
3.417861169e-13
3.417861169e-13
3.594359064e-13
4.458132879e-13
7.01790966e-13
1.384373799e-12
3.151458065e-12
3.420865361e-13
3.42063968e-13
3.42032621e-13
3.420440033e-13
3.420216961e-13
3.419757232e-13
3.419688608e-13
3.41953198e-13
3.419703347e-13
3.420192649e-13
3.420231286e-13
3.419828161e-13
3.419551978e-13
3.419167819e-13
3.419047684e-13
3.419021992e-13
3.419036467e-13
3.418977123e-13
3.418881955e-13
3.418611651e-13
3.417921598e-13
3.417861169e-13
3.417861169e-13
3.417861169e-13
3.417861169e-13
3.417861169e-13
3.417861169e-13
3.417861169e-13
3.417861169e-13
3.417861169e-13
3.417861169e-13
3.417861169e-13
3.417861169e-13
3.417861169e-13
3.417861169e-13
3.634699484e-13
4.586738169e-13
7.35716248e-13
1.47048304e-12
3.363717619e-12
3.42098138e-13
3.420652205e-13
3.420373113e-13
3.420448216e-13
3.420195543e-13
3.419967696e-13
3.420002636e-13
3.419819736e-13
3.419921698e-13
3.420346154e-13
3.420307567e-13
3.419920724e-13
3.419648087e-13
3.419223183e-13
3.419105219e-13
3.419078441e-13
3.419082784e-13
3.418939852e-13
3.418819355e-13
3.418419508e-13
3.417861169e-13
3.417861169e-13
3.417861169e-13
3.417861169e-13
3.417861169e-13
3.417861169e-13
3.417861169e-13
3.417861169e-13
3.417861169e-13
3.417861169e-13
3.417861169e-13
3.417861169e-13
3.417861169e-13
3.417861169e-13
3.417861169e-13
3.679721208e-13
4.726190073e-13
7.723164015e-13
1.5628423e-12
3.590965785e-12
3.421085819e-13
3.420766993e-13
3.420435141e-13
3.420330976e-13
3.420374163e-13
3.420243005e-13
3.420204631e-13
3.420227705e-13
3.420231093e-13
3.420521297e-13
3.420256182e-13
3.4200515e-13
3.419607845e-13
3.419365753e-13
3.419268414e-13
3.419163839e-13
3.419155154e-13
3.41892393e-13
3.418811032e-13
3.418211804e-13
3.417861169e-13
3.417861169e-13
3.417861169e-13
3.417861169e-13
3.417861169e-13
3.417861169e-13
3.417861169e-13
3.417861169e-13
3.417861169e-13
3.417861169e-13
3.417861169e-13
3.417861169e-13
3.417861169e-13
3.417861169e-13
3.417861169e-13
3.729843005e-13
4.877375489e-13
8.117834557e-13
1.661886749e-12
3.83415793e-12
3.421174409e-13
3.420880841e-13
3.420604354e-13
3.420360944e-13
3.420344061e-13
3.420216449e-13
3.420287936e-13
3.420389242e-13
3.420654621e-13
3.42072025e-13
3.420336877e-13
3.420151519e-13
3.419679204e-13
3.419384931e-13
3.41930858e-13
3.419278908e-13
3.419158411e-13
3.418934062e-13
3.418757116e-13
3.41802545e-13
3.417861169e-13
3.417861169e-13
3.417861169e-13
3.417861169e-13
3.417861169e-13
3.417861169e-13
3.417861169e-13
3.417861169e-13
3.417861169e-13
3.417861169e-13
3.417861169e-13
3.417861169e-13
3.417861169e-13
3.417861169e-13
3.417861169e-13
3.785407217e-13
5.041316663e-13
8.543052995e-13
1.768091522e-12
4.094322987e-12
3.421258511e-13
3.42105201e-13
3.420914551e-13
3.420451777e-13
3.420287469e-13
3.42025546e-13
3.420535092e-13
3.420711086e-13
3.420943823e-13
3.420940336e-13
3.420569267e-13
3.420153328e-13
3.419884671e-13
3.419481545e-13
3.419397957e-13
3.41930279e-13
3.419231867e-13
3.419001005e-13
3.418739024e-13
3.417861169e-13
3.417861169e-13
3.417861169e-13
3.417861169e-13
3.417861169e-13
3.417861169e-13
3.417861169e-13
3.417861169e-13
3.417861169e-13
3.417861169e-13
3.417861169e-13
3.417861169e-13
3.417861169e-13
3.417861169e-13
3.417861169e-13
3.417861169e-13
3.846846942e-13
5.218929154e-13
9.001043744e-13
1.881948794e-12
4.372563131e-12
3.421497423e-13
3.42128665e-13
3.421100556e-13
3.42063228e-13
3.420392631e-13
3.420381175e-13
3.420569833e-13
3.420769204e-13
3.421107748e-13
3.421055192e-13
3.420594669e-13
3.420214193e-13
3.420046206e-13
3.41952533e-13
3.419414964e-13
3.419338614e-13
3.419286507e-13
3.418968438e-13
3.418642409e-13
3.417861169e-13
3.417861169e-13
3.417861169e-13
3.417861169e-13
3.417861169e-13
3.417861169e-13
3.417861169e-13
3.417861169e-13
3.417861169e-13
3.417861169e-13
3.417861169e-13
3.417861169e-13
3.417861169e-13
3.417861169e-13
3.417861169e-13
3.425163366e-13
3.914544328e-13
5.411303676e-13
9.494096505e-13
2.003987521e-12
4.670035314e-12
3.421704419e-13
3.421570359e-13
3.421334398e-13
3.420869234e-13
3.42059709e-13
3.420572967e-13
3.42082401e-13
3.420989943e-13
3.421187576e-13
3.421227367e-13
3.420751863e-13
3.420361472e-13
3.420207813e-13
3.41965234e-13
3.419494572e-13
3.419438847e-13
3.41934187e-13
3.418994854e-13
3.418495135e-13
3.417861169e-13
3.417861169e-13
3.417861169e-13
3.417861169e-13
3.417861169e-13
3.417861169e-13
3.417861169e-13
3.417861169e-13
3.417861169e-13
3.417861169e-13
3.417861169e-13
3.417861169e-13
3.417861169e-13
3.417861169e-13
3.417861169e-13
3.445503154e-13
3.988988206e-13
5.619583485e-13
1.002464269e-12
2.134762134e-12
4.987989475e-12
3.421911487e-13
3.421748042e-13
3.421401422e-13
3.421275252e-13
3.420873052e-13
3.4208959e-13
3.420868016e-13
3.420909611e-13
3.421104277e-13
3.421358073e-13
3.42106227e-13
3.420591977e-13
3.420309784e-13
3.419765238e-13
3.419577436e-13
3.419478651e-13
3.419340785e-13
3.418917417e-13
3.418292859e-13
3.417861169e-13
3.417861169e-13
3.417861169e-13
3.417861169e-13
3.417861169e-13
3.417861169e-13
3.417861169e-13
3.417861169e-13
3.417861169e-13
3.417861169e-13
3.417861169e-13
3.417861169e-13
3.417861169e-13
3.417861169e-13
3.417861169e-13
3.468924004e-13
4.070648298e-13
5.844857701e-13
1.059526975e-12
2.274861936e-12
5.32774036e-12
3.42211081e-13
3.421847055e-13
3.421555727e-13
3.42155534e-13
3.421141342e-13
3.420972835e-13
3.420998071e-13
3.420943918e-13
3.421176434e-13
3.421455415e-13
3.421245446e-13
3.420587923e-13
3.420323966e-13
3.419764152e-13
3.419640761e-13
3.419448979e-13
3.419238019e-13
3.418814651e-13
3.418143052e-13
3.417861169e-13
3.417861169e-13
3.417861169e-13
3.417861169e-13
3.417861169e-13
3.417861169e-13
3.417861169e-13
3.417861169e-13
3.417861169e-13
3.417861169e-13
3.417861169e-13
3.417861169e-13
3.417861169e-13
3.417861169e-13
3.417861169e-13
3.49565202e-13
4.160126487e-13
6.088487723e-13
1.120878806e-12
2.424915719e-12
5.690701755e-12
3.422158435e-13
3.421999404e-13
3.421781827e-13
3.421783102e-13
3.421527963e-13
3.421135896e-13
3.421104682e-13
3.42106833e-13
3.421410201e-13
3.421564336e-13
3.421334536e-13
3.420624254e-13
3.420213523e-13
3.419732309e-13
3.419628458e-13
3.419427267e-13
3.419217031e-13
3.418703924e-13
3.417959231e-13
3.417861169e-13
3.417861169e-13
3.417861169e-13
3.417861169e-13
3.417861169e-13
3.417861169e-13
3.417861169e-13
3.417861169e-13
3.417861169e-13
3.417861169e-13
3.417861169e-13
3.417861169e-13
3.417861169e-13
3.417861169e-13
3.417861169e-13
3.525945152e-13
4.258056498e-13
6.35179196e-13
1.186806055e-12
2.585592081e-12
6.078363238e-12
3.422284731e-13
3.422013014e-13
3.421893789e-13
3.421867927e-13
3.421698477e-13
3.421333261e-13
3.421228153e-13
3.421243547e-13
3.421468679e-13
3.421600883e-13
3.421351181e-13
3.420693514e-13
3.420280177e-13
3.419742803e-13
3.419689973e-13
3.419455854e-13
3.419204728e-13
3.418574381e-13
3.417861169e-13
3.417861169e-13
3.417861169e-13
3.417861169e-13
3.417861169e-13
3.417861169e-13
3.417861169e-13
3.417861169e-13
3.417861169e-13
3.417861169e-13
3.417861169e-13
3.417861169e-13
3.417861169e-13
3.417861169e-13
3.417861169e-13
3.417861169e-13
3.560016764e-13
4.365052953e-13
6.636133404e-13
1.25762861e-12
2.757592581e-12
6.492303714e-12
3.42230688e-13
3.422077719e-13
3.421939098e-13
3.421705671e-13
3.421733366e-13
3.421571589e-13
3.421486094e-13
3.421573209e-13
3.421758824e-13
3.421646624e-13
3.42126969e-13
3.420835147e-13
3.420266643e-13
3.419760534e-13
3.419740632e-13
3.419529672e-13
3.419157687e-13
3.418464377e-13
3.417861169e-13
3.417861169e-13
3.417861169e-13
3.417861169e-13
3.417861169e-13
3.417861169e-13
3.417861169e-13
3.417861169e-13
3.417861169e-13
3.417861169e-13
3.417861169e-13
3.417861169e-13
3.417861169e-13
3.417861169e-13
3.417861169e-13
3.417861169e-13
3.598206013e-13
4.481768687e-13
6.943090004e-13
1.333694703e-12
2.9416718e-12
6.934213866e-12
3.422393442e-13
3.422085252e-13
3.421810932e-13
3.421620928e-13
3.421560616e-13
3.42149466e-13
3.42150202e-13
3.421595141e-13
3.421949022e-13
3.421836245e-13
3.421309931e-13
3.420880235e-13
3.420426225e-13
3.419773199e-13
3.419677308e-13
3.419552107e-13
3.419075909e-13
3.418317465e-13
3.417861169e-13
3.417861169e-13
3.417861169e-13
3.417861169e-13
3.417861169e-13
3.417861169e-13
3.417861169e-13
3.417861169e-13
3.417861169e-13
3.417861169e-13
3.417861169e-13
3.417861169e-13
3.417861169e-13
3.417861169e-13
3.417861169e-13
3.417861169e-13
3.640850463e-13
4.60899347e-13
7.274257225e-13
1.415342375e-12
3.138619669e-12
7.405879756e-12
3.422443746e-13
3.422151623e-13
3.421859718e-13
3.42168426e-13
3.421590513e-13
3.421550827e-13
3.421647566e-13
3.421674102e-13
3.422084724e-13
3.421977953e-13
3.421492673e-13
3.421124929e-13
3.42055599e-13
3.419802871e-13
3.419662472e-13
3.4195e-13
3.418997025e-13
3.418203482e-13
3.417861169e-13
3.417861169e-13
3.417861169e-13
3.417861169e-13
3.417861169e-13
3.417861169e-13
3.417861169e-13
3.417861169e-13
3.417861169e-13
3.417861169e-13
3.417861169e-13
3.417861169e-13
3.417861169e-13
3.417861169e-13
3.417861169e-13
3.417861169e-13
3.688340221e-13
4.747482044e-13
7.631354729e-13
1.50295473e-12
3.349288057e-12
7.909200813e-12
3.422650958e-13
3.422353842e-13
3.422087049e-13
3.421944883e-13
3.421862136e-13
3.421767228e-13
3.421787612e-13
3.421794245e-13
3.422194444e-13
3.422081738e-13
3.421549922e-13
3.421225383e-13
3.420585011e-13
3.419815535e-13
3.419658853e-13
3.419526053e-13
3.418928273e-13
3.418006634e-13
3.417861169e-13
3.417861169e-13
3.417861169e-13
3.417861169e-13
3.417861169e-13
3.417861169e-13
3.417861169e-13
3.417861169e-13
3.417861169e-13
3.417861169e-13
3.417861169e-13
3.417861169e-13
3.417861169e-13
3.417861169e-13
3.417861169e-13
3.417861169e-13
3.740998521e-13
4.897984372e-13
8.016235932e-13
1.596949898e-12
3.574572623e-12
8.446201304e-12
3.422826471e-13
3.422626913e-13
3.42244487e-13
3.422452877e-13
3.422172477e-13
3.422109702e-13
3.422094985e-13
3.421937186e-13
3.422259366e-13
3.422201228e-13
3.421693295e-13
3.421185724e-13
3.42046451e-13
3.419838694e-13
3.419698295e-13
3.419521349e-13
3.418927549e-13
3.41791798e-13
3.417861169e-13
3.417861169e-13
3.417861169e-13
3.417861169e-13
3.417861169e-13
3.417861169e-13
3.417861169e-13
3.417861169e-13
3.417861169e-13
3.417861169e-13
3.417861169e-13
3.417861169e-13
3.417861169e-13
3.417861169e-13
3.417861169e-13
3.417861169e-13
3.799193179e-13
5.06138417e-13
8.430881629e-13
1.697749517e-12
3.815433352e-12
9.019012974e-12
3.423053515e-13
3.422857937e-13
3.422843435e-13
3.422848329e-13
3.422623874e-13
3.422238243e-13
3.422169462e-13
3.422072382e-13
3.422196549e-13
3.422257173e-13
3.421931838e-13
3.421323162e-13
3.420479129e-13
3.419829286e-13
3.419645465e-13
3.419468881e-13
3.418858797e-13
3.417861169e-13
3.417861169e-13
3.417861169e-13
3.417861169e-13
3.417861169e-13
3.417861169e-13
3.417861169e-13
3.417861169e-13
3.417861169e-13
3.417861169e-13
3.417861169e-13
3.417861169e-13
3.417861169e-13
3.417861169e-13
3.417861169e-13
3.417861169e-13
3.417861169e-13
3.863420987e-13
5.238748266e-13
8.877476429e-13
1.805818532e-12
4.072877679e-12
9.629927433e-12
3.423379278e-13
3.423113787e-13
3.422976611e-13
3.423114525e-13
3.422863942e-13
3.422387627e-13
3.422279763e-13
3.422322869e-13
3.422301566e-13
3.422394252e-13
3.422098659e-13
3.421316142e-13
3.420668095e-13
3.41984774e-13
3.419612898e-13
3.419327034e-13
3.418729615e-13
3.417861169e-13
3.417861169e-13
3.417861169e-13
3.417861169e-13
3.417861169e-13
3.417861169e-13
3.417861169e-13
3.417861169e-13
3.417861169e-13
3.417861169e-13
3.417861169e-13
3.417861169e-13
3.417861169e-13
3.417861169e-13
3.417861169e-13
3.417861169e-13
3.417861169e-13
3.934025877e-13
5.431022474e-13
9.358139657e-13
1.921642271e-12
4.347991699e-12
1.028134074e-11
3.423644683e-13
3.423343582e-13
3.423166455e-13
3.423276939e-13
3.422962885e-13
3.42257508e-13
3.42240425e-13
3.422381569e-13
3.422543368e-13
3.422520764e-13
3.422191515e-13
3.421384535e-13
3.420822323e-13
3.419900933e-13
3.419585397e-13
3.41920111e-13
3.418559545e-13
3.417861169e-13
3.417861169e-13
3.417861169e-13
3.417861169e-13
3.417861169e-13
3.417861169e-13
3.417861169e-13
3.417861169e-13
3.417861169e-13
3.417861169e-13
3.417861169e-13
3.417861169e-13
3.417861169e-13
3.417861169e-13
3.417861169e-13
3.417861169e-13
3.437992368e-13
4.011595401e-13
5.639294322e-13
9.875207188e-13
2.045743478e-12
4.64191867e-12
1.097581281e-11
3.423866229e-13
3.423575043e-13
3.423418974e-13
3.423403528e-13
3.423153088e-13
3.422881514e-13
3.422651773e-13
3.422560697e-13
3.4226156e-13
3.422646911e-13
3.422225964e-13
3.421539124e-13
3.420894551e-13
3.420008765e-13
3.419643294e-13
3.419138147e-13
3.418375362e-13
3.417861169e-13
3.417861169e-13
3.417861169e-13
3.417861169e-13
3.417861169e-13
3.417861169e-13
3.417861169e-13
3.417861169e-13
3.417861169e-13
3.417861169e-13
3.417861169e-13
3.417861169e-13
3.417861169e-13
3.417861169e-13
3.417861169e-13
3.417861169e-13
3.46478726e-13
4.096619981e-13
5.864764388e-13
1.043125533e-12
2.178671968e-12
4.955873182e-12
1.17160674e-11
3.424194744e-13
3.423936848e-13
3.423795831e-13
3.423347159e-13
3.423065452e-13
3.422886225e-13
3.422928243e-13
3.422875308e-13
3.422880561e-13
3.422730287e-13
3.422242756e-13
3.421464219e-13
3.420856844e-13
3.420022877e-13
3.419617602e-13
3.41901765e-13
3.418150651e-13
3.417861169e-13
3.417861169e-13
3.417861169e-13
3.417861169e-13
3.417861169e-13
3.417861169e-13
3.417861169e-13
3.417861169e-13
3.417861169e-13
3.417861169e-13
3.417861169e-13
3.417861169e-13
3.417861169e-13
3.417861169e-13
3.417861169e-13
3.417861169e-13
3.495046954e-13
4.189757229e-13
6.108661914e-13
1.102904988e-12
2.321011472e-12
5.291138296e-12
1.250497522e-11
3.424634427e-13
3.42437298e-13
3.424039522e-13
3.423448708e-13
3.423128136e-13
3.42297033e-13
3.422997366e-13
3.422929665e-13
3.42296915e-13
3.422777765e-13
3.422134127e-13
3.421422679e-13
3.420631186e-13
3.419904189e-13
3.419473946e-13
3.418839257e-13
3.41786913e-13
3.417861169e-13
3.417861169e-13
3.417861169e-13
3.417861169e-13
3.417861169e-13
3.417861169e-13
3.417861169e-13
3.417861169e-13
3.417861169e-13
3.417861169e-13
3.417861169e-13
3.417861169e-13
3.417861169e-13
3.417861169e-13
3.417861169e-13
3.417861169e-13
3.529070798e-13
4.291540559e-13
6.372246392e-13
1.167133114e-12
2.473374061e-12
5.649093243e-12
1.334558996e-11
3.424975536e-13
3.424617107e-13
3.424200419e-13
3.423631534e-13
3.423314868e-13
3.423159883e-13
3.423288385e-13
3.423134921e-13
3.422906987e-13
3.422828431e-13
3.422199845e-13
3.421545281e-13
3.420509385e-13
3.419855701e-13
3.419398319e-13
3.418655074e-13
3.417861169e-13
3.417861169e-13
3.417861169e-13
3.417861169e-13
3.417861169e-13
3.417861169e-13
3.417861169e-13
3.417861169e-13
3.417861169e-13
3.417861169e-13
3.417861169e-13
3.417861169e-13
3.417861169e-13
3.417861169e-13
3.417861169e-13
3.417861169e-13
3.417861169e-13
3.567048274e-13
4.402595737e-13
6.656985906e-13
1.236116904e-12
2.636428334e-12
6.031191458e-12
1.424115604e-11
3.425221906e-13
3.424791684e-13
3.424422474e-13
3.423915971e-13
3.423579184e-13
3.42345047e-13
3.423509275e-13
3.423100333e-13
3.422887452e-13
3.422818521e-13
3.422135653e-13
3.421554763e-13
3.420399741e-13
3.419682012e-13
3.419198215e-13
3.418421317e-13
3.417861169e-13
3.417861169e-13
3.417861169e-13
3.417861169e-13
3.417861169e-13
3.417861169e-13
3.417861169e-13
3.417861169e-13
3.417861169e-13
3.417861169e-13
3.417861169e-13
3.417861169e-13
3.417861169e-13
3.417861169e-13
3.417861169e-13
3.417861169e-13
3.417861169e-13
3.609358344e-13
4.523685464e-13
6.964374014e-13
1.310175132e-12
2.810884926e-12
6.438972994e-12
1.519510323e-11
3.425440123e-13
3.425050865e-13
3.424622524e-13
3.424370339e-13
3.423906609e-13
3.423812633e-13
3.423666982e-13
3.423179154e-13
3.422957442e-13
3.42288764e-13
3.422192977e-13
3.421524515e-13
3.420347345e-13
3.4195626e-13
3.419101962e-13
3.418193712e-13
3.417861169e-13
3.417861169e-13
3.417861169e-13
3.417861169e-13
3.417861169e-13
3.417861169e-13
3.417861169e-13
3.417861169e-13
3.417861169e-13
3.417861169e-13
3.417861169e-13
3.417861169e-13
3.417861169e-13
3.417861169e-13
3.417861169e-13
3.417861169e-13
3.417861169e-13
3.656247813e-13
4.655546968e-13
7.29590109e-13
1.389650297e-12
2.997474057e-12
6.87407583e-12
1.621107786e-11
3.425844921e-13
3.425498795e-13
3.425004447e-13
3.424658973e-13
3.424246047e-13
3.423939655e-13
3.423723585e-13
3.423319853e-13
3.423133097e-13
3.423014154e-13
3.422403008e-13
3.421405827e-13
3.42042819e-13
3.419506513e-13
3.418935148e-13
3.417871301e-13
3.417861169e-13
3.417861169e-13
3.417861169e-13
3.417861169e-13
3.417861169e-13
3.417861169e-13
3.417861169e-13
3.417861169e-13
3.417861169e-13
3.417861169e-13
3.417861169e-13
3.417861169e-13
3.417861169e-13
3.417861169e-13
3.417861169e-13
3.417861169e-13
3.417861169e-13
3.708146595e-13
4.798981164e-13
7.653452394e-13
1.474926457e-12
3.196999668e-12
7.338241124e-12
1.729295617e-11
3.426186247e-13
3.425853869e-13
3.425562818e-13
3.425222841e-13
3.424669583e-13
3.424167131e-13
3.423864357e-13
3.42357454e-13
3.423490769e-13
3.423134009e-13
3.422508458e-13
3.421355459e-13
3.420319489e-13
3.419336442e-13
3.418667739e-13
3.417861169e-13
3.417861169e-13
3.417861169e-13
3.417861169e-13
3.417861169e-13
3.417861169e-13
3.417861169e-13
3.417861169e-13
3.417861169e-13
3.417861169e-13
3.417861169e-13
3.417861169e-13
3.417861169e-13
3.417861169e-13
3.417861169e-13
3.417861169e-13
3.417861169e-13
3.417861169e-13
3.765487791e-13
4.954811262e-13
8.038682306e-13
1.566380028e-12
3.410311879e-12
7.833308438e-12
1.844480962e-11
3.42643783e-13
3.426208872e-13
3.425801516e-13
3.425637838e-13
3.425127639e-13
3.424504251e-13
3.424208279e-13
3.423956818e-13
3.423743066e-13
3.423199582e-13
3.422573452e-13
3.421350539e-13
3.420386436e-13
3.419233314e-13
3.418456779e-13
3.417861169e-13
3.417861169e-13
3.417861169e-13
3.417861169e-13
3.417861169e-13
3.417861169e-13
3.417861169e-13
3.417861169e-13
3.417861169e-13
3.417861169e-13
3.417861169e-13
3.417861169e-13
3.417861169e-13
3.417861169e-13
3.417861169e-13
3.417861169e-13
3.417861169e-13
3.417861169e-13
3.828707685e-13
5.123873208e-13
8.453657605e-13
1.664420863e-12
3.638301092e-12
8.361239778e-12
1.967098403e-11
3.426813172e-13
3.426555047e-13
3.426116134e-13
3.425934506e-13
3.425409179e-13
3.424885158e-13
3.424524629e-13
3.424089339e-13
3.423884269e-13
3.423385801e-13
3.422576927e-13
3.42141727e-13
3.420370154e-13
3.419210518e-13
3.418355098e-13
3.417861169e-13
3.417861169e-13
3.417861169e-13
3.417861169e-13
3.417861169e-13
3.417861169e-13
3.417861169e-13
3.417861169e-13
3.417861169e-13
3.417861169e-13
3.417861169e-13
3.417861169e-13
3.417861169e-13
3.417861169e-13
3.417861169e-13
3.417861169e-13
3.417861169e-13
3.417861169e-13
3.898220271e-13
5.307147848e-13
8.900336796e-13
1.769492251e-12
3.881902294e-12
8.924105111e-12
2.097607599e-11
3.4272496e-13
3.426987492e-13
3.426517747e-13
3.42614107e-13
3.425428006e-13
3.424895443e-13
3.424681684e-13
3.424316668e-13
3.423865384e-13
3.423466574e-13
3.422549864e-13
3.421265071e-13
3.420223527e-13
3.419096534e-13
3.418173448e-13
3.417861169e-13
3.417861169e-13
3.417861169e-13
3.417861169e-13
3.417861169e-13
3.417861169e-13
3.417861169e-13
3.417861169e-13
3.417861169e-13
3.417861169e-13
3.417861169e-13
3.417861169e-13
3.417861169e-13
3.417861169e-13
3.417861169e-13
3.417861169e-13
3.417861169e-13
3.417861169e-13
3.974592401e-13
5.505762516e-13
9.381017539e-13
1.882072514e-12
4.142132316e-12
9.524105125e-12
2.236496074e-11
3.427777147e-13
3.42739142e-13
3.426797407e-13
3.426239002e-13
3.425519785e-13
3.424981647e-13
3.424661427e-13
3.424330859e-13
3.423999641e-13
3.423499145e-13
3.422394048e-13
3.421119821e-13
3.419917031e-13
3.418824421e-13
3.417865873e-13
3.417861169e-13
3.417861169e-13
3.417861169e-13
3.417861169e-13
3.417861169e-13
3.417861169e-13
3.417861169e-13
3.417861169e-13
3.417861169e-13
3.417861169e-13
3.417861169e-13
3.417861169e-13
3.417861169e-13
3.417861169e-13
3.417861169e-13
3.417861169e-13
3.417861169e-13
3.444953817e-13
4.058362264e-13
5.720842954e-13
9.897892404e-13
2.002648732e-12
4.420071997e-12
1.016358e-11
2.384279106e-11
3.428214806e-13
3.427804975e-13
3.427293246e-13
3.426671079e-13
3.425711148e-13
3.425108453e-13
3.424827965e-13
3.42448719e-13
3.423975039e-13
3.423534467e-13
3.422430815e-13
3.421056136e-13
3.419771129e-13
3.418610204e-13
3.417861169e-13
3.417861169e-13
3.417861169e-13
3.417861169e-13
3.417861169e-13
3.417861169e-13
3.417861169e-13
3.417861169e-13
3.417861169e-13
3.417861169e-13
3.417861169e-13
3.417861169e-13
3.417861169e-13
3.417861169e-13
3.417861169e-13
3.417861169e-13
3.417861169e-13
3.417861169e-13
3.476138626e-13
4.15001073e-13
5.953518089e-13
1.04534756e-12
2.131750973e-12
4.716837207e-12
1.084499983e-11
2.541504981e-11
3.428455965e-13
3.428058798e-13
3.427576451e-13
3.426975706e-13
3.42594e-13
3.42526001e-13
3.4248905e-13
3.424467292e-13
3.424073036e-13
3.423602935e-13
3.422545675e-13
3.421064461e-13
3.419470133e-13
3.418359802e-13
3.417861169e-13
3.417861169e-13
3.417861169e-13
3.417861169e-13
3.417861169e-13
3.417861169e-13
3.417861169e-13
3.417861169e-13
3.417861169e-13
3.417861169e-13
3.417861169e-13
3.417861169e-13
3.417861169e-13
3.417861169e-13
3.417861169e-13