/*--------------------------------*- C++ -*----------------------------------*\
| =========                 |                                                 |
| \\      /  F ield         | OpenFOAM: The Open Source CFD Toolbox           |
|  \\    /   O peration     | Version:  v2006                                 |
|   \\  /    A nd           | Website:  www.openfoam.com                      |
|    \\/     M anipulation  |                                                 |
\*---------------------------------------------------------------------------*/
FoamFile
{
    version     2.0;
    format      ascii;
    class       volScalarField;
    location    "0.12";
    object      CH2(S);
}
// * * * * * * * * * * * * * * * * * * * * * * * * * * * * * * * * * * * * * //

dimensions      [0 0 0 0 0 0 0];


internalField   nonuniform List<scalar> 
168000
(
6.27916776e-28
1.209885979e-27
9.30070307e-30
2.754234906e-30
2.516181518e-30
2.516181518e-30
4.054047613e-28
1.369459577e-27
2.493339396e-27
5.028757565e-27
1.858681424e-27
2.002570203e-27
7.507378297e-28
1.690505937e-29
1.398237333e-27
3.644925731e-27
2.809656656e-27
6.644045626e-28
3.542299159e-27
2.837125118e-27
1.472443229e-27
2.327382271e-28
8.884944861e-29
6.36340967e-28
2.516181518e-30
2.516181518e-30
2.516181518e-30
2.516181518e-30
2.516181518e-30
2.516181518e-30
2.516181518e-30
2.516181518e-30
2.516181518e-30
2.516181518e-30
2.516181518e-30
2.516181518e-30
2.638005238e-27
8.678333135e-26
2.660966886e-25
8.670849621e-25
2.56152834e-27
1.952897157e-27
1.989407883e-29
8.110436131e-30
3.468395069e-30
2.516181518e-30
5.214027577e-27
8.642627413e-27
1.176846568e-26
1.307821064e-26
9.503460523e-27
9.588960603e-27
6.894788671e-27
2.909069507e-27
6.017067122e-27
9.026723127e-27
9.039921738e-27
4.045790857e-27
8.1753988e-27
8.881763108e-27
7.343462472e-27
2.247181126e-27
5.433193492e-27
2.516181518e-30
2.516181518e-30
2.516181518e-30
2.516181518e-30
2.516181518e-30
2.516181518e-30
2.516181518e-30
2.516181518e-30
2.516181518e-30
2.516181518e-30
2.516181518e-30
2.516181518e-30
2.516181518e-30
7.660455613e-27
9.436842645e-26
2.966472701e-25
9.318425062e-25
2.326095824e-27
1.006339265e-27
3.548657573e-29
1.953699874e-29
1.26334505e-29
1.160529958e-27
5.748558538e-27
9.418317523e-27
1.869427699e-26
1.981649044e-26
1.347574302e-26
1.416474279e-26
7.97395451e-27
4.448679437e-27
9.556731073e-27
1.524105198e-26
1.393094994e-26
8.765342792e-27
1.099561886e-26
1.331222819e-26
1.1686285e-26
5.427123131e-27
8.846095156e-27
2.516181518e-30
2.516181518e-30
2.516181518e-30
2.516181518e-30
2.516181518e-30
2.516181518e-30
2.516181518e-30
2.516181518e-30
2.516181518e-30
2.516181518e-30
2.516181518e-30
2.516181518e-30
2.516181518e-30
1.259125543e-26
1.033768427e-25
3.284626293e-25
1.0024933e-24
2.029179916e-27
4.177738052e-27
5.119809932e-29
3.512949565e-29
4.459643245e-27
7.343475824e-27
1.112001396e-26
1.176608515e-26
2.200574235e-26
2.63255004e-26
1.953917388e-26
1.647885256e-26
1.029056384e-26
7.053066328e-27
1.541300436e-26
1.995988976e-26
1.892389055e-26
1.634828142e-26
1.203161806e-26
1.808933564e-26
1.672239224e-26
1.07078413e-26
9.277404412e-27
2.516181518e-30
2.516181518e-30
2.516181518e-30
2.516181518e-30
2.516181518e-30
2.516181518e-30
2.516181518e-30
2.516181518e-30
2.516181518e-30
2.516181518e-30
2.516181518e-30
2.516181518e-30
2.516181518e-30
1.75583584e-26
1.137238332e-25
3.618573537e-25
1.079231833e-24
3.387103987e-27
6.498526673e-27
3.248279948e-27
5.420272991e-27
3.776356763e-27
6.67207866e-27
1.283990814e-26
1.512369281e-26
2.386226468e-26
3.160943229e-26
2.895687965e-26
2.236818856e-26
1.388778331e-26
1.077978569e-26
1.795983574e-26
2.162899959e-26
2.416144209e-26
2.240599899e-26
1.429067189e-26
2.102466672e-26
1.981600098e-26
1.193089592e-26
5.316654149e-27
2.516181518e-30
2.516181518e-30
2.516181518e-30
2.516181518e-30
2.516181518e-30
2.516181518e-30
2.516181518e-30
2.516181518e-30
2.516181518e-30
2.516181518e-30
2.516181518e-30
2.516181518e-30
2.516181518e-30
2.26687695e-26
1.253846404e-25
3.971271056e-25
1.162322821e-24
3.443244531e-27
8.080959508e-27
8.632233177e-27
6.03436605e-27
4.52221123e-27
7.096140639e-27
1.343854108e-26
2.0528449e-26
2.893357712e-26
3.565615874e-26
3.484526344e-26
2.481215531e-26
2.026205619e-26
1.470794934e-26
2.16865551e-26
2.419021985e-26
2.962921567e-26
2.542766334e-26
1.819005778e-26
2.282327645e-26
1.983038986e-26
1.125461866e-26
2.516181518e-30
2.516181518e-30
2.516181518e-30
2.516181518e-30
2.516181518e-30
2.516181518e-30
2.516181518e-30
2.516181518e-30
2.516181518e-30
2.516181518e-30
2.516181518e-30
2.516181518e-30
2.516181518e-30
4.305361728e-28
2.800973531e-26
1.383535509e-25
4.345561207e-25
1.252065853e-24
2.180475054e-27
7.557259977e-27
8.768874679e-27
1.141570069e-26
7.089858928e-27
9.478399299e-27
1.547153879e-26
1.954976725e-26
2.828548248e-26
3.882302116e-26
3.883419632e-26
2.855457285e-26
2.217577695e-26
1.936994577e-26
2.411827546e-26
2.893854954e-26
3.396026791e-26
2.765793941e-26
2.171533286e-26
2.148511081e-26
1.728355848e-26
8.722176158e-27
2.516181518e-30
2.516181518e-30
2.516181518e-30
2.516181518e-30
2.516181518e-30
2.516181518e-30
2.516181518e-30
2.516181518e-30
2.516181518e-30
2.516181518e-30
2.516181518e-30
2.516181518e-30
2.516181518e-30
1.447857325e-27
3.366338424e-26
1.52644729e-25
4.744131614e-25
1.348797538e-24
1.237355584e-27
5.017570199e-27
6.646819439e-27
1.355525286e-26
1.086938609e-26
1.497115514e-26
1.923120184e-26
2.027171071e-26
2.886365618e-26
4.142824124e-26
4.181459846e-26
3.502089228e-26
2.678021786e-26
2.659316245e-26
2.970116006e-26
3.003210425e-26
3.666537694e-26
3.293865758e-26
2.472260833e-26
2.289522084e-26
1.670800336e-26
2.232792248e-27
2.516181518e-30
2.516181518e-30
2.516181518e-30
2.516181518e-30
2.516181518e-30
2.516181518e-30
2.516181518e-30
2.516181518e-30
2.516181518e-30
2.516181518e-30
2.516181518e-30
2.516181518e-30
2.516181518e-30
2.718705336e-27
3.969768054e-26
1.682774569e-25
5.169616336e-25
1.452904831e-24
1.2508056e-27
3.961839267e-27
6.254405208e-27
1.373625126e-26
1.196984435e-26
1.388021901e-26
1.784202716e-26
2.105168578e-26
3.116813815e-26
4.454159506e-26
4.440447745e-26
3.689085127e-26
3.34422683e-26
2.997454874e-26
3.24062691e-26
3.207532491e-26
3.649271041e-26
3.42912121e-26
3.011843752e-26
2.633416265e-26
1.480867149e-26
2.516181518e-30
2.516181518e-30
2.516181518e-30
2.516181518e-30
2.516181518e-30
2.516181518e-30
2.516181518e-30
2.516181518e-30
2.516181518e-30
2.516181518e-30
2.516181518e-30
2.516181518e-30
2.516181518e-30
2.516181518e-30
4.257839515e-27
4.617701765e-26
1.853137476e-25
5.624599445e-25
1.56480992e-24
3.099379839e-27
5.87712072e-27
8.19513167e-27
1.177045022e-26
1.661448958e-26
1.521066126e-26
2.066581802e-26
2.271069169e-26
3.612469665e-26
4.712184623e-26
4.528207997e-26
4.080772074e-26
3.619054397e-26
3.139904765e-26
3.231993583e-26
3.423365658e-26
3.748554298e-26
3.483798945e-26
3.152854755e-26
2.929827148e-26
1.495256027e-26
2.516181518e-30
2.516181518e-30
2.516181518e-30
2.516181518e-30
2.516181518e-30
2.516181518e-30
2.516181518e-30
2.516181518e-30
2.516181518e-30
2.516181518e-30
2.516181518e-30
2.516181518e-30
2.516181518e-30
2.516181518e-30
6.056570913e-27
5.31617421e-26
2.038314445e-25
6.111784035e-25
1.684974152e-24
4.37108967e-27
9.923265389e-27
1.346421193e-26
1.415687482e-26
1.699693228e-26
1.69743172e-26
2.244374381e-26
2.471657802e-26
3.547814936e-26
5.052143026e-26
5.101539982e-26
4.976724393e-26
4.326060114e-26
3.616176622e-26
3.524087803e-26
3.580204427e-26
3.814743136e-26
3.650709928e-26
3.617615509e-26
3.183071398e-26
1.193089592e-26
2.516181518e-30
2.516181518e-30
2.516181518e-30
2.516181518e-30
2.516181518e-30
2.516181518e-30
2.516181518e-30
2.516181518e-30
2.516181518e-30
2.516181518e-30
2.516181518e-30
2.516181518e-30
2.516181518e-30
2.516181518e-30
8.135253095e-27
6.071589026e-26
2.239017256e-25
6.633819641e-25
1.813910889e-24
3.964524615e-27
1.033865177e-26
1.236329091e-26
2.113727933e-26
2.390503532e-26
2.050935247e-26
2.764717474e-26
2.776012993e-26
3.723811547e-26
5.453997409e-26
5.859037701e-26
5.640634892e-26
4.65272335e-26
3.952876363e-26
4.206120613e-26
3.90970973e-26
4.165831755e-26
4.08525404e-26
3.749993186e-26
3.311132411e-26
1.206039582e-26
2.516181518e-30
2.516181518e-30
2.516181518e-30
2.516181518e-30
2.516181518e-30
2.516181518e-30
2.516181518e-30
2.516181518e-30
2.516181518e-30
2.516181518e-30
2.516181518e-30
2.516181518e-30
2.516181518e-30
2.516181518e-30
1.050947856e-26
6.889576174e-26
2.456299296e-25
7.19345935e-25
1.952156109e-24
3.986412174e-27
8.645525253e-27
1.251551156e-26
2.429939403e-26
2.77716099e-26
2.39573403e-26
3.11391624e-26
3.09904992e-26
4.051236553e-26
5.852878795e-26
6.423724457e-26
6.12297177e-26
5.392918707e-26
4.48094818e-26
4.659370266e-26
4.341376065e-26
4.24065392e-26
4.177342858e-26
3.855031994e-26
3.299621309e-26
9.11067586e-27
2.516181518e-30
2.516181518e-30
2.516181518e-30
2.516181518e-30
2.516181518e-30
2.516181518e-30
2.516181518e-30
2.516181518e-30
2.516181518e-30
2.516181518e-30
2.516181518e-30
2.516181518e-30
2.516181518e-30
2.516181518e-30
1.319614909e-26
7.776527389e-26
2.691146104e-25
7.793613365e-25
2.100298399e-24
3.24307062e-27
9.057102782e-27
1.289700204e-26
2.506997935e-26
2.921823442e-26
2.648384482e-26
3.19074862e-26
3.465324896e-26
4.437465516e-26
6.17459586e-26
6.75797492e-26
6.197722518e-26
5.90842142e-26
5.19607541e-26
4.718364665e-26
4.616203632e-26
4.673759144e-26
4.437781547e-26
4.059354059e-26
2.984504884e-26
2.405458782e-27
2.516181518e-30
2.516181518e-30
2.516181518e-30
2.516181518e-30
2.516181518e-30
2.516181518e-30
2.516181518e-30
2.516181518e-30
2.516181518e-30
2.516181518e-30
2.516181518e-30
2.516181518e-30
2.516181518e-30
2.516181518e-30
1.621169038e-26
8.73788219e-26
2.944745569e-25
8.437300204e-25
2.258967409e-24
3.495894386e-27
7.090468557e-27
1.166539085e-26
2.324663877e-26
2.666022789e-26
2.954428517e-26
3.826452693e-26
4.053438547e-26
4.888622969e-26
6.450054269e-26
6.953866004e-26
6.521555589e-26
6.265313201e-26
5.416225241e-26
4.947147823e-26
4.840670127e-26
4.85793678e-26
4.289576105e-26
3.810426473e-26
2.22045547e-26
2.516181518e-30
2.516181518e-30
2.516181518e-30
2.516181518e-30
2.516181518e-30
2.516181518e-30
2.516181518e-30
2.516181518e-30
2.516181518e-30
2.516181518e-30
2.516181518e-30
2.516181518e-30
2.516181518e-30
2.516181518e-30
2.516181518e-30
1.957717015e-26
9.780317975e-26
3.218340327e-25
9.1277074e-25
2.428840759e-24
3.604234239e-27
7.673522353e-27
1.059289051e-26
1.826868216e-26
2.877040716e-26
3.467767614e-26
4.19993401e-26
4.911017002e-26
5.550143702e-26
6.830515778e-26
6.844331992e-26
6.908866359e-26
6.28224658e-26
5.983147028e-26
5.596086214e-26
5.180247644e-26
5.145714337e-26
4.226265042e-26
3.777332054e-26
1.394533882e-26
2.516181518e-30
2.516181518e-30
2.516181518e-30
2.516181518e-30
2.516181518e-30
2.516181518e-30
2.516181518e-30
2.516181518e-30
2.516181518e-30
2.516181518e-30
2.516181518e-30
2.516181518e-30
2.516181518e-30
2.516181518e-30
2.516181518e-30
2.332389242e-26
1.091046453e-25
3.513365842e-25
9.868087954e-25
2.610632609e-24
3.208725314e-27
7.524052672e-27
1.201299878e-26
1.617409539e-26
2.555110738e-26
3.210492364e-26
4.196248189e-26
5.231057127e-26
6.50119035e-26
7.293017695e-26
7.038819896e-26
7.173871667e-26
6.483845604e-26
6.05940808e-26
5.755802758e-26
5.637813959e-26
5.158664327e-26
4.2665539e-26
3.562937774e-26
6.535066725e-27
2.516181518e-30
2.516181518e-30
2.516181518e-30
2.516181518e-30
2.516181518e-30
2.516181518e-30
2.516181518e-30
2.516181518e-30
2.516181518e-30
2.516181518e-30
2.516181518e-30
2.516181518e-30
2.516181518e-30
2.516181518e-30
2.516181518e-30
2.747744793e-26
1.213596337e-25
3.831226628e-25
1.066199362e-24
2.80511211e-24
2.69798634e-27
8.32674849e-27
1.625856428e-26
1.599418158e-26
2.241599838e-26
3.163389953e-26
4.673472259e-26
5.904160379e-26
7.158251588e-26
7.801635438e-26
7.596359824e-26
7.181066106e-26
6.972247502e-26
6.443591119e-26
6.111208041e-26
5.732780553e-26
5.450758547e-26
4.532748141e-26
3.490993384e-26
2.516181518e-30
2.516181518e-30
2.516181518e-30
2.516181518e-30
2.516181518e-30
2.516181518e-30
2.516181518e-30
2.516181518e-30
2.516181518e-30
2.516181518e-30
2.516181518e-30
2.516181518e-30
2.516181518e-30
2.516181518e-30
2.516181518e-30
2.516181518e-30
3.207021194e-26
1.346365853e-25
4.173585488e-25
1.151310352e-24
3.013103164e-24
3.792982729e-27
1.032622073e-26
1.733524391e-26
1.767364673e-26
2.286907617e-26
3.309384169e-26
4.653625397e-26
5.951988853e-26
7.525703594e-26
8.06244311e-26
7.678412136e-26
7.340937385e-26
7.418671698e-26
6.617696541e-26
6.178835767e-26
5.875230444e-26
5.668030603e-26
4.40324824e-26
3.106810346e-26
2.516181518e-30
2.516181518e-30
2.516181518e-30
2.516181518e-30
2.516181518e-30
2.516181518e-30
2.516181518e-30
2.516181518e-30
2.516181518e-30
2.516181518e-30
2.516181518e-30
2.516181518e-30
2.516181518e-30
2.516181518e-30
2.516181518e-30
5.483725997e-28
3.713075086e-26
1.490170334e-25
4.542154027e-25
1.242537171e-24
3.235470619e-24
4.124416379e-27
1.339213631e-26
2.012455709e-26
2.064989629e-26
2.531150893e-26
3.566458408e-26
5.089252651e-26
6.355770133e-26
7.691461353e-26
8.481659368e-26
8.044377643e-26
7.705392588e-26
7.909618097e-26
7.122746154e-26
6.495391079e-26
6.27380236e-26
5.888180434e-26
4.508287048e-26
2.521183017e-26
2.516181518e-30
2.516181518e-30
2.516181518e-30
2.516181518e-30
2.516181518e-30
2.516181518e-30
2.516181518e-30
2.516181518e-30
2.516181518e-30
2.516181518e-30
2.516181518e-30
2.516181518e-30
2.516181518e-30
2.516181518e-30
2.516181518e-30
2.068819588e-27
4.269560588e-26
1.645864391e-25
4.93874978e-25
1.340294271e-24
3.473148834e-24
4.585111876e-27
1.413787175e-26
1.849231883e-26
2.763137204e-26
2.971249545e-26
4.117494252e-26
5.049368484e-26
6.067933063e-26
7.410783014e-26
8.7612559e-26
8.792076909e-26
8.369195964e-26
8.27086225e-26
7.571679142e-26
6.824896382e-26
6.432080017e-26
5.883863771e-26
4.200365062e-26
1.716844746e-26
2.516181518e-30
2.516181518e-30
2.516181518e-30
2.516181518e-30
2.516181518e-30
2.516181518e-30
2.516181518e-30
2.516181518e-30
2.516181518e-30
2.516181518e-30
2.516181518e-30
2.516181518e-30
2.516181518e-30
2.516181518e-30
2.516181518e-30
3.819583228e-27
4.879988988e-26
1.814262167e-25
5.365306934e-25
1.445022169e-24
3.727120614e-24
5.432997781e-27
1.308249789e-26
1.919322126e-26
3.181723955e-26
3.399801387e-26
4.145356837e-26
5.307417407e-26
6.065317146e-26
7.501801927e-26
8.990336624e-26
9.248716151e-26
8.403634049e-26
8.434693112e-26
7.567362479e-26
7.076701744e-26
6.314091218e-26
5.47521964e-26
3.791720931e-26
1.121145203e-26
2.516181518e-30
2.516181518e-30
2.516181518e-30
2.516181518e-30
2.516181518e-30
2.516181518e-30
2.516181518e-30
2.516181518e-30
2.516181518e-30
2.516181518e-30
2.516181518e-30
2.516181518e-30
2.516181518e-30
2.516181518e-30
2.516181518e-30
5.817565312e-27
5.548859494e-26
1.996381341e-25
5.823926307e-25
1.557190902e-24
3.998442796e-24
4.546124529e-27
1.440081278e-26
2.110588413e-26
3.480716383e-26
4.109293427e-26
4.29450259e-26
5.263692683e-26
6.23140818e-26
7.957383167e-26
9.265461758e-26
9.489224659e-26
8.541779179e-26
8.267270314e-26
7.440740354e-26
7.02777956e-26
6.227757951e-26
5.391764148e-26
3.351421269e-26
3.901902079e-27
2.516181518e-30
2.516181518e-30
2.516181518e-30
2.516181518e-30
2.516181518e-30
2.516181518e-30
2.516181518e-30
2.516181518e-30
2.516181518e-30
2.516181518e-30
2.516181518e-30
2.516181518e-30
2.516181518e-30
2.516181518e-30
2.516181518e-30
8.082048163e-27
6.28090937e-26
2.193207453e-25
6.316748001e-25
1.677300263e-24
4.288228875e-24
5.144400389e-27
1.310926555e-26
2.359884982e-26
3.495712297e-26
4.325995489e-26
4.567416497e-26
5.419723405e-26
6.53000782e-26
8.038246547e-26
9.410789424e-26
9.555413498e-26
8.747671062e-26
8.513355833e-26
7.4824681e-26
7.272390483e-26
6.341430086e-26
5.342841964e-26
2.836299442e-26
2.516181518e-30
2.516181518e-30
2.516181518e-30
2.516181518e-30
2.516181518e-30
2.516181518e-30
2.516181518e-30
2.516181518e-30
2.516181518e-30
2.516181518e-30
2.516181518e-30
2.516181518e-30
2.516181518e-30
2.516181518e-30
2.516181518e-30
2.516181518e-30
1.062898136e-26
7.080733045e-26
2.405759371e-25
6.846163262e-25
1.805874683e-24
4.597659119e-24
4.25562271e-27
1.271197122e-26
2.268307979e-26
2.920026254e-26
4.174020907e-26
4.952658874e-26
5.832399871e-26
7.145722198e-26
8.642176062e-26
9.459961565e-26
9.313525615e-26
9.11495643e-26
8.497456652e-26
7.552973601e-26
7.473834773e-26
6.634963194e-26
5.155786552e-26
2.398877556e-26
2.516181518e-30
2.516181518e-30
2.516181518e-30
2.516181518e-30
2.516181518e-30
2.516181518e-30
2.516181518e-30
2.516181518e-30
2.516181518e-30
2.516181518e-30
2.516181518e-30
2.516181518e-30
2.516181518e-30
2.516181518e-30
2.516181518e-30
2.516181518e-30
1.348371759e-26
7.953210613e-26
2.635216651e-25
7.414775204e-25
1.94347823e-24
4.927997354e-24
4.348264392e-27
1.00412342e-26
1.651227464e-26
2.444016256e-26
3.5250111e-26
4.577240091e-26
5.674538808e-26
7.049661894e-26
8.962430434e-26
9.708402478e-26
9.359784272e-26
9.205772998e-26
8.879238021e-26
7.603334674e-26
7.222029411e-26
6.724174237e-26
4.830597912e-26
1.814689115e-26
2.516181518e-30
2.516181518e-30
2.516181518e-30
2.516181518e-30
2.516181518e-30
2.516181518e-30
2.516181518e-30
2.516181518e-30
2.516181518e-30
2.516181518e-30
2.516181518e-30
2.516181518e-30
2.516181518e-30
2.516181518e-30
2.516181518e-30
2.516181518e-30
1.66714905e-26
8.9042458e-26
2.88277194e-25
8.025110763e-25
2.090701395e-24
5.280578703e-24
3.18871662e-27
8.825440207e-27
1.453398916e-26
2.285073385e-26
3.271030219e-26
4.434041667e-26
5.823553631e-26
7.091901454e-26
9.154457156e-26
9.962229959e-26
9.738866407e-26
9.717447056e-26
9.180370259e-26
7.721323472e-26
7.163035011e-26
6.516974396e-26
4.516920375e-26
1.361439463e-26
2.516181518e-30
2.516181518e-30
2.516181518e-30
2.516181518e-30
2.516181518e-30
2.516181518e-30
2.516181518e-30
2.516181518e-30
2.516181518e-30
2.516181518e-30
2.516181518e-30
2.516181518e-30
2.516181518e-30
2.516181518e-30
2.516181518e-30
2.516181518e-30
2.022146165e-26
9.93948047e-26
3.149710726e-25
8.680033721e-25
2.248180972e-24
5.656823035e-24
3.907935812e-27
9.472476956e-27
1.611642199e-26
2.512502309e-26
3.535882128e-26
4.630980187e-26
5.938058953e-26
7.190459984e-26
9.287406161e-26
1.007790041e-25
9.789560754e-26
9.933625402e-26
9.276811449e-26
7.771684545e-26
7.148646134e-26
6.620574317e-26
4.243531696e-26
5.786845077e-27
2.516181518e-30
2.516181518e-30
2.516181518e-30
2.516181518e-30
2.516181518e-30
2.516181518e-30
2.516181518e-30
2.516181518e-30
2.516181518e-30
2.516181518e-30
2.516181518e-30
2.516181518e-30
2.516181518e-30
2.516181518e-30
2.516181518e-30
2.516181518e-30
2.415779344e-26
1.106452078e-25
3.43741848e-25
9.38266972e-25
2.416586485e-24
6.058243536e-24
3.935417626e-27
1.186259138e-26
1.979107442e-26
3.319125893e-26
3.986291049e-26
5.196523935e-26
6.427222622e-26
7.316476408e-26
9.286455282e-26
1.024969938e-25
1.00247303e-25
9.801200115e-26
8.987237924e-26
7.863773363e-26
7.305484902e-26
6.601868775e-26
4.24065392e-26
2.261570004e-27
2.516181518e-30
2.516181518e-30
2.516181518e-30
2.516181518e-30
2.516181518e-30
2.516181518e-30
2.516181518e-30
2.516181518e-30
2.516181518e-30
2.516181518e-30
2.516181518e-30
2.516181518e-30
2.516181518e-30
2.516181518e-30
2.516181518e-30
2.516181518e-30
2.850798105e-26
1.228597271e-25
3.747375893e-25
1.013617059e-24
2.596635546e-24
6.486433735e-24
4.052922535e-27
1.245433412e-26
2.57810269e-26
3.899427502e-26
4.700575859e-26
5.183122978e-26
6.331555106e-26
7.449615855e-26
8.967153124e-26
1.035208657e-25
1.051194327e-25
1.005068713e-25
9.007453769e-26
7.82636228e-26
7.095407286e-26
6.393230047e-26
3.967265241e-26
2.516181518e-30
2.516181518e-30
2.516181518e-30
2.516181518e-30
2.516181518e-30
2.516181518e-30
2.516181518e-30
2.516181518e-30
2.516181518e-30
2.516181518e-30
2.516181518e-30
2.516181518e-30
2.516181518e-30
2.516181518e-30
2.516181518e-30
2.516181518e-30
2.516181518e-30
3.33091608e-26
1.361181106e-25
4.081216013e-25
1.09440119e-24
2.789081238e-24
6.943106665e-24
5.441647816e-27
1.283250521e-26
2.380904982e-26
4.111100077e-26
4.9221064e-26
5.227325144e-26
6.346741463e-26
7.826332029e-26
9.049800569e-26
1.041055858e-25
1.082771434e-25
9.99749589e-26
9.455519198e-26
7.899745557e-26
6.965907385e-26
5.829186035e-26
3.453582302e-26
2.516181518e-30
2.516181518e-30
2.516181518e-30
2.516181518e-30
2.516181518e-30
2.516181518e-30
2.516181518e-30
2.516181518e-30
2.516181518e-30
2.516181518e-30
2.516181518e-30
2.516181518e-30
2.516181518e-30
2.516181518e-30
2.516181518e-30
2.516181518e-30
2.516181518e-30
3.858704246e-26
1.5049106e-25
4.440523084e-25
1.180982159e-24
2.99473544e-24
7.43005344e-24
5.188612701e-27
1.249063727e-26
2.35216427e-26
4.080718131e-26
4.708854776e-26
5.309152641e-26
6.367778592e-26
7.724801837e-26
9.423579453e-26
1.050916472e-25
1.098208003e-25
1.014306161e-25
9.7654514e-26
8.111262062e-26
6.856551913e-26
5.328453086e-26
2.777305043e-26
2.516181518e-30
2.516181518e-30
2.516181518e-30
2.516181518e-30
2.516181518e-30
2.516181518e-30
2.516181518e-30
2.516181518e-30
2.516181518e-30
2.516181518e-30
2.516181518e-30
2.516181518e-30
2.516181518e-30
2.516181518e-30
2.516181518e-30
2.516181518e-30
1.507370672e-27
4.438554688e-26
1.660598706e-25
4.827043228e-25
1.273750731e-24
3.214452766e-24
7.949187651e-24
4.329102237e-27
1.196219002e-26
2.458893257e-26
3.939482313e-26
4.807937023e-26
5.693467944e-26
6.562077389e-26
7.868322968e-26
9.40114048e-26
1.076431206e-25
1.106850851e-25
1.048602872e-25
9.932588534e-26
8.540050622e-26
7.086773959e-26
5.078086611e-26
2.044911161e-26
2.516181518e-30
2.516181518e-30
2.516181518e-30
2.516181518e-30
2.516181518e-30
2.516181518e-30
2.516181518e-30
2.516181518e-30
2.516181518e-30
2.516181518e-30
2.516181518e-30
2.516181518e-30
2.516181518e-30
2.516181518e-30
2.516181518e-30
2.516181518e-30
3.510351877e-27
5.074133428e-26
1.829142885e-25
5.242702297e-25
1.373117905e-24
3.44914115e-24
8.50254537e-24
4.942494487e-27
1.453127939e-26
2.78197913e-26
3.348789788e-26
4.225627869e-26
5.364617288e-26
6.966275262e-26
8.354668375e-26
9.835412165e-26
1.083674446e-25
1.103416565e-25
1.025137098e-25
9.864806073e-26
8.596167245e-26
6.984612926e-26
4.598936979e-26
1.151361846e-26
2.516181518e-30
2.516181518e-30
2.516181518e-30
2.516181518e-30
2.516181518e-30
2.516181518e-30
2.516181518e-30
2.516181518e-30
2.516181518e-30
2.516181518e-30
2.516181518e-30
2.516181518e-30
2.516181518e-30
2.516181518e-30
2.516181518e-30
2.516181518e-30
5.772335168e-27
5.770356269e-26
2.011462023e-25
5.689567785e-25
1.479520033e-24
3.69975971e-24
9.092272528e-24
6.942932294e-27
1.809689116e-26
2.828322441e-26
3.063748509e-26
3.918753318e-26
5.187159319e-26
6.798758578e-26
8.204275513e-26
9.82745729e-26
1.088018486e-25
1.062116915e-25
1.006722905e-25
9.308752644e-26
8.124212052e-26
6.413374476e-26
3.889565301e-26
3.190714942e-28
2.516181518e-30
2.516181518e-30
2.516181518e-30
2.516181518e-30
2.516181518e-30
2.516181518e-30
2.516181518e-30
2.516181518e-30
2.516181518e-30
2.516181518e-30
2.516181518e-30
2.516181518e-30
2.516181518e-30
2.516181518e-30
2.516181518e-30
2.516181518e-30
8.315697563e-27
6.531210604e-26
2.208497622e-25
6.169688141e-25
1.593414653e-24
3.967339454e-24
9.720651819e-24
7.298753063e-27
1.775609446e-26
2.62127867e-26
2.950220542e-26
3.871318967e-26
5.201501921e-26
7.115458058e-26
8.369534695e-26
9.434914686e-26
1.076566897e-25
1.063602223e-25
1.025772167e-25
8.912891866e-26
7.931401089e-26
6.112646928e-26
3.157171418e-26
2.516181518e-30
2.516181518e-30
2.516181518e-30
2.516181518e-30
2.516181518e-30
2.516181518e-30
2.516181518e-30
2.516181518e-30
2.516181518e-30
2.516181518e-30
2.516181518e-30
2.516181518e-30
2.516181518e-30
2.516181518e-30
2.516181518e-30
2.516181518e-30
2.516181518e-30
1.115460324e-26
7.361374183e-26
2.421347107e-25
6.685358199e-25
1.715301558e-24
4.25296686e-24
1.039010853e-23
6.541631117e-27
1.483933154e-26
2.373042773e-26
3.038517749e-26
3.999678881e-26
5.409048275e-26
7.260727547e-26
8.004485694e-26
9.104446603e-26
1.051139052e-25
1.03238907e-25
1.018167486e-25
8.571696921e-26
7.240734952e-26
5.316941983e-26
2.227649909e-26
2.516181518e-30
2.516181518e-30
2.516181518e-30
2.516181518e-30
2.516181518e-30
2.516181518e-30
2.516181518e-30
2.516181518e-30
2.516181518e-30
2.516181518e-30
2.516181518e-30
2.516181518e-30
2.516181518e-30
2.516181518e-30
2.516181518e-30
2.516181518e-30
2.516181518e-30
1.431738055e-26
8.266548385e-26
2.651126949e-25
7.238960874e-25
1.845711965e-24
4.557793151e-24
1.11032065e-23
5.739319084e-27
1.452838384e-26
2.334325068e-26
3.587663739e-26
4.309469587e-26
5.856972208e-26
7.274832096e-26
7.862892795e-26
8.997256082e-26
1.050185393e-25
1.026112717e-25
9.960276585e-26
8.344388359e-26
6.765901983e-26
4.934197833e-26
1.322589492e-26
2.516181518e-30
2.516181518e-30
2.516181518e-30
2.516181518e-30
2.516181518e-30
2.516181518e-30
2.516181518e-30
2.516181518e-30
2.516181518e-30
2.516181518e-30
2.516181518e-30
2.516181518e-30
2.516181518e-30
2.516181518e-30
2.516181518e-30
2.516181518e-30
2.516181518e-30
1.782247863e-26
9.252244145e-26
2.898951239e-25
7.833056431e-25
1.98519173e-24
4.883042758e-24
1.186267144e-23
7.047781459e-27
1.831030488e-26
2.645959351e-26
3.730567266e-26
4.648073756e-26
5.76169748e-26
7.051210691e-26
7.872561654e-26
9.120644686e-26
1.050567201e-25
1.052121011e-25
9.488321392e-26
8.343556507e-26
6.542874376e-26
4.270870564e-26
4.054047613e-28
2.516181518e-30
2.516181518e-30
2.516181518e-30
2.516181518e-30
2.516181518e-30
2.516181518e-30
2.516181518e-30
2.516181518e-30
2.516181518e-30
2.516181518e-30
2.516181518e-30
2.516181518e-30
2.516181518e-30
2.516181518e-30
2.516181518e-30
2.516181518e-30
2.516181518e-30
2.170203469e-26
1.032444851e-25
3.166229251e-25
8.470515793e-25
2.134341818e-24
5.230017235e-24
1.267140093e-23
7.791387771e-27
2.054856909e-26
3.317958326e-26
4.531863796e-26
5.156776153e-26
5.914197115e-26
7.073805735e-26
8.177500076e-26
9.715025704e-26
1.052092979e-25
1.061822263e-25
9.212197769e-26
7.949229838e-26
5.866597117e-26
3.207532491e-26
2.516181518e-30
2.516181518e-30
2.516181518e-30
2.516181518e-30
2.516181518e-30
2.516181518e-30
2.516181518e-30
2.516181518e-30
2.516181518e-30
2.516181518e-30
2.516181518e-30
2.516181518e-30
2.516181518e-30
2.516181518e-30
2.516181518e-30
2.516181518e-30
2.516181518e-30
2.516181518e-30
2.598842399e-26
1.148931515e-25
3.454197673e-25
9.154152751e-25
2.293797714e-24
5.600091699e-24
1.353243848e-23
6.546353271e-27
2.170969091e-26
3.262295339e-26
4.96869322e-26
5.859621277e-26
6.344699659e-26
7.581912998e-26
8.838129445e-26
1.00673403e-25
1.054152652e-25
1.063019793e-25
9.091521638e-26
7.994251953e-26
5.456514099e-26
2.368660912e-26
2.516181518e-30
2.516181518e-30
2.516181518e-30
2.516181518e-30
2.516181518e-30
2.516181518e-30
2.516181518e-30
2.516181518e-30
2.516181518e-30
2.516181518e-30
2.516181518e-30
2.516181518e-30
2.516181518e-30
2.516181518e-30
2.516181518e-30
2.516181518e-30
2.516181518e-30
2.516181518e-30
3.071425985e-26
1.275309297e-25
3.764401471e-25
9.887031052e-25
2.464225015e-24
5.994732796e-24
1.44490327e-23
7.378673384e-27
2.258291615e-26
3.36948853e-26
5.124582446e-26
6.062791454e-26
6.854519572e-26
7.967738605e-26
8.872152272e-26
1.019908847e-25
1.078276109e-25
1.055554241e-25
9.097765199e-26
7.866309967e-26
5.365864168e-26
1.964333445e-26
2.516181518e-30
2.516181518e-30
2.516181518e-30
2.516181518e-30
2.516181518e-30
2.516181518e-30
2.516181518e-30
2.516181518e-30
2.516181518e-30
2.516181518e-30
2.516181518e-30
2.516181518e-30
2.516181518e-30
2.516181518e-30
2.516181518e-30
2.516181518e-30
2.516181518e-30
2.516181518e-30
3.59104892e-26
1.412311403e-25
4.098304675e-25
1.06724644e-24
2.646322644e-24
6.415487874e-24
1.542461964e-23
8.301730752e-27
2.461153658e-26
3.563502999e-26
5.048572684e-26
5.600481314e-26
6.478316549e-26
8.023487582e-26
9.12518361e-26
9.953360029e-26
1.076900305e-25
1.030257192e-25
8.6758259e-26
7.460210337e-26
4.912614516e-26
1.242011777e-26
2.516181518e-30
2.516181518e-30
2.516181518e-30
2.516181518e-30
2.516181518e-30
2.516181518e-30
2.516181518e-30
2.516181518e-30
2.516181518e-30
2.516181518e-30
2.516181518e-30
2.516181518e-30
2.516181518e-30
2.516181518e-30
2.516181518e-30
2.516181518e-30
2.516181518e-30
2.516181518e-30
4.161948554e-26
1.56078054e-25
4.457624839e-25
1.151402836e-24
2.840850708e-24
6.864002001e-24
1.646284367e-23
1.019384206e-26
2.658057805e-26
3.651764498e-26
4.71754651e-26
5.339782101e-26
6.296565721e-26
7.626949686e-26
8.878266239e-26
1.001324713e-25
1.067733083e-25
9.771455687e-26
8.230959618e-26
6.58902858e-26
3.830570902e-26
1.895715936e-28
2.516181518e-30
2.516181518e-30
2.516181518e-30
2.516181518e-30
2.516181518e-30
2.516181518e-30
2.516181518e-30
2.516181518e-30
2.516181518e-30
2.516181518e-30
2.516181518e-30
2.516181518e-30
2.516181518e-30
2.516181518e-30
2.516181518e-30
2.516181518e-30
2.516181518e-30
2.027755378e-27
4.788147991e-26
1.721558227e-25
4.844000961e-25
1.241536395e-24
3.048617158e-24
7.342024511e-24
1.75675566e-23
1.110262957e-26
2.867959552e-26
4.214146142e-26
5.203333827e-26
5.329723125e-26
6.162512439e-26
7.606651858e-26
8.931137439e-26
9.725826652e-26
1.057131734e-25
9.797581818e-26
7.94611935e-26
6.154210707e-26
2.978749333e-26
2.516181518e-30
2.516181518e-30
2.516181518e-30
2.516181518e-30
2.516181518e-30
2.516181518e-30
2.516181518e-30
2.516181518e-30
2.516181518e-30
2.516181518e-30
2.516181518e-30
2.516181518e-30
2.516181518e-30
2.516181518e-30
2.516181518e-30
2.516181518e-30
2.516181518e-30
2.516181518e-30
4.358893178e-27
5.473241835e-26
1.895488364e-25
5.259312472e-25
1.338043357e-24
3.270456135e-24
7.851401866e-24
1.874285701e-23
1.051746e-26
2.891399685e-26
4.398658389e-26
5.454070619e-26
5.443456108e-26
6.152155896e-26
7.526693081e-26
8.662422504e-26
9.75528286e-26
1.054023313e-25
9.837217365e-26
7.82123368e-26
5.317538452e-26
1.983038986e-26
2.516181518e-30
2.516181518e-30
2.516181518e-30
2.516181518e-30
2.516181518e-30
2.516181518e-30
2.516181518e-30
2.516181518e-30
2.516181518e-30
2.516181518e-30
2.516181518e-30
2.516181518e-30
2.516181518e-30
2.516181518e-30
2.516181518e-30