/*--------------------------------*- C++ -*----------------------------------*\
| =========                 |                                                 |
| \\      /  F ield         | OpenFOAM: The Open Source CFD Toolbox           |
|  \\    /   O peration     | Version:  v2006                                 |
|   \\  /    A nd           | Website:  www.openfoam.com                      |
|    \\/     M anipulation  |                                                 |
\*---------------------------------------------------------------------------*/
FoamFile
{
    version     2.0;
    format      ascii;
    class       volScalarField;
    location    "0.12";
    object      CH2O;
}
// * * * * * * * * * * * * * * * * * * * * * * * * * * * * * * * * * * * * * //

dimensions      [0 0 0 0 0 0 0];


internalField   nonuniform List<scalar> 
168000
(
1.042486153e-11
1.042474042e-11
1.042461165e-11
1.042450261e-11
1.042449865e-11
1.042449865e-11
1.042450665e-11
1.042452578e-11
1.042457382e-11
1.042467364e-11
1.042453549e-11
1.042453834e-11
1.04245135e-11
1.042449894e-11
1.042452635e-11
1.042460459e-11
1.042457614e-11
1.042451179e-11
1.042457088e-11
1.04245549e-11
1.042456544e-11
1.042450322e-11
1.042450036e-11
1.042452311e-11
1.042449865e-11
1.042449865e-11
1.042449865e-11
1.042449865e-11
1.042449865e-11
1.042449865e-11
1.042449865e-11
1.042449865e-11
1.042449865e-11
1.042449865e-11
1.042449865e-11
1.042449865e-11
1.046839327e-11
1.186985139e-11
1.48563531e-11
2.486593931e-11
1.042547016e-11
1.042514721e-11
1.042478808e-11
1.042459182e-11
1.042451451e-11
1.042449865e-11
1.042464761e-11
1.042478297e-11
1.042490243e-11
1.042493436e-11
1.042475848e-11
1.042474631e-11
1.042463543e-11
1.042455633e-11
1.042461801e-11
1.042471733e-11
1.04246978e-11
1.042457889e-11
1.042466084e-11
1.042469664e-11
1.042468789e-11
1.042454319e-11
1.04247074e-11
1.042449865e-11
1.042449865e-11
1.042449865e-11
1.042449865e-11
1.042449865e-11
1.042449865e-11
1.042449865e-11
1.042449865e-11
1.042449865e-11
1.042449865e-11
1.042449865e-11
1.042449865e-11
1.042449865e-11
1.055204324e-11
1.199618275e-11
1.536517947e-11
2.594448983e-11
1.042585754e-11
1.042541949e-11
1.042504778e-11
1.042478214e-11
1.042466716e-11
1.042463647e-11
1.042469386e-11
1.042477659e-11
1.042511907e-11
1.042513936e-11
1.042485315e-11
1.04248391e-11
1.042465684e-11
1.042458688e-11
1.042468825e-11
1.042481294e-11
1.042477506e-11
1.042467255e-11
1.042471681e-11
1.042476278e-11
1.042473051e-11
1.04246063e-11
1.042482067e-11
1.042449865e-11
1.042449865e-11
1.042449865e-11
1.042449865e-11
1.042449865e-11
1.042449865e-11
1.042449865e-11
1.042449865e-11
1.042449865e-11
1.042449865e-11
1.042449865e-11
1.042449865e-11
1.042449865e-11
1.063416675e-11
1.214621982e-11
1.589507097e-11
2.712119368e-11
1.042617835e-11
1.042581904e-11
1.042530946e-11
1.042504183e-11
1.042500885e-11
1.042492748e-11
1.042487372e-11
1.042486278e-11
1.042521845e-11
1.042535565e-11
1.042506852e-11
1.042484344e-11
1.042470281e-11
1.042463857e-11
1.042480447e-11
1.04248947e-11
1.042487414e-11
1.042482303e-11
1.042473736e-11
1.042485758e-11
1.042483045e-11
1.042471109e-11
1.042482329e-11
1.042449865e-11
1.042449865e-11
1.042449865e-11
1.042449865e-11
1.042449865e-11
1.042449865e-11
1.042449865e-11
1.042449865e-11
1.042449865e-11
1.042449865e-11
1.042449865e-11
1.042449865e-11
1.042449865e-11
1.07168949e-11
1.231855112e-11
1.645126714e-11
2.83992901e-11
1.042653399e-11
1.042617398e-11
1.042565803e-11
1.042544967e-11
1.042511806e-11
1.042499534e-11
1.042503457e-11
1.042501257e-11
1.042526123e-11
1.042551397e-11
1.042537817e-11
1.042503159e-11
1.04247742e-11
1.042471252e-11
1.042485501e-11
1.042492782e-11
1.042497808e-11
1.042494324e-11
1.04247822e-11
1.042491583e-11
1.042489184e-11
1.042473537e-11
1.042468133e-11
1.042449865e-11
1.042449865e-11
1.042449865e-11
1.042449865e-11
1.042449865e-11
1.042449865e-11
1.042449865e-11
1.042449865e-11
1.042449865e-11
1.042449865e-11
1.042449865e-11
1.042449865e-11
1.042449865e-11
1.080200987e-11
1.251276432e-11
1.703869228e-11
2.978318799e-11
1.042675093e-11
1.042643903e-11
1.042604604e-11
1.042562422e-11
1.042533284e-11
1.042511661e-11
1.0425191e-11
1.042526833e-11
1.042546879e-11
1.04256517e-11
1.042555047e-11
1.042504445e-11
1.04249007e-11
1.042479048e-11
1.042492897e-11
1.042497865e-11
1.042508659e-11
1.042500321e-11
1.042485958e-11
1.042495152e-11
1.042489213e-11
1.042472195e-11
1.042449865e-11
1.042449865e-11
1.042449865e-11
1.042449865e-11
1.042449865e-11
1.042449865e-11
1.042449865e-11
1.042449865e-11
1.042449865e-11
1.042449865e-11
1.042449865e-11
1.042449865e-11
1.042449865e-11
1.043162741e-11
1.089096478e-11
1.272876426e-11
1.766208041e-11
3.127787708e-11
1.042678329e-11
1.042657318e-11
1.042616756e-11
1.042596862e-11
1.042549072e-11
1.042529853e-11
1.042530064e-11
1.042524495e-11
1.042544603e-11
1.042573633e-11
1.042568309e-11
1.04251405e-11
1.042493867e-11
1.042488299e-11
1.042497722e-11
1.042507288e-11
1.042517253e-11
1.042504747e-11
1.042492954e-11
1.042492497e-11
1.042484159e-11
1.042467169e-11
1.042449865e-11
1.042449865e-11
1.042449865e-11
1.042449865e-11
1.042449865e-11
1.042449865e-11
1.042449865e-11
1.042449865e-11
1.042449865e-11
1.042449865e-11
1.042449865e-11
1.042449865e-11
1.042449865e-11
1.044857111e-11
1.098512749e-11
1.296678683e-11
1.832590781e-11
3.288896366e-11
1.042687348e-11
1.042664159e-11
1.042625019e-11
1.04261774e-11
1.042572611e-11
1.042558376e-11
1.042544455e-11
1.042530086e-11
1.042550106e-11
1.042580189e-11
1.042577391e-11
1.042536387e-11
1.042503005e-11
1.042502634e-11
1.042508801e-11
1.042509458e-11
1.042522622e-11
1.042515226e-11
1.042498922e-11
1.042495295e-11
1.042483017e-11
1.042454291e-11
1.042449865e-11
1.042449865e-11
1.042449865e-11
1.042449865e-11
1.042449865e-11
1.042449865e-11
1.042449865e-11
1.042449865e-11
1.042449865e-11
1.042449865e-11
1.042449865e-11
1.042449865e-11
1.042449865e-11
1.046973735e-11
1.108562997e-11
1.322715321e-11
1.903456157e-11
3.462289253e-11
1.042709749e-11
1.042677112e-11
1.042641665e-11
1.042631959e-11
1.042586279e-11
1.042560567e-11
1.042552589e-11
1.042536584e-11
1.042558442e-11
1.042595277e-11
1.042582333e-11
1.042539108e-11
1.042516225e-11
1.042509344e-11
1.04251417e-11
1.042513513e-11
1.042522279e-11
1.04251791e-11
1.042509629e-11
1.04250212e-11
1.042479248e-11
1.042449865e-11
1.042449865e-11
1.042449865e-11
1.042449865e-11
1.042449865e-11
1.042449865e-11
1.042449865e-11
1.042449865e-11
1.042449865e-11
1.042449865e-11
1.042449865e-11
1.042449865e-11
1.042449865e-11
1.042449865e-11
1.049537196e-11
1.119354469e-11
1.351089622e-11
1.979234551e-11
3.648669534e-11
1.042748662e-11
1.042707446e-11
1.042666504e-11
1.042637167e-11
1.042614505e-11
1.042574296e-11
1.042564133e-11
1.042547004e-11
1.042579564e-11
1.04260812e-11
1.042583877e-11
1.042552029e-11
1.042521679e-11
1.042512171e-11
1.042513998e-11
1.042517796e-11
1.042524249e-11
1.042518995e-11
1.042512428e-11
1.042508002e-11
1.042479533e-11
1.042449865e-11
1.042449865e-11
1.042449865e-11
1.042449865e-11
1.042449865e-11
1.042449865e-11
1.042449865e-11
1.042449865e-11
1.042449865e-11
1.042449865e-11
1.042449865e-11
1.042449865e-11
1.042449865e-11
1.042449865e-11
1.052533021e-11
1.130987675e-11
1.381931236e-11
2.06037617e-11
3.848805592e-11
1.042784253e-11
1.042744186e-11
1.042705474e-11
1.042662297e-11
1.042629124e-11
1.042591458e-11
1.042581125e-11
1.042560687e-11
1.042579865e-11
1.042621203e-11
1.042606144e-11
1.042585847e-11
1.042544224e-11
1.042521622e-11
1.042519795e-11
1.042520908e-11
1.042525563e-11
1.042522308e-11
1.042521651e-11
1.042513027e-11
1.042473537e-11
1.042449865e-11
1.042449865e-11
1.042449865e-11
1.042449865e-11
1.042449865e-11
1.042449865e-11
1.042449865e-11
1.042449865e-11
1.042449865e-11
1.042449865e-11
1.042449865e-11
1.042449865e-11
1.042449865e-11
1.042449865e-11
1.05599511e-11
1.143569268e-11
1.415358711e-11
2.147322299e-11
4.063552442e-11
1.042801267e-11
1.042765801e-11
1.042714971e-11
1.042703078e-11
1.042669168e-11
1.04261471e-11
1.0426065e-11
1.042579201e-11
1.042590882e-11
1.04263591e-11
1.042631869e-11
1.042608724e-11
1.042551301e-11
1.042528304e-11
1.04253333e-11
1.042527447e-11
1.04253253e-11
1.042530931e-11
1.042524278e-11
1.042515569e-11
1.042473794e-11
1.042449865e-11
1.042449865e-11
1.042449865e-11
1.042449865e-11
1.042449865e-11
1.042449865e-11
1.042449865e-11
1.042449865e-11
1.042449865e-11
1.042449865e-11
1.042449865e-11
1.042449865e-11
1.042449865e-11
1.042449865e-11
1.059949432e-11
1.157193016e-11
1.451547492e-11
2.240531471e-11
4.293802766e-11
1.042813784e-11
1.042770361e-11
1.042729134e-11
1.04272757e-11
1.042694067e-11
1.042636601e-11
1.042629864e-11
1.04259769e-11
1.042610646e-11
1.042648973e-11
1.042653767e-11
1.042623444e-11
1.042576088e-11
1.042538783e-11
1.042542324e-11
1.042536014e-11
1.042534015e-11
1.042532758e-11
1.042526362e-11
1.04251534e-11
1.04246794e-11
1.042449865e-11
1.042449865e-11
1.042449865e-11
1.042449865e-11
1.042449865e-11
1.042449865e-11
1.042449865e-11
1.042449865e-11
1.042449865e-11
1.042449865e-11
1.042449865e-11
1.042449865e-11
1.042449865e-11
1.042449865e-11
1.064424138e-11
1.171965375e-11
1.490661723e-11
2.340488386e-11
4.540536868e-11
1.042820427e-11
1.042785632e-11
1.042742167e-11
1.042742365e-11
1.042709808e-11
1.042655673e-11
1.042640893e-11
1.042618225e-11
1.042628409e-11
1.042669416e-11
1.042667529e-11
1.04262374e-11
1.042592654e-11
1.042552975e-11
1.042543495e-11
1.042541468e-11
1.04254261e-11
1.042537927e-11
1.042530417e-11
1.042509087e-11
1.042454634e-11
1.042449865e-11
1.042449865e-11
1.042449865e-11
1.042449865e-11
1.042449865e-11
1.042449865e-11
1.042449865e-11
1.042449865e-11
1.042449865e-11
1.042449865e-11
1.042449865e-11
1.042449865e-11
1.042449865e-11
1.042449865e-11
1.069446586e-11
1.187976941e-11
1.532899247e-11
2.447695784e-11
4.804803445e-11
1.042834592e-11
1.042789452e-11
1.042749425e-11
1.042745479e-11
1.042710078e-11
1.042678379e-11
1.042672715e-11
1.042647321e-11
1.04265043e-11
1.042685377e-11
1.042674782e-11
1.042631552e-11
1.042600529e-11
1.042557344e-11
1.042548035e-11
1.042545922e-11
1.042546265e-11
1.042534986e-11
1.042525477e-11
1.042493924e-11
1.042449865e-11
1.042449865e-11
1.042449865e-11
1.042449865e-11
1.042449865e-11
1.042449865e-11
1.042449865e-11
1.042449865e-11
1.042449865e-11
1.042449865e-11
1.042449865e-11
1.042449865e-11
1.042449865e-11
1.042449865e-11
1.042449865e-11
1.075051863e-11
1.205338929e-11
1.57846703e-11
2.562684555e-11
5.087731085e-11
1.042847479e-11
1.042803083e-11
1.042758385e-11
1.04273659e-11
1.042729908e-11
1.042706782e-11
1.042693591e-11
1.042688298e-11
1.042681379e-11
1.042702827e-11
1.042669639e-11
1.042643397e-11
1.04259532e-11
1.042568594e-11
1.042560913e-11
1.042552661e-11
1.042551976e-11
1.042533729e-11
1.04252482e-11
1.042477534e-11
1.042449865e-11
1.042449865e-11
1.042449865e-11
1.042449865e-11
1.042449865e-11
1.042449865e-11
1.042449865e-11
1.042449865e-11
1.042449865e-11
1.042449865e-11
1.042449865e-11
1.042449865e-11
1.042449865e-11
1.042449865e-11
1.042449865e-11
1.081292108e-11
1.224161758e-11
1.627604151e-11
2.685996495e-11
5.390509238e-11
1.04285897e-11
1.042817439e-11
1.042777836e-11
1.04274273e-11
1.042729856e-11
1.042706429e-11
1.042704012e-11
1.042704747e-11
1.042723221e-11
1.042722302e-11
1.042677458e-11
1.042652814e-11
1.042601895e-11
1.042570108e-11
1.042564083e-11
1.042561741e-11
1.042552233e-11
1.042534529e-11
1.042520566e-11
1.042462829e-11
1.042449865e-11
1.042449865e-11
1.042449865e-11
1.042449865e-11
1.042449865e-11
1.042449865e-11
1.042449865e-11
1.042449865e-11
1.042449865e-11
1.042449865e-11
1.042449865e-11
1.042449865e-11
1.042449865e-11
1.042449865e-11
1.042449865e-11
1.088209942e-11
1.244572699e-11
1.680544534e-11
2.818223155e-11
5.71441894e-11
1.042870035e-11
1.042837842e-11
1.042811606e-11
1.042754253e-11
1.042726406e-11
1.04271183e-11
1.042729323e-11
1.042737113e-11
1.042751704e-11
1.04274388e-11
1.042700007e-11
1.042652956e-11
1.042621884e-11
1.042577732e-11
1.042571136e-11
1.042563626e-11
1.042558029e-11
1.042539811e-11
1.042519138e-11
1.042449865e-11
1.042449865e-11
1.042449865e-11
1.042449865e-11
1.042449865e-11
1.042449865e-11
1.042449865e-11
1.042449865e-11
1.042449865e-11
1.042449865e-11
1.042449865e-11
1.042449865e-11
1.042449865e-11
1.042449865e-11
1.042449865e-11
1.042449865e-11
1.095859287e-11
1.266685741e-11
1.737565123e-11
2.9599773e-11
6.060832419e-11
1.042898543e-11
1.042864779e-11
1.042833543e-11
1.042774813e-11
1.042738988e-11
1.042725816e-11
1.042733879e-11
1.042743805e-11
1.042767906e-11
1.042755193e-11
1.042702229e-11
1.042658703e-11
1.042636881e-11
1.042581187e-11
1.042572478e-11
1.042566453e-11
1.042562341e-11
1.042537242e-11
1.042511514e-11
1.042449865e-11
1.042449865e-11
1.042449865e-11
1.042449865e-11
1.042449865e-11
1.042449865e-11
1.042449865e-11
1.042449865e-11
1.042449865e-11
1.042449865e-11
1.042449865e-11
1.042449865e-11
1.042449865e-11
1.042449865e-11
1.042449865e-11
1.043359e-11
1.104287721e-11
1.29063668e-11
1.798950989e-11
3.111917488e-11
6.431190095e-11
1.042923951e-11
1.042896604e-11
1.042859473e-11
1.042800916e-11
1.042761655e-11
1.042746758e-11
1.042760543e-11
1.042766668e-11
1.042775948e-11
1.042771829e-11
1.04271761e-11
1.042672866e-11
1.042651376e-11
1.042591209e-11
1.04257876e-11
1.042574362e-11
1.04256671e-11
1.042539326e-11
1.042499892e-11
1.042449865e-11
1.042449865e-11
1.042449865e-11
1.042449865e-11
1.042449865e-11
1.042449865e-11
1.042449865e-11
1.042449865e-11
1.042449865e-11
1.042449865e-11
1.042449865e-11
1.042449865e-11
1.042449865e-11
1.042449865e-11
1.042449865e-11
1.045891337e-11
1.113556105e-11
1.316567853e-11
1.865004846e-11
3.274733995e-11
6.827048167e-11
1.04294922e-11
1.042917884e-11
1.042869698e-11
1.042843481e-11
1.042790981e-11
1.042780661e-11
1.042766483e-11
1.042759966e-11
1.042768794e-11
1.042784902e-11
1.042747694e-11
1.042693959e-11
1.042659931e-11
1.042600118e-11
1.042585299e-11
1.042577503e-11
1.042566624e-11
1.042533215e-11
1.04248393e-11
1.042449865e-11
1.042449865e-11
1.042449865e-11
1.042449865e-11
1.042449865e-11
1.042449865e-11
1.042449865e-11
1.042449865e-11
1.042449865e-11
1.042449865e-11
1.042449865e-11
1.042449865e-11
1.042449865e-11
1.042449865e-11
1.042449865e-11
1.048807271e-11
1.123722918e-11
1.344614857e-11
1.936048838e-11
3.449160514e-11
7.250043512e-11
1.042973079e-11
1.042931432e-11
1.042888117e-11
1.042873568e-11
1.042819484e-11
1.042789927e-11
1.042779723e-11
1.04276427e-11
1.042776738e-11
1.042794398e-11
1.04276527e-11
1.042693058e-11
1.042659816e-11
1.042600033e-11
1.042590296e-11
1.042575162e-11
1.042558515e-11
1.042525106e-11
1.042472109e-11
1.042449865e-11
1.042449865e-11
1.042449865e-11
1.042449865e-11
1.042449865e-11
1.042449865e-11
1.042449865e-11
1.042449865e-11
1.042449865e-11
1.042449865e-11
1.042449865e-11
1.042449865e-11
1.042449865e-11
1.042449865e-11
1.042449865e-11
1.052134952e-11
1.134863097e-11
1.374947189e-11
2.01243286e-11
3.6359799e-11
7.701936317e-11
1.042980032e-11
1.042948899e-11
1.042914089e-11
1.04289851e-11
1.042859503e-11
1.042808529e-11
1.042793507e-11
1.042777862e-11
1.04280063e-11
1.042804808e-11
1.042773607e-11
1.042695998e-11
1.042647979e-11
1.04259752e-11
1.042589325e-11
1.042573449e-11
1.042556858e-11
1.042516368e-11
1.042457603e-11
1.042449865e-11
1.042449865e-11
1.042449865e-11
1.042449865e-11
1.042449865e-11
1.042449865e-11
1.042449865e-11
1.042449865e-11
1.042449865e-11
1.042449865e-11
1.042449865e-11
1.042449865e-11
1.042449865e-11
1.042449865e-11
1.042449865e-11
1.055906496e-11
1.147055542e-11
1.407728992e-11
2.094513351e-11
3.836024568e-11
8.184581131e-11
1.042995079e-11
1.042952078e-11
1.042925175e-11
1.042908906e-11
1.042878258e-11
1.042829983e-11
1.042807098e-11
1.042796262e-11
1.042806987e-11
1.042807692e-11
1.042774921e-11
1.042702262e-11
1.042653457e-11
1.042598348e-11
1.042594179e-11
1.042575704e-11
1.042555888e-11
1.042506146e-11
1.042449865e-11
1.042449865e-11
1.042449865e-11
1.042449865e-11
1.042449865e-11
1.042449865e-11
1.042449865e-11
1.042449865e-11
1.042449865e-11
1.042449865e-11
1.042449865e-11
1.042449865e-11
1.042449865e-11
1.042449865e-11
1.042449865e-11
1.042449865e-11
1.060148466e-11
1.160376774e-11
1.443129962e-11
2.182688577e-11
4.050167972e-11
8.699943717e-11
1.04299886e-11
1.042960596e-11
1.042931872e-11
1.042895304e-11
1.04288435e-11
1.042855251e-11
1.042834494e-11
1.042830262e-11
1.042836198e-11
1.042812826e-11
1.042767546e-11
1.042715689e-11
1.042651953e-11
1.042599747e-11
1.042598177e-11
1.042581529e-11
1.042552176e-11
1.042497465e-11
1.042449865e-11
1.042449865e-11
1.042449865e-11
1.042449865e-11
1.042449865e-11
1.042449865e-11
1.042449865e-11
1.042449865e-11
1.042449865e-11
1.042449865e-11
1.042449865e-11
1.042449865e-11
1.042449865e-11
1.042449865e-11
1.042449865e-11
1.042449865e-11
1.06490309e-11
1.174908071e-11
1.481346555e-11
2.277392092e-11
4.279349576e-11
9.250129001e-11
1.043009538e-11
1.042964602e-11
1.042922992e-11
1.042890213e-11
1.042870282e-11
1.042849979e-11
1.042838291e-11
1.042834098e-11
1.042856216e-11
1.042833596e-11
1.042772029e-11
1.042720263e-11
1.04266745e-11
1.042600747e-11
1.04259318e-11
1.0425833e-11
1.042545722e-11
1.042485872e-11
1.042449865e-11
1.042449865e-11
1.042449865e-11
1.042449865e-11
1.042449865e-11
1.042449865e-11
1.042449865e-11
1.042449865e-11
1.042449865e-11
1.042449865e-11
1.042449865e-11
1.042449865e-11
1.042449865e-11
1.042449865e-11
1.042449865e-11
1.042449865e-11
1.070212393e-11
1.190747762e-11
1.522577409e-11
2.379044764e-11
4.524552857e-11
9.837360659e-11
1.043017137e-11
1.042974267e-11
1.042931342e-11
1.04289993e-11
1.042876925e-11
1.042858621e-11
1.042854713e-11
1.04284345e-11
1.042870917e-11
1.042848336e-11
1.042790442e-11
1.042744871e-11
1.042680158e-11
1.042603088e-11
1.042592009e-11
1.042579188e-11
1.042539497e-11
1.042476877e-11
1.042449865e-11
1.042449865e-11
1.042449865e-11
1.042449865e-11
1.042449865e-11
1.042449865e-11
1.042449865e-11
1.042449865e-11
1.042449865e-11
1.042449865e-11
1.042449865e-11
1.042449865e-11
1.042449865e-11
1.042449865e-11
1.042449865e-11
1.042449865e-11
1.076124944e-11
1.207989814e-11
1.567036626e-11
2.488123562e-11
4.786838407e-11
1.046400351e-10
1.043042127e-11
1.042998718e-11
1.042957847e-11
1.042929788e-11
1.042907723e-11
1.04288332e-11
1.042870846e-11
1.042857286e-11
1.042883059e-11
1.042859937e-11
1.042796992e-11
1.042754904e-11
1.042682666e-11
1.042604087e-11
1.042591723e-11
1.042581244e-11
1.042534072e-11
1.042461344e-11
1.042449865e-11
1.042449865e-11
1.042449865e-11
1.042449865e-11
1.042449865e-11
1.042449865e-11
1.042449865e-11
1.042449865e-11
1.042449865e-11
1.042449865e-11
1.042449865e-11
1.042449865e-11
1.042449865e-11
1.042449865e-11
1.042449865e-11
1.042449865e-11
1.082680988e-11
1.226727597e-11
1.614954958e-11
2.605149066e-11
5.067321334e-11
1.113257781e-10
1.043063962e-11
1.043029994e-11
1.042998206e-11
1.042983812e-11
1.042941214e-11
1.042919492e-11
1.042903522e-11
1.042873647e-11
1.042891159e-11
1.042872851e-11
1.042812153e-11
1.042751484e-11
1.042670979e-11
1.042605915e-11
1.042594836e-11
1.042580873e-11
1.042534015e-11
1.042454348e-11
1.042449865e-11
1.042449865e-11
1.042449865e-11
1.042449865e-11
1.042449865e-11
1.042449865e-11
1.042449865e-11
1.042449865e-11
1.042449865e-11
1.042449865e-11
1.042449865e-11
1.042449865e-11
1.042449865e-11
1.042449865e-11
1.042449865e-11
1.042449865e-11
1.089926317e-11
1.247071136e-11
1.666579017e-11
2.730646222e-11
5.367196835e-11
1.18457376e-10
1.043092114e-11
1.043058097e-11
1.043040982e-11
1.043026415e-11
1.042989248e-11
1.04293566e-11
1.042913899e-11
1.042888962e-11
1.042887e-11
1.042878645e-11
1.042836276e-11
1.042765741e-11
1.042672568e-11
1.042605173e-11
1.042590667e-11
1.042576732e-11
1.04252859e-11
1.042449865e-11
1.042449865e-11
1.042449865e-11
1.042449865e-11
1.042449865e-11
1.042449865e-11
1.042449865e-11
1.042449865e-11
1.042449865e-11
1.042449865e-11
1.042449865e-11
1.042449865e-11
1.042449865e-11
1.042449865e-11
1.042449865e-11
1.042449865e-11
1.042449865e-11
1.097922783e-11
1.269153253e-11
1.722180792e-11
2.865193893e-11
5.687719185e-11
1.260633598e-10
1.043131105e-11
1.043089538e-11
1.04305984e-11
1.043057148e-11
1.043016613e-11
1.042953764e-11
1.042927467e-11
1.042915842e-11
1.042899135e-11
1.042895052e-11
1.042853433e-11
1.042765477e-11
1.042690964e-11
1.042606629e-11
1.042588097e-11
1.042565539e-11
1.042518396e-11
1.042449865e-11
1.042449865e-11
1.042449865e-11
1.042449865e-11
1.042449865e-11
1.042449865e-11
1.042449865e-11
1.042449865e-11
1.042449865e-11
1.042449865e-11
1.042449865e-11
1.042449865e-11
1.042449865e-11
1.042449865e-11
1.042449865e-11
1.042449865e-11
1.042449865e-11
1.106713206e-11
1.293091702e-11
1.782024141e-11
3.00939632e-11
6.030240589e-11
1.341735608e-10
1.043164461e-11
1.043118561e-11
1.043083822e-11
1.043077732e-11
1.043031389e-11
1.042976178e-11
1.042942735e-11
1.042924322e-11
1.042924967e-11
1.042909681e-11
1.042863228e-11
1.042772326e-11
1.042706619e-11
1.042610826e-11
1.042585927e-11
1.042555602e-11
1.042504975e-11
1.042449865e-11
1.042449865e-11
1.042449865e-11
1.042449865e-11
1.042449865e-11
1.042449865e-11
1.042449865e-11
1.042449865e-11
1.042449865e-11
1.042449865e-11
1.042449865e-11
1.042449865e-11
1.042449865e-11
1.042449865e-11
1.042449865e-11
1.042449865e-11
1.044956232e-11
1.116370737e-11
1.319021884e-11
1.846399885e-11
3.163904329e-11
6.39618442e-11
1.428198504e-10
1.043193051e-11
1.043148005e-11
1.043114057e-11
1.043095125e-11
1.043053948e-11
1.043009942e-11
1.042971341e-11
1.04294499e-11
1.042934224e-11
1.042922466e-11
1.042866527e-11
1.042787646e-11
1.042713698e-11
1.042619336e-11
1.042590496e-11
1.042550634e-11
1.042490441e-11
1.042449865e-11
1.042449865e-11
1.042449865e-11
1.042449865e-11
1.042449865e-11
1.042449865e-11
1.042449865e-11
1.042449865e-11
1.042449865e-11
1.042449865e-11
1.042449865e-11
1.042449865e-11
1.042449865e-11
1.042449865e-11
1.042449865e-11
1.042449865e-11
1.048292239e-11
1.126956435e-11
1.347093272e-11
1.915628778e-11
3.329402449e-11
6.787062863e-11
1.520361396e-10
1.043233275e-11
1.04319013e-11
1.043157297e-11
1.043094887e-11
1.043049718e-11
1.043014306e-11
1.043001143e-11
1.0429786e-11
1.042962246e-11
1.042932022e-11
1.042869014e-11
1.04278101e-11
1.042709779e-11
1.042620449e-11
1.042588468e-11
1.042541125e-11
1.042472709e-11
1.042449865e-11
1.042449865e-11
1.042449865e-11
1.042449865e-11
1.042449865e-11
1.042449865e-11
1.042449865e-11
1.042449865e-11
1.042449865e-11
1.042449865e-11
1.042449865e-11
1.042449865e-11
1.042449865e-11
1.042449865e-11
1.042449865e-11
1.042449865e-11
1.05205962e-11
1.138552173e-11
1.377458908e-11
1.990055165e-11
3.506617433e-11
7.20447335e-11
1.618581696e-10
1.043285756e-11
1.043240371e-11
1.043187126e-11
1.043110813e-11
1.043061053e-11
1.043026823e-11
1.043011679e-11
1.0429871e-11
1.042973375e-11
1.042937438e-11
1.042860224e-11
1.042777949e-11
1.042688052e-11
1.042611083e-11
1.042577132e-11
1.042527048e-11
1.042450493e-11
1.042449865e-11
1.042449865e-11
1.042449865e-11
1.042449865e-11
1.042449865e-11
1.042449865e-11
1.042449865e-11
1.042449865e-11
1.042449865e-11
1.042449865e-11
1.042449865e-11
1.042449865e-11
1.042449865e-11
1.042449865e-11
1.042449865e-11
1.042449865e-11
1.056295644e-11
1.151224362e-11
1.410275602e-11
2.070020221e-11
3.696311319e-11
7.650133047e-11
1.72323959e-10
1.043327845e-11
1.043271177e-11
1.04320955e-11
1.043134895e-11
1.043084862e-11
1.043050274e-11
1.043044299e-11
1.043010774e-11
1.042970139e-11
1.042945066e-11
1.042868241e-11
1.042791036e-11
1.042677424e-11
1.042607257e-11
1.042571164e-11
1.042512513e-11
1.042449865e-11
1.042449865e-11
1.042449865e-11
1.042449865e-11
1.042449865e-11
1.042449865e-11
1.042449865e-11
1.042449865e-11
1.042449865e-11
1.042449865e-11
1.042449865e-11
1.042449865e-11
1.042449865e-11
1.042449865e-11
1.042449865e-11
1.042449865e-11
1.042449865e-11
1.061023901e-11
1.165050911e-11
1.445726132e-11
2.155906155e-11
3.899316526e-11
8.125851503e-11
1.834739014e-10
1.04335941e-11
1.043296278e-11
1.043240066e-11
1.043169318e-11
1.043116318e-11
1.043084093e-11
1.04307015e-11
1.043010658e-11
1.042971501e-11
1.042946752e-11
1.042863829e-11
1.042793091e-11
1.042667683e-11
1.042593551e-11
1.042555374e-11
1.042494067e-11
1.042449865e-11
1.042449865e-11
1.042449865e-11
1.042449865e-11
1.042449865e-11
1.042449865e-11
1.042449865e-11
1.042449865e-11
1.042449865e-11
1.042449865e-11
1.042449865e-11
1.042449865e-11
1.042449865e-11
1.042449865e-11
1.042449865e-11
1.042449865e-11
1.042449865e-11
1.066291573e-11
1.180126778e-11
1.483996448e-11
2.248109846e-11
4.116517804e-11
8.633546109e-11
1.953506982e-10
1.043387518e-11
1.043328926e-11
1.043265435e-11
1.043219619e-11
1.043153553e-11
1.043124069e-11
1.043089637e-11
1.043022105e-11
1.042981452e-11
1.042955473e-11
1.042871692e-11
1.042791865e-11
1.042663766e-11
1.042584128e-11
1.042547778e-11
1.042476107e-11
1.042449865e-11
1.042449865e-11
1.042449865e-11
1.042449865e-11
1.042449865e-11
1.042449865e-11
1.042449865e-11
1.042449865e-11
1.042449865e-11
1.042449865e-11
1.042449865e-11
1.042449865e-11
1.042449865e-11
1.042449865e-11
1.042449865e-11
1.042449865e-11
1.042449865e-11
1.072129388e-11
1.196543748e-11
1.525272105e-11
2.347057711e-11
4.348824288e-11
9.175256174e-11
2.079997466e-10
1.043436448e-11
1.043380388e-11
1.043309438e-11
1.043253938e-11
1.043191953e-11
1.043140989e-11
1.043099257e-11
1.043039523e-11
1.043001919e-11
1.042971191e-11
1.042894871e-11
1.0427825e-11
1.042673848e-11
1.042579702e-11
1.042534615e-11
1.042450665e-11
1.042449865e-11
1.042449865e-11
1.042449865e-11
1.042449865e-11
1.042449865e-11
1.042449865e-11
1.042449865e-11
1.042449865e-11
1.042449865e-11
1.042449865e-11
1.042449865e-11
1.042449865e-11
1.042449865e-11
1.042449865e-11
1.042449865e-11
1.042449865e-11
1.042449865e-11
1.07859087e-11
1.214401537e-11
1.569787821e-11
2.45322791e-11
4.5972369e-11
9.75314947e-11
2.214693065e-10
1.043478119e-11
1.043422055e-11
1.043371285e-11
1.043314984e-11
1.043238877e-11
1.043167578e-11
1.043116536e-11
1.043067751e-11
1.043039653e-11
1.042985948e-11
1.042906895e-11
1.042779396e-11
1.042664834e-11
1.042566281e-11
1.042513513e-11
1.042449865e-11
1.042449865e-11
1.042449865e-11
1.042449865e-11
1.042449865e-11
1.042449865e-11
1.042449865e-11
1.042449865e-11
1.042449865e-11
1.042449865e-11
1.042449865e-11
1.042449865e-11
1.042449865e-11
1.042449865e-11
1.042449865e-11
1.042449865e-11
1.042449865e-11
1.042449865e-11
1.085729941e-11
1.233802637e-11
1.617749568e-11
2.567089084e-11
4.862814051e-11
1.036951628e-10
2.358100683e-10
1.043510893e-11
1.04346495e-11
1.043401663e-11
1.04336167e-11
1.043287872e-11
1.043204634e-11
1.043153548e-11
1.04310779e-11
1.043067039e-11
1.042993881e-11
1.042914855e-11
1.042780169e-11
1.042672658e-11
1.042558143e-11
1.042496866e-11
1.042449865e-11
1.042449865e-11
1.042449865e-11
1.042449865e-11
1.042449865e-11
1.042449865e-11
1.042449865e-11
1.042449865e-11
1.042449865e-11
1.042449865e-11
1.042449865e-11
1.042449865e-11
1.042449865e-11
1.042449865e-11
1.042449865e-11
1.042449865e-11
1.042449865e-11
1.042449865e-11
1.093600921e-11
1.254851122e-11
1.669414663e-11
2.689151508e-11
5.146664308e-11
1.102679933e-10
2.510761379e-10
1.0435567e-11
1.043507076e-11
1.043439629e-11
1.043396841e-11
1.043320615e-11
1.043246234e-11
1.04318853e-11
1.043123909e-11
1.043083118e-11
1.043014311e-11
1.042916145e-11
1.042788411e-11
1.042672099e-11
1.042556344e-11
1.042488842e-11
1.042449865e-11
1.042449865e-11
1.042449865e-11
1.042449865e-11
1.042449865e-11
1.042449865e-11
1.042449865e-11
1.042449865e-11
1.042449865e-11
1.042449865e-11
1.042449865e-11
1.042449865e-11
1.042449865e-11
1.042449865e-11
1.042449865e-11
1.042449865e-11
1.042449865e-11
1.042449865e-11
1.10225535e-11
1.277669111e-11
1.725026945e-11
2.819967085e-11
5.449951743e-11
1.172757577e-10
2.673247438e-10
1.043610013e-11
1.043558623e-11
1.043487437e-11
1.043423449e-11
1.043328271e-11
1.043251837e-11
1.043207456e-11
1.043149325e-11
1.043083588e-11
1.043024532e-11
1.042915679e-11
1.042774296e-11
1.042658496e-11
1.04254735e-11
1.042474507e-11
1.042449865e-11
1.042449865e-11
1.042449865e-11
1.042449865e-11
1.042449865e-11
1.042449865e-11
1.042449865e-11
1.042449865e-11
1.042449865e-11
1.042449865e-11
1.042449865e-11
1.042449865e-11
1.042449865e-11
1.042449865e-11
1.042449865e-11
1.042449865e-11
1.042449865e-11
1.042449865e-11
1.111763803e-11
1.302396959e-11
1.784872474e-11
2.960131334e-11
5.773942328e-11
1.247458549e-10
2.846165835e-10
1.043673565e-11
1.043606686e-11
1.043521265e-11
1.043439453e-11
1.0433427e-11
1.043264664e-11
1.043209487e-11
1.043153929e-11
1.043099627e-11
1.043029643e-11
1.042902367e-11
1.04276131e-11
1.042630317e-11
1.042525877e-11
1.042450236e-11
1.042449865e-11
1.042449865e-11
1.042449865e-11
1.042449865e-11
1.042449865e-11
1.042449865e-11
1.042449865e-11
1.042449865e-11
1.042449865e-11
1.042449865e-11
1.042449865e-11
1.042449865e-11
1.042449865e-11
1.042449865e-11
1.042449865e-11
1.042449865e-11
1.042449865e-11
1.045822944e-11
1.122193287e-11
1.329174821e-11
1.849224231e-11
3.110250674e-11
6.119981724e-11
1.327074205e-10
3.030158099e-10
1.043727048e-11
1.043655799e-11
1.043576581e-11
1.043487704e-11
1.043366657e-11
1.043282003e-11
1.043230469e-11
1.043172799e-11
1.043099863e-11
1.043035262e-11
1.042906648e-11
1.042756647e-11
1.042617134e-11
1.042508973e-11
1.042449865e-11
1.042449865e-11
1.042449865e-11
1.042449865e-11
1.042449865e-11
1.042449865e-11
1.042449865e-11
1.042449865e-11
1.042449865e-11
1.042449865e-11
1.042449865e-11
1.042449865e-11
1.042449865e-11
1.042449865e-11
1.042449865e-11
1.042449865e-11
1.042449865e-11
1.042449865e-11
1.049705503e-11
1.133603669e-11
1.358143251e-11
1.918395237e-11
3.270985051e-11
6.489459209e-11
1.411912075e-10
3.225906855e-10
1.043757766e-11
1.043687153e-11
1.043609745e-11
1.043522777e-11
1.043393862e-11
1.043301004e-11
1.043239179e-11
1.043173407e-11
1.043111734e-11
1.043044149e-11
1.042920503e-11
1.042759119e-11
1.042589244e-11
1.042489213e-11
1.042449865e-11
1.042449865e-11
1.042449865e-11
1.042449865e-11
1.042449865e-11
1.042449865e-11
1.042449865e-11
1.042449865e-11
1.042449865e-11
1.042449865e-11
1.042449865e-11
1.042449865e-11
1.042449865e-11
1.042449865e-11