/*--------------------------------*- C++ -*----------------------------------*\
| =========                 |                                                 |
| \\      /  F ield         | OpenFOAM: The Open Source CFD Toolbox           |
|  \\    /   O peration     | Version:  v2006                                 |
|   \\  /    A nd           | Website:  www.openfoam.com                      |
|    \\/     M anipulation  |                                                 |
\*---------------------------------------------------------------------------*/
FoamFile
{
    version     2.0;
    format      ascii;
    class       volScalarField;
    location    "0.12";
    object      CH3;
}
// * * * * * * * * * * * * * * * * * * * * * * * * * * * * * * * * * * * * * //

dimensions      [0 0 0 0 0 0 0];


internalField   nonuniform List<scalar> 
168000
(
3.278538127e-13
3.278538081e-13
3.278537934e-13
3.278537864e-13
3.278537861e-13
3.278537861e-13
3.278537888e-13
3.278537951e-13
3.278538042e-13
3.278538242e-13
3.278537984e-13
3.278537993e-13
3.27853791e-13
3.278537862e-13
3.278537953e-13
3.278538124e-13
3.278538061e-13
3.278537905e-13
3.278538096e-13
3.278538048e-13
3.278537982e-13
3.278537876e-13
3.278537867e-13
3.278537911e-13
3.278537861e-13
3.278537861e-13
3.278537861e-13
3.278537861e-13
3.278537861e-13
3.278537861e-13
3.278537861e-13
3.278537861e-13
3.278537861e-13
3.278537861e-13
3.278537861e-13
3.278537861e-13
3.278566155e-13
3.279469512e-13
3.281394563e-13
3.287846581e-13
3.278538621e-13
3.278538381e-13
3.278538048e-13
3.278537921e-13
3.278537871e-13
3.278537861e-13
3.278538235e-13
3.278538505e-13
3.278538748e-13
3.278538839e-13
3.278538535e-13
3.278538532e-13
3.278538317e-13
3.278538053e-13
3.278538259e-13
3.278538483e-13
3.278538471e-13
3.278538128e-13
3.278538402e-13
3.278538462e-13
3.278538374e-13
3.278538009e-13
3.278538285e-13
3.278537861e-13
3.278537861e-13
3.278537861e-13
3.278537861e-13
3.278537861e-13
3.278537861e-13
3.278537861e-13
3.278537861e-13
3.278537861e-13
3.278537861e-13
3.278537861e-13
3.278537861e-13
3.278537861e-13
3.278620074e-13
3.279550943e-13
3.281722544e-13
3.288541797e-13
3.278538857e-13
3.278538505e-13
3.278538215e-13
3.278538044e-13
3.27853797e-13
3.278538011e-13
3.278538293e-13
3.278538542e-13
3.278539257e-13
3.27853933e-13
3.278538808e-13
3.278538836e-13
3.278538388e-13
3.278538155e-13
3.278538493e-13
3.278538877e-13
3.278538782e-13
3.278538441e-13
3.278538588e-13
3.278538741e-13
3.278538634e-13
3.27853822e-13
3.27853854e-13
3.278537861e-13
3.278537861e-13
3.278537861e-13
3.278537861e-13
3.278537861e-13
3.278537861e-13
3.278537861e-13
3.278537861e-13
3.278537861e-13
3.278537861e-13
3.278537861e-13
3.278537861e-13
3.278537861e-13
3.27867301e-13
3.279647655e-13
3.282064104e-13
3.289300281e-13
3.278539047e-13
3.278538931e-13
3.278538384e-13
3.278538211e-13
3.278538426e-13
3.278538528e-13
3.278538695e-13
3.278538723e-13
3.278539498e-13
3.278539817e-13
3.27853927e-13
3.278538962e-13
3.278538541e-13
3.278538327e-13
3.27853888e-13
3.278539181e-13
3.278539113e-13
3.278538942e-13
3.278538657e-13
3.278539057e-13
3.278538967e-13
3.278538569e-13
3.278538565e-13
3.278537861e-13
3.278537861e-13
3.278537861e-13
3.278537861e-13
3.278537861e-13
3.278537861e-13
3.278537861e-13
3.278537861e-13
3.278537861e-13
3.278537861e-13
3.278537861e-13
3.278537861e-13
3.278537861e-13
3.278726335e-13
3.279758737e-13
3.282422619e-13
3.290124122e-13
3.278539347e-13
3.278539283e-13
3.278538778e-13
3.27853876e-13
3.27853846e-13
3.278538536e-13
3.27853889e-13
3.278538998e-13
3.278539625e-13
3.2785402e-13
3.278539972e-13
3.278539397e-13
3.278538779e-13
3.278538574e-13
3.278539049e-13
3.278539291e-13
3.278539459e-13
3.278539343e-13
3.278538806e-13
3.278539251e-13
3.278539172e-13
3.27853865e-13
3.278538262e-13
3.278537861e-13
3.278537861e-13
3.278537861e-13
3.278537861e-13
3.278537861e-13
3.278537861e-13
3.278537861e-13
3.278537861e-13
3.278537861e-13
3.278537861e-13
3.278537861e-13
3.278537861e-13
3.278537861e-13
3.278781199e-13
3.279883923e-13
3.282801263e-13
3.29101616e-13
3.278539489e-13
3.278539537e-13
3.278539314e-13
3.278538905e-13
3.278538637e-13
3.278538636e-13
3.278539023e-13
3.278539451e-13
3.278540029e-13
3.278540505e-13
3.278540397e-13
3.278539536e-13
3.278539201e-13
3.278538834e-13
3.278539295e-13
3.278539461e-13
3.278539821e-13
3.278539543e-13
3.278539064e-13
3.27853937e-13
3.278539172e-13
3.278538605e-13
3.278537861e-13
3.278537861e-13
3.278537861e-13
3.278537861e-13
3.278537861e-13
3.278537861e-13
3.278537861e-13
3.278537861e-13
3.278537861e-13
3.278537861e-13
3.278537861e-13
3.278537861e-13
3.278537861e-13
3.278542456e-13
3.278838538e-13
3.280023153e-13
3.283203089e-13
3.291979612e-13
3.278539443e-13
3.278539595e-13
3.2785394e-13
3.278539413e-13
3.278538876e-13
3.27853888e-13
3.278539202e-13
3.278539384e-13
3.278539979e-13
3.278540728e-13
3.278540695e-13
3.278539798e-13
3.278539328e-13
3.278539142e-13
3.278539456e-13
3.278539775e-13
3.278540107e-13
3.27853969e-13
3.278539297e-13
3.278539282e-13
3.278539004e-13
3.278538438e-13
3.278537861e-13
3.278537861e-13
3.278537861e-13
3.278537861e-13
3.278537861e-13
3.278537861e-13
3.278537861e-13
3.278537861e-13
3.278537861e-13
3.278537861e-13
3.278537861e-13
3.278537861e-13
3.278537861e-13
3.278553378e-13
3.278899233e-13
3.280176579e-13
3.283630982e-13
3.293018093e-13
3.27853945e-13
3.278539503e-13
3.278539339e-13
3.278539662e-13
3.278539229e-13
3.278539357e-13
3.278539495e-13
3.278539458e-13
3.278540046e-13
3.27854091e-13
3.278540912e-13
3.278540286e-13
3.278539632e-13
3.27853962e-13
3.278539825e-13
3.278539847e-13
3.278540286e-13
3.278540039e-13
3.278539496e-13
3.278539375e-13
3.278538966e-13
3.278538009e-13
3.278537861e-13
3.278537861e-13
3.278537861e-13
3.278537861e-13
3.278537861e-13
3.278537861e-13
3.278537861e-13
3.278537861e-13
3.278537861e-13
3.278537861e-13
3.278537861e-13
3.278537861e-13
3.278537861e-13
3.278567021e-13
3.278964016e-13
3.280344407e-13
3.284087769e-13
3.294135755e-13
3.278539595e-13
3.27853953e-13
3.278539425e-13
3.278539762e-13
3.278539375e-13
3.278539312e-13
3.278539473e-13
3.278539542e-13
3.278540222e-13
3.278541173e-13
3.278541082e-13
3.278540404e-13
3.278540073e-13
3.278539843e-13
3.278540004e-13
3.278539982e-13
3.278540275e-13
3.278540129e-13
3.278539853e-13
3.278539603e-13
3.27853884e-13
3.278537861e-13
3.278537861e-13
3.278537861e-13
3.278537861e-13
3.278537861e-13
3.278537861e-13
3.278537861e-13
3.278537861e-13
3.278537861e-13
3.278537861e-13
3.278537861e-13
3.278537861e-13
3.278537861e-13
3.278537861e-13
3.278583545e-13
3.279033576e-13
3.280527303e-13
3.284576224e-13
3.295337132e-13
3.278539943e-13
3.278539827e-13
3.278539688e-13
3.278539691e-13
3.278539804e-13
3.278539471e-13
3.278539698e-13
3.278539697e-13
3.278540622e-13
3.278541393e-13
3.278541139e-13
3.278540696e-13
3.278540255e-13
3.278539938e-13
3.278539999e-13
3.278540125e-13
3.27854034e-13
3.278540165e-13
3.278539946e-13
3.278539799e-13
3.27853885e-13
3.278537861e-13
3.278537861e-13
3.278537861e-13
3.278537861e-13
3.278537861e-13
3.278537861e-13
3.278537861e-13
3.278537861e-13
3.278537861e-13
3.278537861e-13
3.278537861e-13
3.278537861e-13
3.278537861e-13
3.278537861e-13
3.278602855e-13
3.279108561e-13
3.280726103e-13
3.28509925e-13
3.296627177e-13
3.278540239e-13
3.278540279e-13
3.278540219e-13
3.27853998e-13
3.278539918e-13
3.278539676e-13
3.278539902e-13
3.278539892e-13
3.27854059e-13
3.278541658e-13
3.278541588e-13
3.278541391e-13
3.278540777e-13
3.278540253e-13
3.278540192e-13
3.278540229e-13
3.278540384e-13
3.278540275e-13
3.278540254e-13
3.278539966e-13
3.27853865e-13
3.278537861e-13
3.278537861e-13
3.278537861e-13
3.278537861e-13
3.278537861e-13
3.278537861e-13
3.278537861e-13
3.278537861e-13
3.278537861e-13
3.278537861e-13
3.278537861e-13
3.278537861e-13
3.278537861e-13
3.278537861e-13
3.278625171e-13
3.27918966e-13
3.280941571e-13
3.28565969e-13
3.298011401e-13
3.278540326e-13
3.278540439e-13
3.278540222e-13
3.278540614e-13
3.278540544e-13
3.278540014e-13
3.278540342e-13
3.278540173e-13
3.278540754e-13
3.278541967e-13
3.278542158e-13
3.278541893e-13
3.278540997e-13
3.278540475e-13
3.278540643e-13
3.278540447e-13
3.278540616e-13
3.278540563e-13
3.278540341e-13
3.278540051e-13
3.278538659e-13
3.278537861e-13
3.278537861e-13
3.278537861e-13
3.278537861e-13
3.278537861e-13
3.278537861e-13
3.278537861e-13
3.278537861e-13
3.278537861e-13
3.278537861e-13
3.278537861e-13
3.278537861e-13
3.278537861e-13
3.278537861e-13
3.27865066e-13
3.279277477e-13
3.281174838e-13
3.286260502e-13
3.299495557e-13
3.278540408e-13
3.278540378e-13
3.278540321e-13
3.27854094e-13
3.278540911e-13
3.278540338e-13
3.278540679e-13
3.278540464e-13
3.278541056e-13
3.278542264e-13
3.2785426e-13
3.278542245e-13
3.278541551e-13
3.278540825e-13
3.278540943e-13
3.278540732e-13
3.278540666e-13
3.278540624e-13
3.278540411e-13
3.278540043e-13
3.278538463e-13
3.278537861e-13
3.278537861e-13
3.278537861e-13
3.278537861e-13
3.278537861e-13
3.278537861e-13
3.278537861e-13
3.278537861e-13
3.278537861e-13
3.278537861e-13
3.278537861e-13
3.278537861e-13
3.278537861e-13
3.278537861e-13
3.278679504e-13
3.279372697e-13
3.281426962e-13
3.286904808e-13
3.301085965e-13
3.278540411e-13
3.278540498e-13
3.278540425e-13
3.278541076e-13
3.278541089e-13
3.278540595e-13
3.27854079e-13
3.278540792e-13
3.278541376e-13
3.278542567e-13
3.278542867e-13
3.278542287e-13
3.278541933e-13
3.278541298e-13
3.278540982e-13
3.278540914e-13
3.278540952e-13
3.278540796e-13
3.278540546e-13
3.278539835e-13
3.27853802e-13
3.278537861e-13
3.278537861e-13
3.278537861e-13
3.278537861e-13
3.278537861e-13
3.278537861e-13
3.278537861e-13
3.278537861e-13
3.278537861e-13
3.278537861e-13
3.278537861e-13
3.278537861e-13
3.278537861e-13
3.278537861e-13
3.278711878e-13
3.279475905e-13
3.281699219e-13
3.287595849e-13
3.302789385e-13
3.278540515e-13
3.278540418e-13
3.278540405e-13
3.278540999e-13
3.278540954e-13
3.278540905e-13
3.278541334e-13
3.278541292e-13
3.278541758e-13
3.278542817e-13
3.278543018e-13
3.27854251e-13
3.278542174e-13
3.278541443e-13
3.278541133e-13
3.278541063e-13
3.278541074e-13
3.278540698e-13
3.278540381e-13
3.278539329e-13
3.278537861e-13
3.278537861e-13
3.278537861e-13
3.278537861e-13
3.278537861e-13
3.278537861e-13
3.278537861e-13
3.278537861e-13
3.278537861e-13
3.278537861e-13
3.278537861e-13
3.278537861e-13
3.278537861e-13
3.278537861e-13
3.278537861e-13
3.278748008e-13
3.279587818e-13
3.281992941e-13
3.288337049e-13
3.304613091e-13
3.278540604e-13
3.278540536e-13
3.278540405e-13
3.278540676e-13
3.278541194e-13
3.278541361e-13
3.278541667e-13
3.278542013e-13
3.27854231e-13
3.278543132e-13
3.278542926e-13
3.278542792e-13
3.278542149e-13
3.278541818e-13
3.278541562e-13
3.278541287e-13
3.278541264e-13
3.278540656e-13
3.278540359e-13
3.278538783e-13
3.278537861e-13
3.278537861e-13
3.278537861e-13
3.278537861e-13
3.278537861e-13
3.278537861e-13
3.278537861e-13
3.278537861e-13
3.278537861e-13
3.278537861e-13
3.278537861e-13
3.278537861e-13
3.278537861e-13
3.278537861e-13
3.278537861e-13
3.278788232e-13
3.279709147e-13
3.282309671e-13
3.289131897e-13
3.30656475e-13
3.278540656e-13
3.27854062e-13
3.278540606e-13
3.278540603e-13
3.278541021e-13
3.278541221e-13
3.278541732e-13
3.27854229e-13
3.278543087e-13
3.278543504e-13
3.27854308e-13
3.278542994e-13
3.278542299e-13
3.278541869e-13
3.278541668e-13
3.27854159e-13
3.278541273e-13
3.278540683e-13
3.278540217e-13
3.278538293e-13
3.278537861e-13
3.278537861e-13
3.278537861e-13
3.278537861e-13
3.278537861e-13
3.278537861e-13
3.278537861e-13
3.278537861e-13
3.278537861e-13
3.278537861e-13
3.278537861e-13
3.278537861e-13
3.278537861e-13
3.278537861e-13
3.278537861e-13
3.278832823e-13
3.279840712e-13
3.282650916e-13
3.289984209e-13
3.30865262e-13
3.2785407e-13
3.278540794e-13
3.278541049e-13
3.278540667e-13
3.278540832e-13
3.278541231e-13
3.27854215e-13
3.278542857e-13
3.27854362e-13
3.278543914e-13
3.278543523e-13
3.278542999e-13
3.278542688e-13
3.278542123e-13
3.278541903e-13
3.278541653e-13
3.278541466e-13
3.278540859e-13
3.27854017e-13
3.278537861e-13
3.278537861e-13
3.278537861e-13
3.278537861e-13
3.278537861e-13
3.278537861e-13
3.278537861e-13
3.278537861e-13
3.278537861e-13
3.278537861e-13
3.278537861e-13
3.278537861e-13
3.278537861e-13
3.278537861e-13
3.278537861e-13
3.278537861e-13
3.27888213e-13
3.279983249e-13
3.283018462e-13
3.290897933e-13
3.310885545e-13
3.278540941e-13
3.278541074e-13
3.278541248e-13
3.278540889e-13
3.278540937e-13
3.278541398e-13
3.278542168e-13
3.278542925e-13
3.278543921e-13
3.278544126e-13
3.278543581e-13
3.278543121e-13
3.278543023e-13
3.278542238e-13
3.278541948e-13
3.278541747e-13
3.27854161e-13
3.278540773e-13
3.278539916e-13
3.278537861e-13
3.278537861e-13
3.278537861e-13
3.278537861e-13
3.278537861e-13
3.278537861e-13
3.278537861e-13
3.278537861e-13
3.278537861e-13
3.278537861e-13
3.278537861e-13
3.278537861e-13
3.278537861e-13
3.278537861e-13
3.278537861e-13
3.278543721e-13
3.278936458e-13
3.280137633e-13
3.283414145e-13
3.291877315e-13
3.313272811e-13
3.278541122e-13
3.278541441e-13
3.278541563e-13
3.278541215e-13
3.278541213e-13
3.27854167e-13
3.278542572e-13
3.278543288e-13
3.278544061e-13
3.278544456e-13
3.278543875e-13
3.278543407e-13
3.278543378e-13
3.278542572e-13
3.278542157e-13
3.27854201e-13
3.278541755e-13
3.278540843e-13
3.278539528e-13
3.278537861e-13
3.278537861e-13
3.278537861e-13
3.278537861e-13
3.278537861e-13
3.278537861e-13
3.278537861e-13
3.278537861e-13
3.278537861e-13
3.278537861e-13
3.278537861e-13
3.278537861e-13
3.278537861e-13
3.278537861e-13
3.278537861e-13
3.278560044e-13
3.2789962e-13
3.280304781e-13
3.283839918e-13
3.292926804e-13
3.315824448e-13
3.278541309e-13
3.278541618e-13
3.278541541e-13
3.278541861e-13
3.278541636e-13
3.278542182e-13
3.278542589e-13
3.278543091e-13
3.278543865e-13
3.278544689e-13
3.278544467e-13
3.278543897e-13
3.278543626e-13
3.278542869e-13
3.278542375e-13
3.278542115e-13
3.278541753e-13
3.278540639e-13
3.278538996e-13
3.278537861e-13
3.278537861e-13
3.278537861e-13
3.278537861e-13
3.278537861e-13
3.278537861e-13
3.278537861e-13
3.278537861e-13
3.278537861e-13
3.278537861e-13
3.278537861e-13
3.278537861e-13
3.278537861e-13
3.278537861e-13
3.278537861e-13
3.27857884e-13
3.279061734e-13
3.280485568e-13
3.284297856e-13
3.29405113e-13
3.318551008e-13
3.278541507e-13
3.278541648e-13
3.278541697e-13
3.278542278e-13
3.278542048e-13
3.278542256e-13
3.278542811e-13
3.278543117e-13
3.278543964e-13
3.278544873e-13
3.278544824e-13
3.278543909e-13
3.278543713e-13
3.278542866e-13
3.278542542e-13
3.278542037e-13
3.278541482e-13
3.278540369e-13
3.278538602e-13
3.278537861e-13
3.278537861e-13
3.278537861e-13
3.278537861e-13
3.278537861e-13
3.278537861e-13
3.278537861e-13
3.278537861e-13
3.278537861e-13
3.278537861e-13
3.278537861e-13
3.278537861e-13
3.278537861e-13
3.278537861e-13
3.278537861e-13
3.27860029e-13
3.279133542e-13
3.280681085e-13
3.284790215e-13
3.295255337e-13
3.321463836e-13
3.278541504e-13
3.278541831e-13
3.278541966e-13
3.278542598e-13
3.278542683e-13
3.278542455e-13
3.278542876e-13
3.278543293e-13
3.278544361e-13
3.278545086e-13
3.278545006e-13
3.278544002e-13
3.278543547e-13
3.278542782e-13
3.278542509e-13
3.27854198e-13
3.278541427e-13
3.278540078e-13
3.278538119e-13
3.278537861e-13
3.278537861e-13
3.278537861e-13
3.278537861e-13
3.278537861e-13
3.278537861e-13
3.278537861e-13
3.278537861e-13
3.278537861e-13
3.278537861e-13
3.278537861e-13
3.278537861e-13
3.278537861e-13
3.278537861e-13
3.278537861e-13
3.2786246e-13
3.279212132e-13
3.280892391e-13
3.285319292e-13
3.296544793e-13
3.324574887e-13
3.278541633e-13
3.278541782e-13
3.27854217e-13
3.278542672e-13
3.278542919e-13
3.278542739e-13
3.278543047e-13
3.278543571e-13
3.278544445e-13
3.278545183e-13
3.27854505e-13
3.278544152e-13
3.278543714e-13
3.27854281e-13
3.278542671e-13
3.278542055e-13
3.278541395e-13
3.278539737e-13
3.278537861e-13
3.278537861e-13
3.278537861e-13
3.278537861e-13
3.278537861e-13
3.278537861e-13
3.278537861e-13
3.278537861e-13
3.278537861e-13
3.278537861e-13
3.278537861e-13
3.278537861e-13
3.278537861e-13
3.278537861e-13
3.278537861e-13
3.278537861e-13
3.278651943e-13
3.279297999e-13
3.28112058e-13
3.285887656e-13
3.297925127e-13
3.327896831e-13
3.278541609e-13
3.278541816e-13
3.278542164e-13
3.278542278e-13
3.278542877e-13
3.278543106e-13
3.278543443e-13
3.278544117e-13
3.278544955e-13
3.278545242e-13
3.278544873e-13
3.278544434e-13
3.278543696e-13
3.278542857e-13
3.278542804e-13
3.278542249e-13
3.278541271e-13
3.278539448e-13
3.278537861e-13
3.278537861e-13
3.278537861e-13
3.278537861e-13
3.278537861e-13
3.278537861e-13
3.278537861e-13
3.278537861e-13
3.278537861e-13
3.278537861e-13
3.278537861e-13
3.278537861e-13
3.278537861e-13
3.278537861e-13
3.278537861e-13
3.278537861e-13
3.278682591e-13
3.279391665e-13
3.281366918e-13
3.286498099e-13
3.299402394e-13
3.331443236e-13
3.278541683e-13
3.278541699e-13
3.278541777e-13
3.278541991e-13
3.27854244e-13
3.278542872e-13
3.278543383e-13
3.278544091e-13
3.278545254e-13
3.278545508e-13
3.278544927e-13
3.278544512e-13
3.278543999e-13
3.27854289e-13
3.278542638e-13
3.278542308e-13
3.278541056e-13
3.278539061e-13
3.278537861e-13
3.278537861e-13
3.278537861e-13
3.278537861e-13
3.278537861e-13
3.278537861e-13
3.278537861e-13
3.278537861e-13
3.278537861e-13
3.278537861e-13
3.278537861e-13
3.278537861e-13
3.278537861e-13
3.278537861e-13
3.278537861e-13
3.278537861e-13
3.278716814e-13
3.279493765e-13
3.281632686e-13
3.287153336e-13
3.300982935e-13
3.335228437e-13
3.27854167e-13
3.278541696e-13
3.278541725e-13
3.278541968e-13
3.278542347e-13
3.278542851e-13
3.278543568e-13
3.278544173e-13
3.278545451e-13
3.278545738e-13
3.278545247e-13
3.278544943e-13
3.278544242e-13
3.278542968e-13
3.278542599e-13
3.278542171e-13
3.278540848e-13
3.278538761e-13
3.278537861e-13
3.278537861e-13
3.278537861e-13
3.278537861e-13
3.278537861e-13
3.278537861e-13
3.278537861e-13
3.278537861e-13
3.278537861e-13
3.278537861e-13
3.278537861e-13
3.278537861e-13
3.278537861e-13
3.278537861e-13
3.278537861e-13
3.278537861e-13
3.278754925e-13
3.279604905e-13
3.281919263e-13
3.28785644e-13
3.302673585e-13
3.339267676e-13
3.278541868e-13
3.278541887e-13
3.27854198e-13
3.278542281e-13
3.278542686e-13
3.278543115e-13
3.278543733e-13
3.278544315e-13
3.2785456e-13
3.278545874e-13
3.278545316e-13
3.278545123e-13
3.278544309e-13
3.278543001e-13
3.278542589e-13
3.27854224e-13
3.278540668e-13
3.278538244e-13
3.278537861e-13
3.278537861e-13
3.278537861e-13
3.278537861e-13
3.278537861e-13
3.278537861e-13
3.278537861e-13
3.278537861e-13
3.278537861e-13
3.278537861e-13
3.278537861e-13
3.278537861e-13
3.278537861e-13
3.278537861e-13
3.278537861e-13
3.278537861e-13
3.278797184e-13
3.279725686e-13
3.282228136e-13
3.288610768e-13
3.304481533e-13
3.343577198e-13
3.27854201e-13
3.278542215e-13
3.278542435e-13
3.278543058e-13
3.278543142e-13
3.278543649e-13
3.278544204e-13
3.278544487e-13
3.278545652e-13
3.278546049e-13
3.278545539e-13
3.278545031e-13
3.27854408e-13
3.278543062e-13
3.278542693e-13
3.278542227e-13
3.278540666e-13
3.27853801e-13
3.278537861e-13
3.278537861e-13
3.278537861e-13
3.278537861e-13
3.278537861e-13
3.278537861e-13
3.278537861e-13
3.278537861e-13
3.278537861e-13
3.278537861e-13
3.278537861e-13
3.278537861e-13
3.278537861e-13
3.278537861e-13
3.278537861e-13
3.278537861e-13
3.278843887e-13
3.279856817e-13
3.282560897e-13
3.289419702e-13
3.306414482e-13
3.348174111e-13
3.278542197e-13
3.278542427e-13
3.278543029e-13
3.278543642e-13
3.278543831e-13
3.278543745e-13
3.278544219e-13
3.278544656e-13
3.278545454e-13
3.27854614e-13
3.278545954e-13
3.278545255e-13
3.278544101e-13
3.278543037e-13
3.278542554e-13
3.278542089e-13
3.278540485e-13
3.278537861e-13
3.278537861e-13
3.278537861e-13
3.278537861e-13
3.278537861e-13
3.278537861e-13
3.278537861e-13
3.278537861e-13
3.278537861e-13
3.278537861e-13
3.278537861e-13
3.278537861e-13
3.278537861e-13
3.278537861e-13
3.278537861e-13
3.278537861e-13
3.278537861e-13
3.27889543e-13
3.279999154e-13
3.282919297e-13
3.290286975e-13
3.308480518e-13
3.353076805e-13
3.278542521e-13
3.278542649e-13
3.278543045e-13
3.278543952e-13
3.278544125e-13
3.278543885e-13
3.278544314e-13
3.27854503e-13
3.278545576e-13
3.278546277e-13
3.278546233e-13
3.278545225e-13
3.278544458e-13
3.278543086e-13
3.278542468e-13
3.278541716e-13
3.278540145e-13
3.278537861e-13
3.278537861e-13
3.278537861e-13
3.278537861e-13
3.278537861e-13
3.278537861e-13
3.278537861e-13
3.278537861e-13
3.278537861e-13
3.278537861e-13
3.278537861e-13
3.278537861e-13
3.278537861e-13
3.278537861e-13
3.278537861e-13
3.278537861e-13
3.278537861e-13
3.278952092e-13
3.280153458e-13
3.283305037e-13
3.29121648e-13
3.310688355e-13
3.35830451e-13
3.278542721e-13
3.278542817e-13
3.278543183e-13
3.278544068e-13
3.278544106e-13
3.278544072e-13
3.278544423e-13
3.27854503e-13
3.278545942e-13
3.278546423e-13
3.278546378e-13
3.278545347e-13
3.278544724e-13
3.278543226e-13
3.278542396e-13
3.278541385e-13
3.278539698e-13
3.278537861e-13
3.278537861e-13
3.278537861e-13
3.278537861e-13
3.278537861e-13
3.278537861e-13
3.278537861e-13
3.278537861e-13
3.278537861e-13
3.278537861e-13
3.278537861e-13
3.278537861e-13
3.278537861e-13
3.278537861e-13
3.278537861e-13
3.278537861e-13
3.278554017e-13
3.279014343e-13
3.2803206e-13
3.283719993e-13
3.292212414e-13
3.31304717e-13
3.363877768e-13
3.278542859e-13
3.278542978e-13
3.278543434e-13
3.278544104e-13
3.278544303e-13
3.278544494e-13
3.278544711e-13
3.278545239e-13
3.278545989e-13
3.278546642e-13
3.278546445e-13
3.278545628e-13
3.278544858e-13
3.278543509e-13
3.278542548e-13
3.27854122e-13
3.278539213e-13
3.278537861e-13
3.278537861e-13
3.278537861e-13
3.278537861e-13
3.278537861e-13
3.278537861e-13
3.278537861e-13
3.278537861e-13
3.278537861e-13
3.278537861e-13
3.278537861e-13
3.278537861e-13
3.278537861e-13
3.278537861e-13
3.278537861e-13
3.278537861e-13
3.27857552e-13
3.279082577e-13
3.280501543e-13
3.284166231e-13
3.293279188e-13
3.315566709e-13
3.36981844e-13
3.278543149e-13
3.278543385e-13
3.278543884e-13
3.278543787e-13
3.278543965e-13
3.278544347e-13
3.278545118e-13
3.278545715e-13
3.278546401e-13
3.278546742e-13
3.278546443e-13
3.27854546e-13
3.278544797e-13
3.278543547e-13
3.278542481e-13
3.278540903e-13
3.278538622e-13
3.278537861e-13
3.278537861e-13
3.278537861e-13
3.278537861e-13
3.278537861e-13
3.278537861e-13
3.278537861e-13
3.278537861e-13
3.278537861e-13
3.278537861e-13
3.278537861e-13
3.278537861e-13
3.278537861e-13
3.278537861e-13
3.278537861e-13
3.278537861e-13
3.278599804e-13
3.279157321e-13
3.280697275e-13
3.284645972e-13
3.294421488e-13
3.31825727e-13
3.376149562e-13
3.278543593e-13
3.278543898e-13
3.2785441e-13
3.278543737e-13
3.278543874e-13
3.278544332e-13
3.278545096e-13
3.278545689e-13
3.278546468e-13
3.2785468e-13
3.278546166e-13
3.278545342e-13
3.278544361e-13
3.278543234e-13
3.278542103e-13
3.278540433e-13
3.278537882e-13
3.278537861e-13
3.278537861e-13
3.278537861e-13
3.278537861e-13
3.278537861e-13
3.278537861e-13
3.278537861e-13
3.278537861e-13
3.278537861e-13
3.278537861e-13
3.278537861e-13
3.278537861e-13
3.278537861e-13
3.278537861e-13
3.278537861e-13
3.278537861e-13
3.278627109e-13
3.279239004e-13
3.280908806e-13
3.285161414e-13
3.295644224e-13
3.321129921e-13
3.382895641e-13
3.278543882e-13
3.278544077e-13
3.278544133e-13
3.27854383e-13
3.278544001e-13
3.27854449e-13
3.278545474e-13
3.278545929e-13
3.278546237e-13
3.278546787e-13
3.278546225e-13
3.278545528e-13
3.278544081e-13
3.278543107e-13
3.278541904e-13
3.278539949e-13
3.278537861e-13
3.278537861e-13
3.278537861e-13
3.278537861e-13
3.278537861e-13
3.278537861e-13
3.278537861e-13
3.278537861e-13
3.278537861e-13
3.278537861e-13
3.278537861e-13
3.278537861e-13
3.278537861e-13
3.278537861e-13
3.278537861e-13
3.278537861e-13
3.278537861e-13
3.278657586e-13
3.279328128e-13
3.281137315e-13
3.285715021e-13
3.296952763e-13
3.324196325e-13
3.390082714e-13
3.278544044e-13
3.278544082e-13
3.278544197e-13
3.278544098e-13
3.278544272e-13
3.278544818e-13
3.278545718e-13
3.278545733e-13
3.27854607e-13
3.278546662e-13
3.27854603e-13
3.278545501e-13
3.278543836e-13
3.27854265e-13
3.278541378e-13
3.278539334e-13
3.278537861e-13
3.278537861e-13
3.278537861e-13
3.278537861e-13
3.278537861e-13
3.278537861e-13
3.278537861e-13
3.278537861e-13
3.278537861e-13
3.278537861e-13
3.278537861e-13
3.278537861e-13
3.278537861e-13
3.278537861e-13
3.278537861e-13
3.278537861e-13
3.278537861e-13
3.278691541e-13
3.279425304e-13
3.281383999e-13
3.286309351e-13
3.298352807e-13
3.327468843e-13
3.397738305e-13
3.278544181e-13
3.278544275e-13
3.278544339e-13
3.278544714e-13
3.278544676e-13
3.278545314e-13
3.27854585e-13
3.278545731e-13
3.278546076e-13
3.278546713e-13
3.278546047e-13
3.278545375e-13
3.27854369e-13
3.278542336e-13
3.278541124e-13
3.278538736e-13
3.278537861e-13
3.278537861e-13
3.278537861e-13
3.278537861e-13
3.278537861e-13
3.278537861e-13
3.278537861e-13
3.278537861e-13
3.278537861e-13
3.278537861e-13
3.278537861e-13
3.278537861e-13
3.278537861e-13
3.278537861e-13
3.278537861e-13
3.278537861e-13
3.278537861e-13
3.27872917e-13
3.279531125e-13
3.281650055e-13
3.286947153e-13
3.299850217e-13
3.330960618e-13
3.405891678e-13
3.278544565e-13
3.278544807e-13
3.278544787e-13
3.278545011e-13
3.278545103e-13
3.278545371e-13
3.278545792e-13
3.278545848e-13
3.278546273e-13
3.278546816e-13
3.278546335e-13
3.278545062e-13
3.278543754e-13
3.278542188e-13
3.278540686e-13
3.278537888e-13
3.278537861e-13
3.278537861e-13
3.278537861e-13
3.278537861e-13
3.278537861e-13
3.278537861e-13
3.278537861e-13
3.278537861e-13
3.278537861e-13
3.278537861e-13
3.278537861e-13
3.278537861e-13
3.278537861e-13
3.278537861e-13
3.278537861e-13
3.278537861e-13
3.278537861e-13
3.27877082e-13
3.279646234e-13
3.281936996e-13
3.287631509e-13
3.301451445e-13
3.334685625e-13
3.414573939e-13
3.278544872e-13
3.278545194e-13
3.278545543e-13
3.27854583e-13
3.278545676e-13
3.278545623e-13
3.278545915e-13
3.278546192e-13
3.278546833e-13
3.278546919e-13
3.278546464e-13
3.278544895e-13
3.278543486e-13
3.278541741e-13
3.278539982e-13
3.278537861e-13
3.278537861e-13
3.278537861e-13
3.278537861e-13
3.278537861e-13
3.278537861e-13
3.278537861e-13
3.278537861e-13
3.278537861e-13
3.278537861e-13
3.278537861e-13
3.278537861e-13
3.278537861e-13
3.278537861e-13
3.278537861e-13
3.278537861e-13
3.278537861e-13
3.278537861e-13
3.278816837e-13
3.27977129e-13
3.28224615e-13
3.288365439e-13
3.303163312e-13
3.338658626e-13
3.423817763e-13
3.278545016e-13
3.278545531e-13
3.278545708e-13
3.278546363e-13
3.278546366e-13
3.278546091e-13
3.278546424e-13
3.278546801e-13
3.278547197e-13
3.278546981e-13
3.278546521e-13
3.278544836e-13
3.27854356e-13
3.27854147e-13
3.278539428e-13
3.278537861e-13
3.278537861e-13
3.278537861e-13
3.278537861e-13
3.278537861e-13
3.278537861e-13
3.278537861e-13
3.278537861e-13
3.278537861e-13
3.278537861e-13
3.278537861e-13
3.278537861e-13
3.278537861e-13
3.278537861e-13
3.278537861e-13
3.278537861e-13
3.278537861e-13
3.278537861e-13
3.278867572e-13
3.279906965e-13
3.282579175e-13
3.289152234e-13
3.304992965e-13
3.342895367e-13
3.433658025e-13
3.278545354e-13
3.278545848e-13
3.278546009e-13
3.278546672e-13
3.278546684e-13
3.27854663e-13
3.278546854e-13
3.278546923e-13
3.27854737e-13
3.278547241e-13
3.27854649e-13
3.278544892e-13
3.278543488e-13
3.27854141e-13
3.27853916e-13
3.278537861e-13
3.278537861e-13
3.278537861e-13
3.278537861e-13
3.278537861e-13
3.278537861e-13
3.278537861e-13
3.278537861e-13
3.278537861e-13
3.278537861e-13
3.278537861e-13
3.278537861e-13
3.278537861e-13
3.278537861e-13
3.278537861e-13
3.278537861e-13
3.278537861e-13
3.278537861e-13
3.278923358e-13
3.280054046e-13
3.282937643e-13
3.28999545e-13
3.306947907e-13
3.347412459e-13
3.444131614e-13
3.278545745e-13
3.278546287e-13
3.278546419e-13
3.278546802e-13
3.278546486e-13
3.278546465e-13
3.278547006e-13
3.278547221e-13
3.278547242e-13
3.278547299e-13
3.278546352e-13
3.278544576e-13
3.278543184e-13
3.27854111e-13
3.278538682e-13
3.278537861e-13
3.278537861e-13
3.278537861e-13
3.278537861e-13
3.278537861e-13
3.278537861e-13
3.278537861e-13
3.278537861e-13
3.278537861e-13
3.278537861e-13
3.278537861e-13
3.278537861e-13
3.278537861e-13
3.278537861e-13
3.278537861e-13
3.278537861e-13
3.278537861e-13
3.278537861e-13
3.278984647e-13
3.280213438e-13
3.283323397e-13
3.290898926e-13
3.309036298e-13
3.352227563e-13
3.455277655e-13
3.278546254e-13
3.2785467e-13
3.278546683e-13
3.278546728e-13
3.27854644e-13
3.27854645e-13
3.278546807e-13
3.278547119e-13
3.278547377e-13
3.278547283e-13
3.278545982e-13
3.278544255e-13
3.278542538e-13
3.278540394e-13
3.278537873e-13
3.278537861e-13
3.278537861e-13
3.278537861e-13
3.278537861e-13
3.278537861e-13
3.278537861e-13
3.278537861e-13
3.278537861e-13
3.278537861e-13
3.278537861e-13
3.278537861e-13
3.278537861e-13
3.278537861e-13
3.278537861e-13
3.278537861e-13
3.278537861e-13
3.278537861e-13
3.278559603e-13
3.279051874e-13
3.280386044e-13
3.283738198e-13
3.291866571e-13
3.311266812e-13
3.357359459e-13
3.467137499e-13
3.278546645e-13
3.278547127e-13
3.278547338e-13
3.278547297e-13
3.278546588e-13
3.27854649e-13
3.278546931e-13
3.278547268e-13
3.278547225e-13
3.278547262e-13
3.278546024e-13
3.278544073e-13
3.278542221e-13
3.278539831e-13
3.278537861e-13
3.278537861e-13
3.278537861e-13
3.278537861e-13
3.278537861e-13
3.278537861e-13
3.278537861e-13
3.278537861e-13
3.278537861e-13
3.278537861e-13
3.278537861e-13
3.278537861e-13
3.278537861e-13
3.278537861e-13
3.278537861e-13
3.278537861e-13
3.278537861e-13
3.278537861e-13
3.27858463e-13
3.279125424e-13
3.28057277e-13
3.284184064e-13
3.292902639e-13
3.313648404e-13
3.362827972e-13
3.479755148e-13
3.278546811e-13
3.278547341e-13
3.27854765e-13
3.278547656e-13
3.278546823e-13
3.278546606e-13
3.278546944e-13
3.278547128e-13
3.278547317e-13
3.278547302e-13
3.278546134e-13
3.278544022e-13
3.278541595e-13
3.278539172e-13
3.278537861e-13
3.278537861e-13
3.278537861e-13
3.278537861e-13
3.278537861e-13
3.278537861e-13
3.278537861e-13
3.278537861e-13
3.278537861e-13
3.278537861e-13
3.278537861e-13
3.278537861e-13
3.278537861e-13
3.278537861e-13
3.278537861e-13