/*--------------------------------*- C++ -*----------------------------------*\
| =========                 |                                                 |
| \\      /  F ield         | OpenFOAM: The Open Source CFD Toolbox           |
|  \\    /   O peration     | Version:  v2006                                 |
|   \\  /    A nd           | Website:  www.openfoam.com                      |
|    \\/     M anipulation  |                                                 |
\*---------------------------------------------------------------------------*/
FoamFile
{
    version     2.0;
    format      ascii;
    class       volScalarField;
    location    "0.12";
    object      CH3OCH2;
}
// * * * * * * * * * * * * * * * * * * * * * * * * * * * * * * * * * * * * * //

dimensions      [0 0 0 0 0 0 0];


internalField   nonuniform List<scalar> 
168000
(
5.817485417e-15
5.817013958e-15
5.816466557e-15
5.816028673e-15
5.81601275e-15
5.81601275e-15
5.816055067e-15
5.816156325e-15
5.816377708e-15
5.816842739e-15
5.81620771e-15
5.816222824e-15
5.816091339e-15
5.816014261e-15
5.816159348e-15
5.81653046e-15
5.816395034e-15
5.816082271e-15
5.816392496e-15
5.81631048e-15
5.816318174e-15
5.816036931e-15
5.816021818e-15
5.816127017e-15
5.81601275e-15
5.81601275e-15
5.81601275e-15
5.81601275e-15
5.81601275e-15
5.81601275e-15
5.81601275e-15
5.81601275e-15
5.81601275e-15
5.81601275e-15
5.81601275e-15
5.81601275e-15
5.992297019e-15
1.162066314e-14
2.361468908e-14
6.381397515e-14
5.819977833e-15
5.818665908e-15
5.817175134e-15
5.816386942e-15
5.816076442e-15
5.81601275e-15
5.816742963e-15
5.81737335e-15
5.817932191e-15
5.818093606e-15
5.817296837e-15
5.817250174e-15
5.816736673e-15
5.816318037e-15
5.816644482e-15
5.817119579e-15
5.817041475e-15
5.816437431e-15
5.81687118e-15
5.817032812e-15
5.816958677e-15
5.816248516e-15
5.816988556e-15
5.81601275e-15
5.81601275e-15
5.81601275e-15
5.81601275e-15
5.81601275e-15
5.81601275e-15
5.81601275e-15
5.81601275e-15
5.81601275e-15
5.81601275e-15
5.81601275e-15
5.81601275e-15
5.81601275e-15
6.328241876e-15
1.21280198e-14
2.565817582e-14
6.814551897e-14
5.821527013e-15
5.819734995e-15
5.818218095e-15
5.817151249e-15
5.81668948e-15
5.816595425e-15
5.81694219e-15
5.817367384e-15
5.818977598e-15
5.819087519e-15
5.817777654e-15
5.817738736e-15
5.816850022e-15
5.816479748e-15
5.817016267e-15
5.817661008e-15
5.817475709e-15
5.816933144e-15
5.817167399e-15
5.817410722e-15
5.817239943e-15
5.816582518e-15
5.817529854e-15
5.81601275e-15
5.81601275e-15
5.81601275e-15
5.81601275e-15
5.81601275e-15
5.81601275e-15
5.81601275e-15
5.81601275e-15
5.81601275e-15
5.81601275e-15
5.81601275e-15
5.81601275e-15
5.81601275e-15
6.658056352e-15
1.273058049e-14
2.778626181e-14
7.287125421e-14
5.822807417e-15
5.821419435e-15
5.819269017e-15
5.81819421e-15
5.818174043e-15
5.817920512e-15
5.817800489e-15
5.81777296e-15
5.819460548e-15
5.820120944e-15
5.818796073e-15
5.817814866e-15
5.817093344e-15
5.816753297e-15
5.817631375e-15
5.818108952e-15
5.818000137e-15
5.817729611e-15
5.817276214e-15
5.81791248e-15
5.817768905e-15
5.817137173e-15
5.81755131e-15
5.81601275e-15
5.81601275e-15
5.81601275e-15
5.81601275e-15
5.81601275e-15
5.81601275e-15
5.81601275e-15
5.81601275e-15
5.81601275e-15
5.81601275e-15
5.81601275e-15
5.81601275e-15
5.81601275e-15
6.990299096e-15
1.342267657e-14
3.001998938e-14
7.800419004e-14
5.824269584e-15
5.822903245e-15
5.82074948e-15
5.819968086e-15
5.818595115e-15
5.818175902e-15
5.818489875e-15
5.818459483e-15
5.819679393e-15
5.82089056e-15
5.820278092e-15
5.818719612e-15
5.817471175e-15
5.817144729e-15
5.817898878e-15
5.818284265e-15
5.818550258e-15
5.818365877e-15
5.817513492e-15
5.81822079e-15
5.818093839e-15
5.817265635e-15
5.816880927e-15
5.81601275e-15
5.81601275e-15
5.81601275e-15
5.81601275e-15
5.81601275e-15
5.81601275e-15
5.81601275e-15
5.81601275e-15
5.81601275e-15
5.81601275e-15
5.81601275e-15
5.81601275e-15
5.81601275e-15
7.332127525e-15
1.420265206e-14
3.237913499e-14
8.35620329e-14
5.825141925e-15
5.82400744e-15
5.82244374e-15
5.820684407e-15
5.819476307e-15
5.818673538e-15
5.819133031e-15
5.819623343e-15
5.8206413e-15
5.821546125e-15
5.821119146e-15
5.818833229e-15
5.81814069e-15
5.81755732e-15
5.818290311e-15
5.81855328e-15
5.81912456e-15
5.818683254e-15
5.81792306e-15
5.818409705e-15
5.81809535e-15
5.817194603e-15
5.81601275e-15
5.81601275e-15
5.81601275e-15
5.81601275e-15
5.81601275e-15
5.81601275e-15
5.81601275e-15
5.81601275e-15
5.81601275e-15
5.81601275e-15
5.81601275e-15
5.81601275e-15
5.81601275e-15
5.844642424e-15
7.689377445e-15
1.50701248e-14
3.488271077e-14
8.956482196e-14
5.825239813e-15
5.824532713e-15
5.822935034e-15
5.822203514e-15
5.820175245e-15
5.81946429e-15
5.819624781e-15
5.81950465e-15
5.820533483e-15
5.821966193e-15
5.821752743e-15
5.819313749e-15
5.818341695e-15
5.818046988e-15
5.818545724e-15
5.819052016e-15
5.819579467e-15
5.818917509e-15
5.818293333e-15
5.818269152e-15
5.817827846e-15
5.81692861e-15
5.81601275e-15
5.81601275e-15
5.81601275e-15
5.81601275e-15
5.81601275e-15
5.81601275e-15
5.81601275e-15
5.81601275e-15
5.81601275e-15
5.81601275e-15
5.81601275e-15
5.81601275e-15
5.81601275e-15
5.912689648e-15
8.067542312e-15
1.602604221e-14
3.754869387e-14
9.603507245e-14
5.82557795e-15
5.824742901e-15
5.823212935e-15
5.823095958e-15
5.821216095e-15
5.82074868e-15
5.820297889e-15
5.819747408e-15
5.82076909e-15
5.822295473e-15
5.822192971e-15
5.820374486e-15
5.818825318e-15
5.818805671e-15
5.819132116e-15
5.819166877e-15
5.819863596e-15
5.819472163e-15
5.818609199e-15
5.818417262e-15
5.817767394e-15
5.816247005e-15
5.81601275e-15
5.81601275e-15
5.81601275e-15
5.81601275e-15
5.81601275e-15
5.81601275e-15
5.81601275e-15
5.81601275e-15
5.81601275e-15
5.81601275e-15
5.81601275e-15
5.81601275e-15
5.81601275e-15
5.997694939e-15
8.471168163e-15
1.707169406e-14
4.039470316e-14
1.029986673e-13
5.826477604e-15
5.82523614e-15
5.823871233e-15
5.823671401e-15
5.821792725e-15
5.820808973e-15
5.820589175e-15
5.820028058e-15
5.82116217e-15
5.822980187e-15
5.822457047e-15
5.82053115e-15
5.81952506e-15
5.819160831e-15
5.819416245e-15
5.819381484e-15
5.81984546e-15
5.819614228e-15
5.819175945e-15
5.818778467e-15
5.817567899e-15
5.81601275e-15
5.81601275e-15
5.81601275e-15
5.81601275e-15
5.81601275e-15
5.81601275e-15
5.81601275e-15
5.81601275e-15
5.81601275e-15
5.81601275e-15
5.81601275e-15
5.81601275e-15
5.81601275e-15
5.81601275e-15
6.100645525e-15
8.904562187e-15
1.821122832e-14
4.343802312e-14
1.104838461e-13
5.828086694e-15
5.82650248e-15
5.824917673e-15
5.823830581e-15
5.823043677e-15
5.821393861e-15
5.82112424e-15
5.820488475e-15
5.822135872e-15
5.823561213e-15
5.822541276e-15
5.821149229e-15
5.819813722e-15
5.819310452e-15
5.819407177e-15
5.819608182e-15
5.819949741e-15
5.819671658e-15
5.819324054e-15
5.819089799e-15
5.817583012e-15
5.81601275e-15
5.81601275e-15
5.81601275e-15
5.81601275e-15
5.81601275e-15
5.81601275e-15
5.81601275e-15
5.81601275e-15
5.81601275e-15
5.81601275e-15
5.81601275e-15
5.81601275e-15
5.81601275e-15
5.81601275e-15
6.220960215e-15
9.371760881e-15
1.944985181e-14
4.669673441e-14
1.185214677e-13
5.829547755e-15
5.828080072e-15
5.826615766e-15
5.824899987e-15
5.823640279e-15
5.822127588e-15
5.821851517e-15
5.821088664e-15
5.822131555e-15
5.824172654e-15
5.823580666e-15
5.822734155e-15
5.820898126e-15
5.819810699e-15
5.819713975e-15
5.819772916e-15
5.820019262e-15
5.819846971e-15
5.819812211e-15
5.819355792e-15
5.817265635e-15
5.81601275e-15
5.81601275e-15
5.81601275e-15
5.81601275e-15
5.81601275e-15
5.81601275e-15
5.81601275e-15
5.81601275e-15
5.81601275e-15
5.81601275e-15
5.81601275e-15
5.81601275e-15
5.81601275e-15
5.81601275e-15
6.360000432e-15
9.877047549e-15
2.079232555e-14
5.018855939e-14
1.271458702e-13
5.830220465e-15
5.82895835e-15
5.826969124e-15
5.826714234e-15
5.825423086e-15
5.823150707e-15
5.82300218e-15
5.821909129e-15
5.822618474e-15
5.824865005e-15
5.824805544e-15
5.823820989e-15
5.821265081e-15
5.820164348e-15
5.820430341e-15
5.820119009e-15
5.820388024e-15
5.82030339e-15
5.819951252e-15
5.819490299e-15
5.817279237e-15
5.81601275e-15
5.81601275e-15
5.81601275e-15
5.81601275e-15
5.81601275e-15
5.81601275e-15
5.81601275e-15
5.81601275e-15
5.81601275e-15
5.81601275e-15
5.81601275e-15
5.81601275e-15
5.81601275e-15
5.81601275e-15
6.518809135e-15
1.0424188e-14
2.224569548e-14
5.393191309e-14
1.363929045e-13
5.830723553e-15
5.829098476e-15
5.827541545e-15
5.827777675e-15
5.826520773e-15
5.824116989e-15
5.824028727e-15
5.822733318e-15
5.823494967e-15
5.82549064e-15
5.825827904e-15
5.824534281e-15
5.822447938e-15
5.820719003e-15
5.820906407e-15
5.820572405e-15
5.820466613e-15
5.820400114e-15
5.820061579e-15
5.819478209e-15
5.816969416e-15
5.81601275e-15
5.81601275e-15
5.81601275e-15
5.81601275e-15
5.81601275e-15
5.81601275e-15
5.81601275e-15
5.81601275e-15
5.81601275e-15
5.81601275e-15
5.81601275e-15
5.81601275e-15
5.81601275e-15
5.81601275e-15
6.698516864e-15
1.101745757e-14
2.381655376e-14
5.794626146e-14
1.463019402e-13
5.830971387e-15
5.829721985e-15
5.828074454e-15
5.828391198e-15
5.827189405e-15
5.824946739e-15
5.824490981e-15
5.823650617e-15
5.824306039e-15
5.826392934e-15
5.826465146e-15
5.8245651e-15
5.82324376e-15
5.82147013e-15
5.820968371e-15
5.820861067e-15
5.82092152e-15
5.820673664e-15
5.820276186e-15
5.819147229e-15
5.816265141e-15
5.81601275e-15
5.81601275e-15
5.81601275e-15
5.81601275e-15
5.81601275e-15
5.81601275e-15
5.81601275e-15
5.81601275e-15
5.81601275e-15
5.81601275e-15
5.81601275e-15
5.81601275e-15
5.81601275e-15
5.81601275e-15
6.900222308e-15
1.166049469e-14
2.551284599e-14
6.225179494e-14
1.56915094e-13
5.831546425e-15
5.829825433e-15
5.828334596e-15
5.828469952e-15
5.827135351e-15
5.825935908e-15
5.825929742e-15
5.82496785e-15
5.825304544e-15
5.827103557e-15
5.826806032e-15
5.824960878e-15
5.823650414e-15
5.821701362e-15
5.821208671e-15
5.821096833e-15
5.821114969e-15
5.820517998e-15
5.820014728e-15
5.818344718e-15
5.81601275e-15
5.81601275e-15
5.81601275e-15
5.81601275e-15
5.81601275e-15
5.81601275e-15
5.81601275e-15
5.81601275e-15
5.81601275e-15
5.81601275e-15
5.81601275e-15
5.81601275e-15
5.81601275e-15
5.81601275e-15
5.81601275e-15
7.125334661e-15
1.235776577e-14
2.734288402e-14
6.686983453e-14
1.682776907e-13
5.832066543e-15
5.830387463e-15
5.828667093e-15
5.827986843e-15
5.827984965e-15
5.827206399e-15
5.826862558e-15
5.826830432e-15
5.826714778e-15
5.827900623e-15
5.826571748e-15
5.825534616e-15
5.823445627e-15
5.822296822e-15
5.821890277e-15
5.821453505e-15
5.821417233e-15
5.820451499e-15
5.819979967e-15
5.81747722e-15
5.81601275e-15
5.81601275e-15
5.81601275e-15
5.81601275e-15
5.81601275e-15
5.81601275e-15
5.81601275e-15
5.81601275e-15
5.81601275e-15
5.81601275e-15
5.81601275e-15
5.81601275e-15
5.81601275e-15
5.81601275e-15
5.81601275e-15
7.375947804e-15
1.311370539e-14
2.931626946e-14
7.182213909e-14
1.804374997e-13
5.832517841e-15
5.830959992e-15
5.829483971e-15
5.828180189e-15
5.827901198e-15
5.82712695e-15
5.827279986e-15
5.827571983e-15
5.828635788e-15
5.828799757e-15
5.826935007e-15
5.825979891e-15
5.823760711e-15
5.822376922e-15
5.822058033e-15
5.821934105e-15
5.821430835e-15
5.820493816e-15
5.81975478e-15
5.81669889e-15
5.81601275e-15
5.81601275e-15
5.81601275e-15
5.81601275e-15
5.81601275e-15
5.81601275e-15
5.81601275e-15
5.81601275e-15
5.81601275e-15
5.81601275e-15
5.81601275e-15
5.81601275e-15
5.81601275e-15
5.81601275e-15
5.81601275e-15
7.653773468e-15
1.393342485e-14
3.144239691e-14
7.713246584e-14
1.934459682e-13
5.832949087e-15
5.83179946e-15
5.830947375e-15
5.828638234e-15
5.827683192e-15
5.827331845e-15
5.828417155e-15
5.829042077e-15
5.829945949e-15
5.829795022e-15
5.827981657e-15
5.825987448e-15
5.824687049e-15
5.822780445e-15
5.82243133e-15
5.822033852e-15
5.821737633e-15
5.820773411e-15
5.819679214e-15
5.81601275e-15
5.81601275e-15
5.81601275e-15
5.81601275e-15
5.81601275e-15
5.81601275e-15
5.81601275e-15
5.81601275e-15
5.81601275e-15
5.81601275e-15
5.81601275e-15
5.81601275e-15
5.81601275e-15
5.81601275e-15
5.81601275e-15
5.81601275e-15
7.96097719e-15
1.482150204e-14
3.373238864e-14
8.282542388e-14
2.073582062e-13
5.83412132e-15
5.83293156e-15
5.831855366e-15
5.829506201e-15
5.828199773e-15
5.827930334e-15
5.828595035e-15
5.829322835e-15
5.830689605e-15
5.830315378e-15
5.828091687e-15
5.826258704e-15
5.825402366e-15
5.822963315e-15
5.822502362e-15
5.822183473e-15
5.821965843e-15
5.820637392e-15
5.819275692e-15
5.81601275e-15
5.81601275e-15
5.81601275e-15
5.81601275e-15
5.81601275e-15
5.81601275e-15
5.81601275e-15
5.81601275e-15
5.81601275e-15
5.81601275e-15
5.81601275e-15
5.81601275e-15
5.81601275e-15
5.81601275e-15
5.81601275e-15
5.852524341e-15
8.299469737e-15
1.57833906e-14
3.619769333e-14
8.892746142e-14
2.22232062e-13
5.83514976e-15
5.834286959e-15
5.832967089e-15
5.830629609e-15
5.829171724e-15
5.828836272e-15
5.829775954e-15
5.83034312e-15
5.831054484e-15
5.831089557e-15
5.828801986e-15
5.826919722e-15
5.826108803e-15
5.823493788e-15
5.822834852e-15
5.822602109e-15
5.822197075e-15
5.820747718e-15
5.818660584e-15
5.81601275e-15
5.81601275e-15
5.81601275e-15
5.81601275e-15
5.81601275e-15
5.81601275e-15
5.81601275e-15
5.81601275e-15
5.81601275e-15
5.81601275e-15
5.81601275e-15
5.81601275e-15
5.81601275e-15
5.81601275e-15
5.81601275e-15
5.954224967e-15
8.671695301e-15
1.682480692e-14
3.885046825e-14
9.546630052e-14
2.381300338e-13
5.83617588e-15
5.83516019e-15
5.833336183e-15
5.832515511e-15
5.830460677e-15
5.830337135e-15
5.830004329e-15
5.830001048e-15
5.830696084e-15
5.831685292e-15
5.830199399e-15
5.827934902e-15
5.826543875e-15
5.82396532e-15
5.823180945e-15
5.822768354e-15
5.822192541e-15
5.820424296e-15
5.817815756e-15
5.81601275e-15
5.81601275e-15
5.81601275e-15
5.81601275e-15
5.81601275e-15
5.81601275e-15
5.81601275e-15
5.81601275e-15
5.81601275e-15
5.81601275e-15
5.81601275e-15
5.81601275e-15
5.81601275e-15
5.81601275e-15
5.81601275e-15
6.07133116e-15
9.080002533e-15
1.795119668e-14
4.170365088e-14
1.024714068e-13
2.551178598e-13
5.837155228e-15
5.835677314e-15
5.834093418e-15
5.833829563e-15
5.831713654e-15
5.830716157e-15
5.830601278e-15
5.830173179e-15
5.831038105e-15
5.83212463e-15
5.831020834e-15
5.827907482e-15
5.82658082e-15
5.823960786e-15
5.823445426e-15
5.822644426e-15
5.821763326e-15
5.81999508e-15
5.817190069e-15
5.81601275e-15
5.81601275e-15
5.81601275e-15
5.81601275e-15
5.81601275e-15
5.81601275e-15
5.81601275e-15
5.81601275e-15
5.81601275e-15
5.81601275e-15
5.81601275e-15
5.81601275e-15
5.81601275e-15
5.81601275e-15
5.81601275e-15
6.204973457e-15
9.527400894e-15
1.9169367e-14
4.477129333e-14
1.099742204e-13
2.732662305e-13
5.837411834e-15
5.836411959e-15
5.835184604e-15
5.834906713e-15
5.833500185e-15
5.831500784e-15
5.831143581e-15
5.830760981e-15
5.832112797e-15
5.832612331e-15
5.831416532e-15
5.82806053e-15
5.826063161e-15
5.82382779e-15
5.823394041e-15
5.822553747e-15
5.821675669e-15
5.819532616e-15
5.816422318e-15
5.81601275e-15
5.81601275e-15
5.81601275e-15
5.81601275e-15
5.81601275e-15
5.81601275e-15
5.81601275e-15
5.81601275e-15
5.81601275e-15
5.81601275e-15
5.81601275e-15
5.81601275e-15
5.81601275e-15
5.81601275e-15
5.81601275e-15
6.356441626e-15
1.001705907e-14
2.048591002e-14
4.806771044e-14
1.180081717e-13
2.926496262e-13
5.838031105e-15
5.836506824e-15
5.83569287e-15
5.835327865e-15
5.834308075e-15
5.832431308e-15
5.831728765e-15
5.831575401e-15
5.832388508e-15
5.832764974e-15
5.831486053e-15
5.828364226e-15
5.826345481e-15
5.823871619e-15
5.823650966e-15
5.822673141e-15
5.821624284e-15
5.818991563e-15
5.81601275e-15
5.81601275e-15
5.81601275e-15
5.81601275e-15
5.81601275e-15
5.81601275e-15
5.81601275e-15
5.81601275e-15
5.81601275e-15
5.81601275e-15
5.81601275e-15
5.81601275e-15
5.81601275e-15
5.81601275e-15
5.81601275e-15
5.81601275e-15
6.526802515e-15
1.055205022e-14
2.190764082e-14
5.160889692e-14
1.266083394e-13
3.133469933e-13
5.838160326e-15
5.836838699e-15
5.835938492e-15
5.834635759e-15
5.834514105e-15
5.833543407e-15
5.832933271e-15
5.833096504e-15
5.833714405e-15
5.832983551e-15
5.831128651e-15
5.82899642e-15
5.826281088e-15
5.823945673e-15
5.823862551e-15
5.822981451e-15
5.821427813e-15
5.818532122e-15
5.81601275e-15
5.81601275e-15
5.81601275e-15
5.81601275e-15
5.81601275e-15
5.81601275e-15
5.81601275e-15
5.81601275e-15
5.81601275e-15
5.81601275e-15
5.81601275e-15
5.81601275e-15
5.81601275e-15
5.81601275e-15
5.81601275e-15
5.81601275e-15
6.717751928e-15
1.113563857e-14
2.344244927e-14
5.541226466e-14
1.35812453e-13
3.354428673e-13
5.838591356e-15
5.836931786e-15
5.835425481e-15
5.834310666e-15
5.83378473e-15
5.833236529e-15
5.833045679e-15
5.83322613e-15
5.834599264e-15
5.833880421e-15
5.831320321e-15
5.829203095e-15
5.827000049e-15
5.823998569e-15
5.823598069e-15
5.823075152e-15
5.821086254e-15
5.817918526e-15
5.81601275e-15
5.81601275e-15
5.81601275e-15
5.81601275e-15
5.81601275e-15
5.81601275e-15
5.81601275e-15
5.81601275e-15
5.81601275e-15
5.81601275e-15
5.81601275e-15
5.81601275e-15
5.81601275e-15
5.81601275e-15
5.81601275e-15
5.81601275e-15
6.930977711e-15
1.177177304e-14
2.509831284e-14
5.949471598e-14
1.456600098e-13
3.59026553e-13
5.838867015e-15
5.837288977e-15
5.835710534e-15
5.834660409e-15
5.833986957e-15
5.833547166e-15
5.83374273e-15
5.833612304e-15
5.835238154e-15
5.834536529e-15
5.832155682e-15
5.830320806e-15
5.827586607e-15
5.824122498e-15
5.823536105e-15
5.822857522e-15
5.820756786e-15
5.81744246e-15
5.81601275e-15
5.81601275e-15
5.81601275e-15
5.81601275e-15
5.81601275e-15
5.81601275e-15
5.81601275e-15
5.81601275e-15
5.81601275e-15
5.81601275e-15
5.81601275e-15
5.81601275e-15
5.81601275e-15
5.81601275e-15
5.81601275e-15
5.81601275e-15
7.16843044e-15
1.246422739e-14
2.688382998e-14
6.387540634e-14
1.561936039e-13
3.841930232e-13
5.839888492e-15
5.838286975e-15
5.836814729e-15
5.835916763e-15
5.835290566e-15
5.834588667e-15
5.834419431e-15
5.834192766e-15
5.835759349e-15
5.835031626e-15
5.832431502e-15
5.830778388e-15
5.82771175e-15
5.824175394e-15
5.823520992e-15
5.822966337e-15
5.820469635e-15
5.816620301e-15
5.81601275e-15
5.81601275e-15
5.81601275e-15
5.81601275e-15
5.81601275e-15
5.81601275e-15
5.81601275e-15
5.81601275e-15
5.81601275e-15
5.81601275e-15
5.81601275e-15
5.81601275e-15
5.81601275e-15
5.81601275e-15
5.81601275e-15
5.81601275e-15
7.431726306e-15
1.321675151e-14
2.880826791e-14
6.857524272e-14
1.67458019e-13
4.110434931e-13
5.840765772e-15
5.839603188e-15
5.83852818e-15
5.838290205e-15
5.836749329e-15
5.836184258e-15
5.835855307e-15
5.834881558e-15
5.836084261e-15
5.835593627e-15
5.833099808e-15
5.830607501e-15
5.827169129e-15
5.824272119e-15
5.823685726e-15
5.82294669e-15
5.820466613e-15
5.816250027e-15
5.81601275e-15
5.81601275e-15
5.81601275e-15
5.81601275e-15
5.81601275e-15
5.81601275e-15
5.81601275e-15
5.81601275e-15
5.81601275e-15
5.81601275e-15
5.81601275e-15
5.81601275e-15
5.81601275e-15
5.81601275e-15
5.81601275e-15
5.81601275e-15
7.722704423e-15
1.403376406e-14
3.088153078e-14
7.361530726e-14
1.795012552e-13
4.396845517e-13
5.841898928e-15
5.840746409e-15
5.840397378e-15
5.840147717e-15
5.838858855e-15
5.836829952e-15
5.836247664e-15
5.835530138e-15
5.835836324e-15
5.8358522e-15
5.834191827e-15
5.831243151e-15
5.827238056e-15
5.824232824e-15
5.823465073e-15
5.822727549e-15
5.820179462e-15
5.81601275e-15
5.81601275e-15
5.81601275e-15
5.81601275e-15
5.81601275e-15
5.81601275e-15
5.81601275e-15
5.81601275e-15
5.81601275e-15
5.81601275e-15
5.81601275e-15
5.81601275e-15
5.81601275e-15
5.81601275e-15
5.81601275e-15
5.81601275e-15
5.81601275e-15
8.04384879e-15
1.492059924e-14
3.311454182e-14
7.901884765e-14
1.923736851e-13
4.702307812e-13
5.843499464e-15
5.84201823e-15
5.841104392e-15
5.841435215e-15
5.840013625e-15
5.837567945e-15
5.8367962e-15
5.836704823e-15
5.836344431e-15
5.836525691e-15
5.83496069e-15
5.831219078e-15
5.828090231e-15
5.824309902e-15
5.823329054e-15
5.822135111e-15
5.81963992e-15
5.81601275e-15
5.81601275e-15
5.81601275e-15
5.81601275e-15
5.81601275e-15
5.81601275e-15
5.81601275e-15
5.81601275e-15
5.81601275e-15
5.81601275e-15
5.81601275e-15
5.81601275e-15
5.81601275e-15
5.81601275e-15
5.81601275e-15
5.81601275e-15
5.81601275e-15
8.396879097e-15
1.588198623e-14
3.551789782e-14
8.481013062e-14
2.061296142e-13
5.028019869e-13
5.844832171e-15
5.843174677e-15
5.842059884e-15
5.84225385e-15
5.840552745e-15
5.83848854e-15
5.837414473e-15
5.83701948e-15
5.837476285e-15
5.837137999e-15
5.835393094e-15
5.831530953e-15
5.828797318e-15
5.824532066e-15
5.823214194e-15
5.821609171e-15
5.818929599e-15
5.81601275e-15
5.81601275e-15
5.81601275e-15
5.81601275e-15
5.81601275e-15
5.81601275e-15
5.81601275e-15
5.81601275e-15
5.81601275e-15
5.81601275e-15
5.81601275e-15
5.81601275e-15
5.81601275e-15
5.81601275e-15
5.81601275e-15
5.81601275e-15
5.916670415e-15
8.78473315e-15
1.692336274e-14
3.810327835e-14
9.10152939e-14
2.208262065e-13
5.375261664e-13
5.845958095e-15
5.844343323e-15
5.843300748e-15
5.842916306e-15
5.841483514e-15
5.839941474e-15
5.838612182e-15
5.837885639e-15
5.837842219e-15
5.837716002e-15
5.835547465e-15
5.832232993e-15
5.829123901e-15
5.824982439e-15
5.823456005e-15
5.821346201e-15
5.818160337e-15
5.81601275e-15
5.81601275e-15
5.81601275e-15
5.81601275e-15
5.81601275e-15
5.81601275e-15
5.81601275e-15
5.81601275e-15
5.81601275e-15
5.81601275e-15
5.81601275e-15
5.81601275e-15
5.81601275e-15
5.81601275e-15
5.81601275e-15
5.81601275e-15
6.050647096e-15
9.209863102e-15
1.805073177e-14
4.088356518e-14
9.766182865e-14
2.365241925e-13
5.745395096e-13
5.847588481e-15
5.846099633e-15
5.845118618e-15
5.842756922e-15
5.841166006e-15
5.840033266e-15
5.83991112e-15
5.8393583e-15
5.839077357e-15
5.838117991e-15
5.835638578e-15
5.831907032e-15
5.828949369e-15
5.825041381e-15
5.823348702e-15
5.820842932e-15
5.817221807e-15
5.81601275e-15
5.81601275e-15
5.81601275e-15
5.81601275e-15
5.81601275e-15
5.81601275e-15
5.81601275e-15
5.81601275e-15
5.81601275e-15
5.81601275e-15
5.81601275e-15
5.81601275e-15
5.81601275e-15
5.81601275e-15
5.81601275e-15
5.81601275e-15
6.201948074e-15
9.675557066e-15
1.927023962e-14
4.387258749e-14
1.047789219e-13
2.532877262e-13
6.13985555e-13
5.849746108e-15
5.848207033e-15
5.846327853e-15
5.843323976e-15
5.841543198e-15
5.840490746e-15
5.840291603e-15
5.83966138e-15
5.839522097e-15
5.838346446e-15
5.835180944e-15
5.831737468e-15
5.827936076e-15
5.824545668e-15
5.822748707e-15
5.82009785e-15
5.816045999e-15
5.81601275e-15
5.81601275e-15
5.81601275e-15
5.81601275e-15
5.81601275e-15
5.81601275e-15
5.81601275e-15
5.81601275e-15
5.81601275e-15
5.81601275e-15
5.81601275e-15
5.81601275e-15
5.81601275e-15
5.81601275e-15
5.81601275e-15
5.81601275e-15
6.372070116e-15
1.018448216e-14
2.058818387e-14
4.708404708e-14
1.123971777e-13
2.711857704e-13
6.560169889e-13
5.851444829e-15
5.849435133e-15
5.847175557e-15
5.844261955e-15
5.842487005e-15
5.841435847e-15
5.841681466e-15
5.840653708e-15
5.839292621e-15
5.838623617e-15
5.835506557e-15
5.832311154e-15
5.827409001e-15
5.824343151e-15
5.822432841e-15
5.819328588e-15
5.81601275e-15
5.81601275e-15
5.81601275e-15
5.81601275e-15
5.81601275e-15
5.81601275e-15
5.81601275e-15
5.81601275e-15
5.81601275e-15
5.81601275e-15
5.81601275e-15
5.81601275e-15
5.81601275e-15
5.81601275e-15
5.81601275e-15
5.81601275e-15
5.81601275e-15
6.561960646e-15
1.073976725e-14
2.201190506e-14
5.053329378e-14
1.205500266e-13
2.902909981e-13
7.007960355e-13
5.852692793e-15
5.850368823e-15
5.848337701e-15
5.845666287e-15
5.843782385e-15
5.842846196e-15
5.842756136e-15
5.840556448e-15
5.839263479e-15
5.838626806e-15
5.835250254e-15
5.832374362e-15
5.826931395e-15
5.823617717e-15
5.821597081e-15
5.818352275e-15
5.81601275e-15
5.81601275e-15
5.81601275e-15
5.81601275e-15
5.81601275e-15
5.81601275e-15
5.81601275e-15
5.81601275e-15
5.81601275e-15
5.81601275e-15
5.81601275e-15
5.81601275e-15
5.81601275e-15
5.81601275e-15
5.81601275e-15
5.81601275e-15
5.81601275e-15
6.773514507e-15
1.134522593e-14
2.354887109e-14
5.423626658e-14
1.292730009e-13
3.10680413e-13
7.484941863e-13
5.853800878e-15
5.8516716e-15
5.849346307e-15
5.847824934e-15
5.845355768e-15
5.844564666e-15
5.843542007e-15
5.840980058e-15
5.839635783e-15
5.838974495e-15
5.835549987e-15
5.832269003e-15
5.826716491e-15
5.823118981e-15
5.821195069e-15
5.817401654e-15
5.81601275e-15
5.81601275e-15
5.81601275e-15
5.81601275e-15
5.81601275e-15
5.81601275e-15
5.81601275e-15
5.81601275e-15
5.81601275e-15
5.81601275e-15
5.81601275e-15
5.81601275e-15
5.81601275e-15
5.81601275e-15
5.81601275e-15
5.81601275e-15
5.81601275e-15
7.007965738e-15
1.200454439e-14
2.520653396e-14
5.821009075e-14
1.386026121e-13
3.324359157e-13
7.992937602e-13
5.855798384e-15
5.853833515e-15
5.851191894e-15
5.849238927e-15
5.846983263e-15
5.845219753e-15
5.84387151e-15
5.841681779e-15
5.840488745e-15
5.839606479e-15
5.836546524e-15
5.83177329e-15
5.827121018e-15
5.822884726e-15
5.82049835e-15
5.816055067e-15
5.81601275e-15
5.81601275e-15
5.81601275e-15
5.81601275e-15
5.81601275e-15
5.81601275e-15
5.81601275e-15
5.81601275e-15
5.81601275e-15
5.81601275e-15
5.81601275e-15
5.81601275e-15
5.81601275e-15
5.81601275e-15
5.81601275e-15
5.81601275e-15
5.81601275e-15
7.267463952e-15
1.272172726e-14
2.699432014e-14
6.247396949e-14
1.485790582e-13
3.556445653e-13
8.53388573e-13
5.857490142e-15
5.855563027e-15
5.853845234e-15
5.85189294e-15
5.848996093e-15
5.846325865e-15
5.84457091e-15
5.842892359e-15
5.84215437e-15
5.840202784e-15
5.837053821e-15
5.831578654e-15
5.826659147e-15
5.822174405e-15
5.819381484e-15
5.81601275e-15
5.81601275e-15
5.81601275e-15
5.81601275e-15
5.81601275e-15
5.81601275e-15
5.81601275e-15
5.81601275e-15
5.81601275e-15
5.81601275e-15
5.81601275e-15
5.81601275e-15
5.81601275e-15
5.81601275e-15
5.81601275e-15
5.81601275e-15
5.81601275e-15
5.81601275e-15
7.554174687e-15
1.350089067e-14
2.892050164e-14
6.704672388e-14
1.592448456e-13
3.803983415e-13
9.10982201e-13
5.858774298e-15
5.857314536e-15
5.855050664e-15
5.853877973e-15
5.851141298e-15
5.847922699e-15
5.846185663e-15
5.844667313e-15
5.84334317e-15
5.840526481e-15
5.837376411e-15
5.831579088e-15
5.826984652e-15
5.821743679e-15
5.818500384e-15
5.81601275e-15
5.81601275e-15
5.81601275e-15
5.81601275e-15
5.81601275e-15
5.81601275e-15
5.81601275e-15
5.81601275e-15
5.81601275e-15
5.81601275e-15
5.81601275e-15
5.81601275e-15
5.81601275e-15
5.81601275e-15
5.81601275e-15
5.81601275e-15
5.81601275e-15
5.81601275e-15
7.870279403e-15
1.434621443e-14
3.099541255e-14
7.19488469e-14
1.706444953e-13
4.067953464e-13
9.722919383e-13
5.860634354e-15
5.859027856e-15
5.856602028e-15
5.855329453e-15
5.852507305e-15
5.849722079e-15
5.847687877e-15
5.845323073e-15
5.844022085e-15
5.841407833e-15
5.837409284e-15
5.831911556e-15
5.826929759e-15
5.821648466e-15
5.818075703e-15
5.81601275e-15
5.81601275e-15
5.81601275e-15
5.81601275e-15
5.81601275e-15
5.81601275e-15
5.81601275e-15
5.81601275e-15
5.81601275e-15
5.81601275e-15
5.81601275e-15
5.81601275e-15
5.81601275e-15
5.81601275e-15
5.81601275e-15
5.81601275e-15
5.81601275e-15
5.81601275e-15
8.217848099e-15
1.526260283e-14
3.322884555e-14
7.720250345e-14
1.828247574e-13
4.349390798e-13
1.037547618e-12
5.862798055e-15
5.861148698e-15
5.858570494e-15
5.856378379e-15
5.85269739e-15
5.849851574e-15
5.848461846e-15
5.846407592e-15
5.84397861e-15
5.841814681e-15
5.837326407e-15
5.831237855e-15
5.826280644e-15
5.821172399e-15
5.81731702e-15
5.81601275e-15
5.81601275e-15
5.81601275e-15
5.81601275e-15
5.81601275e-15
5.81601275e-15
5.81601275e-15
5.81601275e-15
5.81601275e-15
5.81601275e-15
5.81601275e-15
5.81601275e-15
5.81601275e-15
5.81601275e-15
5.81601275e-15
5.81601275e-15
5.81601275e-15
5.81601275e-15
8.599715079e-15
1.625569264e-14
3.563228913e-14
8.283160999e-14
1.958364743e-13
4.649395781e-13
1.106993008e-12
5.865397398e-15
5.863128148e-15
5.859950942e-15
5.856936879e-15
5.853210521e-15
5.850320444e-15
5.848442798e-15
5.846529798e-15
5.84463769e-15
5.84199661e-15
5.836657268e-15
5.830603664e-15
5.82492841e-15
5.820035886e-15
5.816032397e-15
5.81601275e-15
5.81601275e-15
5.81601275e-15
5.81601275e-15
5.81601275e-15
5.81601275e-15
5.81601275e-15
5.81601275e-15
5.81601275e-15
5.81601275e-15
5.81601275e-15
5.81601275e-15
5.81601275e-15
5.81601275e-15
5.81601275e-15
5.81601275e-15
5.81601275e-15
5.951478238e-15
9.018571343e-15
1.733111266e-14
3.821670632e-14
8.886052085e-14
2.097336889e-13
4.969138519e-13
1.180885749e-12
5.867567549e-15
5.865153047e-15
5.862314268e-15
5.858997182e-15
5.854169738e-15
5.850982494e-15
5.849279973e-15
5.847300744e-15
5.844574271e-15
5.842195272e-15
5.836835741e-15
5.83034423e-15
5.824288876e-15
5.819141184e-15
5.81601275e-15
5.81601275e-15
5.81601275e-15
5.81601275e-15
5.81601275e-15
5.81601275e-15
5.81601275e-15
5.81601275e-15
5.81601275e-15
5.81601275e-15
5.81601275e-15
5.81601275e-15
5.81601275e-15
5.81601275e-15
5.81601275e-15
5.81601275e-15
5.81601275e-15
5.81601275e-15
6.107404867e-15
9.476821273e-15
1.849450763e-14
4.099466838e-14
9.531573996e-14
2.245721955e-13
5.309854086e-13
1.259499991e-12
5.86878588e-15
5.866417716e-15
5.863692474e-15
5.860468793e-15
5.855290774e-15
5.851742673e-15
5.849609339e-15
5.847256973e-15
5.845058305e-15
5.842544176e-15
5.837402008e-15
5.830411784e-15
5.822956991e-15
5.81809535e-15
5.81601275e-15
5.81601275e-15
5.81601275e-15
5.81601275e-15
5.81601275e-15
5.81601275e-15
5.81601275e-15
5.81601275e-15
5.81601275e-15
5.81601275e-15
5.81601275e-15
5.81601275e-15
5.81601275e-15
5.81601275e-15
5.81601275e-15
5.81601275e-15
5.81601275e-15
5.81601275e-15
6.282001291e-15
9.977402676e-15
1.975173723e-14
4.397999654e-14
1.022254193e-13
2.404128601e-13
5.672857009e-13
1.343124679e-12
5.870082692e-15
5.867701222e-15
5.864219316e-15
5.861652603e-15
5.856463897e-15
5.852705881e-15
5.850574435e-15
5.847942554e-15
5.84616911e-15
5.842900638e-15
5.837566018e-15
5.829584846e-15
5.822026286e-15
5.817194603e-15
5.81601275e-15
5.81601275e-15
5.81601275e-15
5.81601275e-15
5.81601275e-15
5.81601275e-15
5.81601275e-15
5.81601275e-15
5.81601275e-15
5.81601275e-15
5.81601275e-15
5.81601275e-15
5.81601275e-15
5.81601275e-15
5.81601275e-15
5.81601275e-15
5.81601275e-15
5.81601275e-15
6.476613009e-15
1.052353201e-14