/*--------------------------------*- C++ -*----------------------------------*\
| =========                 |                                                 |
| \\      /  F ield         | OpenFOAM: The Open Source CFD Toolbox           |
|  \\    /   O peration     | Version:  v2006                                 |
|   \\  /    A nd           | Website:  www.openfoam.com                      |
|    \\/     M anipulation  |                                                 |
\*---------------------------------------------------------------------------*/
FoamFile
{
    version     2.0;
    format      ascii;
    class       volScalarField;
    location    "0.12";
    object      CH3O;
}
// * * * * * * * * * * * * * * * * * * * * * * * * * * * * * * * * * * * * * //

dimensions      [0 0 0 0 0 0 0];


internalField   nonuniform List<scalar> 
168000
(
1.356437773e-18
1.356591279e-18
1.323914958e-18
1.314478141e-18
1.314134984e-18
1.314134984e-18
1.32209058e-18
1.341127186e-18
1.365519724e-18
1.419815792e-18
1.350787552e-18
1.353628837e-18
1.328909663e-18
1.314419112e-18
1.341695442e-18
1.388936313e-18
1.371427393e-18
1.327204892e-18
1.384202158e-18
1.370108286e-18
1.346376076e-18
1.318681039e-18
1.315839755e-18
1.327666106e-18
1.314134984e-18
1.314134984e-18
1.314134984e-18
1.314134984e-18
1.314134984e-18
1.314134984e-18
1.314134984e-18
1.314134984e-18
1.314134984e-18
1.314134984e-18
1.314134984e-18
1.314134984e-18
5.113226108e-18
1.26409788e-16
3.84892282e-16
1.251224551e-15
1.443357334e-18
1.404770244e-18
1.339185445e-18
1.322199173e-18
1.315507612e-18
1.314134984e-18
1.420935784e-18
1.494392021e-18
1.561023668e-18
1.587394092e-18
1.507836579e-18
1.5083403e-18
1.450232506e-18
1.371528928e-18
1.432900671e-18
1.495715084e-18
1.494283428e-18
1.393975075e-18
1.475519937e-18
1.491329594e-18
1.462815214e-18
1.35845902e-18
1.430001908e-18
1.314134984e-18
1.314134984e-18
1.314134984e-18
1.314134984e-18
1.314134984e-18
1.314134984e-18
1.314134984e-18
1.314134984e-18
1.314134984e-18
1.314134984e-18
1.314134984e-18
1.314134984e-18
1.314134984e-18
1.235315245e-17
1.373437995e-16
4.289313353e-16
1.344573378e-15
1.472215565e-18
1.410955678e-18
1.361662228e-18
1.338670709e-18
1.328719156e-18
1.346816812e-18
1.434536949e-18
1.507847593e-18
1.704552587e-18
1.726543027e-18
1.587628656e-18
1.598864722e-18
1.471542138e-18
1.401930671e-18
1.502796267e-18
1.61605647e-18
1.589171312e-18
1.487169203e-18
1.53120911e-18
1.576953789e-18
1.544847275e-18
1.421251405e-18
1.501286654e-18
1.314134984e-18
1.314134984e-18
1.314134984e-18
1.314134984e-18
1.314134984e-18
1.314134984e-18
1.314134984e-18
1.314134984e-18
1.314134984e-18
1.314134984e-18
1.314134984e-18
1.314134984e-18
1.314134984e-18
1.946096335e-17
1.503295466e-16
4.747935817e-16
1.446417399e-15
1.494275192e-18
1.502348151e-18
1.38431059e-18
1.361147493e-18
1.438192763e-18
1.483292084e-18
1.546865261e-18
1.557592099e-18
1.772818962e-18
1.862518534e-18
1.715482496e-18
1.641006252e-18
1.517286817e-18
1.453357918e-18
1.618436541e-18
1.708221127e-18
1.68776388e-18
1.636904889e-18
1.551666358e-18
1.67128443e-18
1.644292229e-18
1.525526542e-18
1.509295771e-18
1.314134984e-18
1.314134984e-18
1.314134984e-18
1.314134984e-18
1.314134984e-18
1.314134984e-18
1.314134984e-18
1.314134984e-18
1.314134984e-18
1.314134984e-18
1.314134984e-18
1.314134984e-18
1.314134984e-18
2.662110569e-17
1.652448655e-16
5.229325033e-16
1.557036974e-15
1.549181167e-18
1.574574946e-18
1.471810279e-18
1.493207332e-18
1.435192465e-18
1.476972766e-18
1.591657569e-18
1.631000321e-18
1.809986266e-18
1.97142629e-18
1.911940361e-18
1.763391609e-18
1.588318926e-18
1.526947184e-18
1.668727274e-18
1.741180026e-18
1.791186631e-18
1.756522961e-18
1.596274523e-18
1.729246631e-18
1.705379843e-18
1.549677459e-18
1.425669939e-18
1.314134984e-18
1.314134984e-18
1.314134984e-18
1.314134984e-18
1.314134984e-18
1.314134984e-18
1.314134984e-18
1.314134984e-18
1.314134984e-18
1.314134984e-18
1.314134984e-18
1.314134984e-18
1.314134984e-18
3.398782854e-17
1.820540679e-16
5.73774301e-16
1.676813694e-15
1.568735609e-18
1.625791209e-18
1.602154333e-18
1.519210163e-18
1.467012444e-18
1.494992465e-18
1.615832065e-18
1.750416873e-18
1.919264715e-18
2.056242158e-18
2.03295309e-18
1.80860503e-18
1.714187824e-18
1.604514247e-18
1.74231654e-18
1.791754888e-18
1.899155437e-18
1.816189933e-18
1.673273329e-18
1.764762686e-18
1.705663971e-18
1.536323422e-18
1.314134984e-18
1.314134984e-18
1.314134984e-18
1.314134984e-18
1.314134984e-18
1.314134984e-18
1.314134984e-18
1.314134984e-18
1.314134984e-18
1.314134984e-18
1.314134984e-18
1.314134984e-18
1.314134984e-18
1.931131266e-18
4.168689894e-17
2.00748918e-16
6.277287042e-16
1.806179421e-15
1.548708083e-18
1.627803687e-18
1.615006199e-18
1.64577949e-18
1.526852545e-18
1.553540995e-18
1.661899422e-18
1.730752982e-18
1.905621043e-18
2.120637778e-18
2.116289287e-18
1.884365787e-18
1.751976906e-18
1.696571861e-18
1.790334246e-18
1.885517272e-18
1.984678097e-18
1.860229841e-18
1.742884796e-18
1.738338741e-18
1.655373238e-18
1.486316817e-18
1.314134984e-18
1.314134984e-18
1.314134984e-18
1.314134984e-18
1.314134984e-18
1.314134984e-18
1.314134984e-18
1.314134984e-18
1.314134984e-18
1.314134984e-18
1.314134984e-18
1.314134984e-18
1.314134984e-18
3.397612697e-18
4.983670606e-17
2.213498336e-16
6.851831372e-16
1.94561938e-15
1.539392424e-18
1.587807664e-18
1.583764635e-18
1.702243093e-18
1.615192054e-18
1.677064416e-18
1.742062192e-18
1.748562553e-18
1.920760907e-18
2.173266074e-18
2.177849129e-18
2.020175224e-18
1.842898006e-18
1.839204337e-18
1.900576079e-18
1.907111033e-18
2.038094243e-18
1.964504978e-18
1.80226764e-18
1.766183328e-18
1.6440081e-18
1.358174892e-18
1.314134984e-18
1.314134984e-18
1.314134984e-18
1.314134984e-18
1.314134984e-18
1.314134984e-18
1.314134984e-18
1.314134984e-18
1.314134984e-18
1.314134984e-18
1.314134984e-18
1.314134984e-18
1.314134984e-18
5.22955633e-18
5.853522123e-17
2.438846105e-16
7.465173032e-16
2.095691372e-15
1.558780794e-18
1.579822125e-18
1.590907947e-18
1.717663129e-18
1.646737368e-18
1.659245382e-18
1.723938551e-18
1.768194951e-18
1.969481449e-18
2.242358849e-18
2.22882067e-18
2.056254028e-18
1.974449473e-18
1.90597452e-18
1.953992226e-18
1.947457272e-18
2.034684702e-18
1.991213051e-18
1.908815804e-18
1.834090025e-18
1.606503146e-18
1.314134984e-18
1.314134984e-18
1.314134984e-18
1.314134984e-18
1.314134984e-18
1.314134984e-18
1.314134984e-18
1.314134984e-18
1.314134984e-18
1.314134984e-18
1.314134984e-18
1.314134984e-18
1.314134984e-18
1.314134984e-18
7.4482379e-18
6.787526839e-17
2.684426411e-16
8.121036991e-16
2.257003986e-15
1.625406078e-18
1.640318598e-18
1.647168478e-18
1.686630144e-18
1.754698261e-18
1.694993594e-18
1.78477508e-18
1.807046547e-18
2.077001606e-18
2.299909401e-18
2.245980926e-18
2.137998004e-18
2.028718005e-18
1.934103235e-18
1.952287455e-18
1.990076537e-18
2.054289564e-18
2.002009932e-18
1.936660391e-18
1.892620483e-18
1.609344431e-18
1.314134984e-18
1.314134984e-18
1.314134984e-18
1.314134984e-18
1.314134984e-18
1.314134984e-18
1.314134984e-18
1.314134984e-18
1.314134984e-18
1.314134984e-18
1.314134984e-18
1.314134984e-18
1.314134984e-18
1.314134984e-18
1.004113218e-17
7.794383787e-17
2.951361376e-16
8.823319798e-16
2.430222261e-15
1.678778862e-18
1.744753443e-18
1.775582662e-18
1.751183922e-18
1.774096095e-18
1.74149618e-18
1.831390216e-18
1.854947746e-18
2.065588454e-18
2.372454224e-18
2.368500861e-18
2.328623751e-18
2.175602943e-18
2.028149748e-18
2.009965528e-18
2.021046537e-18
2.067359472e-18
2.03496883e-18
2.028433876e-18
1.942627088e-18
1.549677459e-18
1.314134984e-18
1.314134984e-18
1.314134984e-18
1.314134984e-18
1.314134984e-18
1.314134984e-18
1.314134984e-18
1.314134984e-18
1.314134984e-18
1.314134984e-18
1.314134984e-18
1.314134984e-18
1.314134984e-18
1.314134984e-18
1.303757908e-17
8.883323888e-17
3.240677041e-16
9.575840789e-16
2.616086214e-15
1.685981202e-18
1.770724781e-18
1.763827904e-18
1.912036761e-18
1.933013557e-18
1.825177084e-18
1.947000547e-18
1.925708292e-18
2.106772107e-18
2.457559728e-18
2.527217659e-18
2.468014307e-18
2.240614834e-18
2.094635802e-18
2.144642407e-18
2.086111949e-18
2.136686811e-18
2.120775619e-18
2.054573693e-18
1.967914519e-18
1.552234615e-18
1.314134984e-18
1.314134984e-18
1.314134984e-18
1.314134984e-18
1.314134984e-18
1.314134984e-18
1.314134984e-18
1.314134984e-18
1.314134984e-18
1.314134984e-18
1.314134984e-18
1.314134984e-18
1.314134984e-18
1.314134984e-18
1.64600554e-17
1.006246281e-16
3.553891875e-16
1.038256858e-15
2.815368464e-15
1.697074776e-18
1.744060766e-18
1.778679683e-18
1.990046111e-18
2.024087308e-18
1.906123747e-18
2.030000645e-18
1.999819351e-18
2.182765021e-18
2.540724346e-18
2.647861245e-18
2.567658375e-18
2.395407354e-18
2.198910939e-18
2.234142865e-18
2.17135048e-18
2.15146149e-18
2.138959839e-18
2.075315069e-18
1.965641492e-18
1.493988285e-18
1.314134984e-18
1.314134984e-18
1.314134984e-18
1.314134984e-18
1.314134984e-18
1.314134984e-18
1.314134984e-18
1.314134984e-18
1.314134984e-18
1.314134984e-18
1.314134984e-18
1.314134984e-18
1.314134984e-18
1.314134984e-18
2.033292528e-17
1.134101431e-16
3.892426548e-16
1.124769825e-15
3.028917465e-15
1.689334815e-18
1.764541592e-18
1.796704889e-18
2.016600678e-18
2.063652754e-18
1.968028297e-18
2.05329522e-18
2.083483733e-18
2.267661946e-18
2.616267061e-18
2.719955869e-18
2.581403582e-18
2.502615847e-18
2.340122772e-18
2.245792131e-18
2.225619012e-18
2.23698415e-18
2.190387086e-18
2.115661307e-18
1.903417364e-18
1.361584433e-18
1.314134984e-18
1.314134984e-18
1.314134984e-18
1.314134984e-18
1.314134984e-18
1.314134984e-18
1.314134984e-18
1.314134984e-18
1.314134984e-18
1.314134984e-18
1.314134984e-18
1.314134984e-18
1.314134984e-18
1.314134984e-18
2.467986655e-17
1.272681953e-16
4.257993414e-16
1.217558105e-15
3.25764087e-15
1.706003915e-18
1.732307558e-18
1.78067719e-18
1.986350035e-18
2.017710511e-18
2.04267612e-18
2.195238975e-18
2.214507044e-18
2.367918328e-18
2.679629253e-18
2.761514171e-18
2.64653353e-18
2.573766014e-18
2.383594423e-18
2.290968553e-18
2.269943048e-18
2.27335259e-18
2.161121857e-18
2.066507087e-18
1.752545163e-18
1.314134984e-18
1.314134984e-18
1.314134984e-18
1.314134984e-18
1.314134984e-18
1.314134984e-18
1.314134984e-18
1.314134984e-18
1.314134984e-18
1.314134984e-18
1.314134984e-18
1.314134984e-18
1.314134984e-18
1.314134984e-18
1.314134984e-18
2.953124861e-17
1.422950402e-16
4.652383751e-16
1.317081184e-15
3.502515473e-15
1.718973838e-18
1.754482141e-18
1.768975953e-18
1.888899488e-18
2.072747965e-18
2.159611065e-18
2.280495579e-18
2.404324462e-18
2.513775346e-18
2.763218085e-18
2.737346732e-18
2.726567229e-18
2.572371357e-18
2.495541028e-18
2.419110478e-18
2.33699736e-18
2.330178277e-18
2.148620205e-18
2.059972133e-18
1.58945544e-18
1.314134984e-18
1.314134984e-18
1.314134984e-18
1.314134984e-18
1.314134984e-18
1.314134984e-18
1.314134984e-18
1.314134984e-18
1.314134984e-18
1.314134984e-18
1.314134984e-18
1.314134984e-18
1.314134984e-18
1.314134984e-18
1.314134984e-18
3.49321966e-17
1.585862471e-16
5.077666798e-16
1.423807986e-15
3.764570746e-15
1.721656109e-18
1.764053537e-18
1.811233134e-18
1.856338818e-18
2.014593707e-18
2.112869959e-18
2.288736854e-18
2.476151479e-18
2.72120322e-18
2.863345396e-18
2.779135641e-18
2.78245001e-18
2.614379859e-18
2.510599835e-18
2.450648735e-18
2.427350203e-18
2.332735433e-18
2.156575802e-18
2.017636996e-18
1.443129295e-18
1.314134984e-18
1.314134984e-18
1.314134984e-18
1.314134984e-18
1.314134984e-18
1.314134984e-18
1.314134984e-18
1.314134984e-18
1.314134984e-18
1.314134984e-18
1.314134984e-18
1.314134984e-18
1.314134984e-18
1.314134984e-18
1.314134984e-18
4.09195999e-17
1.762519694e-16
5.535867179e-16
1.538250501e-15
4.044915429e-15
1.721893774e-18
1.795980558e-18
1.916728943e-18
1.862939858e-18
1.955055806e-18
2.108984232e-18
2.396509647e-18
2.625310995e-18
2.864148911e-18
2.973594287e-18
2.899044899e-18
2.783870652e-18
2.719621481e-18
2.586462128e-18
2.520828459e-18
2.44610268e-18
2.390413506e-18
2.209139563e-18
2.003430574e-18
1.314134984e-18
1.314134984e-18
1.314134984e-18
1.314134984e-18
1.314134984e-18
1.314134984e-18
1.314134984e-18
1.314134984e-18
1.314134984e-18
1.314134984e-18
1.314134984e-18
1.314134984e-18
1.314134984e-18
1.314134984e-18
1.314134984e-18
1.314134984e-18
4.754012786e-17
1.953908646e-16
6.029381847e-16
1.66093908e-15
4.344737189e-15
1.766023347e-18
1.855093389e-18
1.954912297e-18
1.910826087e-18
1.973986919e-18
2.147289601e-18
2.396821311e-18
2.63966301e-18
2.944322695e-18
3.030340468e-18
2.915754956e-18
2.817639429e-18
2.81302023e-18
2.620841669e-18
2.534182495e-18
2.474231395e-18
2.4333169e-18
2.183568003e-18
1.927568281e-18
1.314134984e-18
1.314134984e-18
1.314134984e-18
1.314134984e-18
1.314134984e-18
1.314134984e-18
1.314134984e-18
1.314134984e-18
1.314134984e-18
1.314134984e-18
1.314134984e-18
1.314134984e-18
1.314134984e-18
1.314134984e-18
1.314134984e-18
2.10099398e-18
5.483495932e-17
2.161204641e-16
6.560678101e-16
1.792443704e-15
4.665282714e-15
1.793721485e-18
1.937633822e-18
2.027421671e-18
1.986857552e-18
2.03744669e-18
2.211590742e-18
2.498241742e-18
2.73208736e-18
2.981115349e-18
3.12022814e-18
2.994958297e-18
2.895529171e-18
2.914025911e-18
2.72057075e-18
2.596690752e-18
2.552934972e-18
2.476788551e-18
2.204309379e-18
1.811928007e-18
1.314134984e-18
1.314134984e-18
1.314134984e-18
1.314134984e-18
1.314134984e-18
1.314134984e-18
1.314134984e-18
1.314134984e-18
1.314134984e-18
1.314134984e-18
1.314134984e-18
1.314134984e-18
1.314134984e-18
1.314134984e-18
1.314134984e-18
4.292737726e-18
6.285676888e-17
2.385639612e-16
7.132375944e-16
1.933361812e-15
5.007898897e-15
1.823633622e-18
1.969282223e-18
2.006698367e-18
2.149254598e-18
2.141950028e-18
2.340030911e-18
2.496119815e-18
2.67440378e-18
2.924337676e-18
3.18186904e-18
3.155632501e-18
3.033375521e-18
2.986543199e-18
2.809218823e-18
2.661756164e-18
2.5841891e-18
2.475936166e-18
2.143505894e-18
1.65310021e-18
1.314134984e-18
1.314134984e-18
1.314134984e-18
1.314134984e-18
1.314134984e-18
1.314134984e-18
1.314134984e-18
1.314134984e-18
1.314134984e-18
1.314134984e-18
1.314134984e-18
1.314134984e-18
1.314134984e-18
1.314134984e-18
1.314134984e-18
6.816485867e-18
7.16561722e-17
2.628387157e-16
7.747263526e-16
2.084328414e-15
5.37400246e-15
1.859329863e-18
1.96181142e-18
2.035092283e-18
2.25052548e-18
2.243665602e-18
2.352978806e-18
2.554013524e-18
2.67761025e-18
2.947556701e-18
3.231334924e-18
3.253079091e-18
3.038821975e-18
3.016017006e-18
2.808366438e-18
2.71147864e-18
2.560890568e-18
2.395243689e-18
2.062813417e-18
1.535471037e-18
1.314134984e-18
1.314134984e-18
1.314134984e-18
1.314134984e-18
1.314134984e-18
1.314134984e-18
1.314134984e-18
1.314134984e-18
1.314134984e-18
1.314134984e-18
1.314134984e-18
1.314134984e-18
1.314134984e-18
1.314134984e-18
1.314134984e-18
9.69660255e-18
8.129802594e-17
2.890914271e-16
8.408369209e-16
2.246021075e-15
5.765116849e-15
1.849263354e-18
2.000535495e-18
2.091814028e-18
2.325811602e-18
2.405933577e-18
2.395798736e-18
2.557902351e-18
2.719207103e-18
3.050209675e-18
3.289892918e-18
3.303616953e-18
3.066269884e-18
2.975680232e-18
2.783363135e-18
2.701818274e-18
2.543842862e-18
2.37876424e-18
1.975870115e-18
1.391133791e-18
1.314134984e-18
1.314134984e-18
1.314134984e-18
1.314134984e-18
1.314134984e-18
1.314134984e-18
1.314134984e-18
1.314134984e-18
1.314134984e-18
1.314134984e-18
1.314134984e-18
1.314134984e-18
1.314134984e-18
1.314134984e-18
1.314134984e-18
1.296088349e-17
9.185061837e-17
3.174641624e-16
9.118777973e-16
2.419160252e-15
6.182847182e-15
1.872923115e-18
1.979939712e-18
2.146287182e-18
2.33740339e-18
2.461078073e-18
2.463396869e-18
2.597681883e-18
2.788831135e-18
3.070238751e-18
3.31858989e-18
3.316686861e-18
3.108787614e-18
3.02478093e-18
2.79160286e-18
2.750120108e-18
2.566289009e-18
2.369103873e-18
1.874152135e-18
1.314134984e-18
1.314134984e-18
1.314134984e-18
1.314134984e-18
1.314134984e-18
1.314134984e-18
1.314134984e-18
1.314134984e-18
1.314134984e-18
1.314134984e-18
1.314134984e-18
1.314134984e-18
1.314134984e-18
1.314134984e-18
1.314134984e-18
1.314134984e-18
1.663232021e-17
1.033801788e-16
3.481037929e-16
9.881936831e-16
2.60450192e-15
6.628894829e-15
1.86011135e-18
1.980048305e-18
2.135480837e-18
2.221864651e-18
2.438853069e-18
2.554529649e-18
2.695585731e-18
2.929027612e-18
3.204215896e-18
3.331853406e-18
3.266722763e-18
3.186559299e-18
3.020626046e-18
2.805525153e-18
2.789898089e-18
2.62425121e-18
2.332167176e-18
1.78777709e-18
1.314134984e-18
1.314134984e-18
1.314134984e-18
1.314134984e-18
1.314134984e-18
1.314134984e-18
1.314134984e-18
1.314134984e-18
1.314134984e-18
1.314134984e-18
1.314134984e-18
1.314134984e-18
1.314134984e-18
1.314134984e-18
1.314134984e-18
1.314134984e-18
2.074745893e-17
1.159570543e-16
3.811803527e-16
1.07015982e-15
2.80285919e-15
7.105081613e-15
1.870909781e-18
1.935264605e-18
2.016506572e-18
2.131592866e-18
2.309681673e-18
2.48225949e-18
2.67033685e-18
2.914966783e-18
3.279131326e-18
3.394449777e-18
3.278903286e-18
3.206861489e-18
3.102783222e-18
2.815469649e-18
2.740175613e-18
2.641867173e-18
2.267954149e-18
1.672420944e-18
1.314134984e-18
1.314134984e-18
1.314134984e-18
1.314134984e-18
1.314134984e-18
1.314134984e-18
1.314134984e-18
1.314134984e-18
1.314134984e-18
1.314134984e-18
1.314134984e-18
1.314134984e-18
1.314134984e-18
1.314134984e-18
1.314134984e-18
1.314134984e-18
2.534267429e-17
1.29666348e-16
4.168657637e-16
1.158140471e-15
3.015083263e-15
7.613332129e-15
1.856474302e-18
1.921579976e-18
1.987934714e-18
2.111207211e-18
2.269514071e-18
2.463798199e-18
2.711269417e-18
2.930584384e-18
3.326357225e-18
3.452863728e-18
3.363065883e-18
3.320252315e-18
3.167999735e-18
2.838768181e-18
2.728526347e-18
2.600952678e-18
2.20601415e-18
1.582920486e-18
1.314134984e-18
1.314134984e-18
1.314134984e-18
1.314134984e-18
1.314134984e-18
1.314134984e-18
1.314134984e-18
1.314134984e-18
1.314134984e-18
1.314134984e-18
1.314134984e-18
1.314134984e-18
1.314134984e-18
1.314134984e-18
1.314134984e-18
1.314134984e-18
3.046000302e-17
1.445893879e-16
4.553453305e-16
1.252548451e-15
3.242092083e-15
8.155693137e-15
1.890814437e-18
1.954156312e-18
2.039150977e-18
2.177777424e-18
2.343643201e-18
2.520455409e-18
2.745726058e-18
2.960199827e-18
3.36073281e-18
3.483658193e-18
3.377814576e-18
3.367847357e-18
3.187551076e-18
2.848712676e-18
2.725685062e-18
2.621409926e-18
2.152029747e-18
1.428354616e-18
1.314134984e-18
1.314134984e-18
1.314134984e-18
1.314134984e-18
1.314134984e-18
1.314134984e-18
1.314134984e-18
1.314134984e-18
1.314134984e-18
1.314134984e-18
1.314134984e-18
1.314134984e-18
1.314134984e-18
1.314134984e-18
1.314134984e-18
1.314134984e-18
3.613427556e-17
1.608069876e-16
4.968187705e-16
1.353834328e-15
3.48485078e-15
8.734345914e-15
1.9099722e-18
2.024029023e-18
2.139973209e-18
2.369548292e-18
2.453567008e-18
2.653452647e-18
2.861948705e-18
2.996929496e-18
3.3674834e-18
3.525705245e-18
3.433221172e-18
3.341021227e-18
3.125293905e-18
2.866896896e-18
2.756655062e-18
2.617716256e-18
2.15146149e-18
1.358743149e-18
1.314134984e-18
1.314134984e-18
1.314134984e-18
1.314134984e-18
1.314134984e-18
1.314134984e-18
1.314134984e-18
1.314134984e-18
1.314134984e-18
1.314134984e-18
1.314134984e-18
1.314134984e-18
1.314134984e-18
1.314134984e-18
1.314134984e-18
1.314134984e-18
4.240512654e-17
1.784143732e-16
5.414995274e-16
1.462452439e-15
3.744393801e-15
9.351587554e-15
1.936153668e-18
2.058728836e-18
2.284652757e-18
2.510705749e-18
2.623550508e-18
2.664852378e-18
2.853549966e-18
3.034050337e-18
3.30629425e-18
3.549138355e-18
3.541781814e-18
3.398239636e-18
3.130301174e-18
2.859509556e-18
2.71517231e-18
2.576517633e-18
2.097477087e-18
1.314134984e-18
1.314134984e-18
1.314134984e-18
1.314134984e-18
1.314134984e-18
1.314134984e-18
1.314134984e-18
1.314134984e-18
1.314134984e-18
1.314134984e-18
1.314134984e-18
1.314134984e-18
1.314134984e-18
1.314134984e-18
1.314134984e-18
1.314134984e-18
1.314134984e-18
4.932608845e-17
1.975265022e-16
5.896230069e-16
1.578903796e-15
4.021806722e-15
1.000988741e-14
1.994544735e-18
2.092426715e-18
2.26517456e-18
2.57518002e-18
2.686925265e-18
2.688303561e-18
2.86788701e-18
3.125022552e-18
3.331583231e-18
3.573715037e-18
3.613442759e-18
3.388413198e-18
3.226900886e-18
2.874000107e-18
2.689600751e-18
2.465139285e-18
1.996043234e-18
1.314134984e-18
1.314134984e-18
1.314134984e-18
1.314134984e-18
1.314134984e-18
1.314134984e-18
1.314134984e-18
1.314134984e-18
1.314134984e-18
1.314134984e-18
1.314134984e-18
1.314134984e-18
1.314134984e-18
1.314134984e-18
1.314134984e-18
1.314134984e-18
1.314134984e-18
5.693422225e-17
2.182452922e-16
6.4141758e-16
1.703711369e-15
4.318259881e-15
1.071182741e-14
2.018486218e-18
2.111060279e-18
2.280483597e-18
2.587288093e-18
2.661061663e-18
2.722230496e-18
2.884733196e-18
3.113943093e-18
3.421129297e-18
3.604016795e-18
3.649678171e-18
3.42054174e-18
3.296224268e-18
2.915766987e-18
2.668006989e-18
2.366262589e-18
1.862502869e-18
1.314134984e-18
1.314134984e-18
1.314134984e-18
1.314134984e-18
1.314134984e-18
1.314134984e-18
1.314134984e-18
1.314134984e-18
1.314134984e-18
1.314134984e-18
1.314134984e-18
1.314134984e-18
1.314134984e-18
1.314134984e-18
1.314134984e-18
1.314134984e-18
3.483401946e-18
6.529284041e-17
2.406879315e-16
6.971349522e-16
1.83743845e-15
4.634985211e-15
1.1460166e-14
2.027405893e-18
2.126686487e-18
2.325589119e-18
2.576660385e-18
2.698226561e-18
2.820457022e-18
2.944253719e-18
3.157513873e-18
3.424990588e-18
3.66099909e-18
3.668098506e-18
3.495542184e-18
3.332443158e-18
3.000437262e-18
2.71346754e-18
2.316824241e-18
1.717881494e-18
1.314134984e-18
1.314134984e-18
1.314134984e-18
1.314134984e-18
1.314134984e-18
1.314134984e-18
1.314134984e-18
1.314134984e-18
1.314134984e-18
1.314134984e-18
1.314134984e-18
1.314134984e-18
1.314134984e-18
1.314134984e-18
1.314134984e-18
1.314134984e-18
6.370724926e-18
7.445478909e-17
2.649837901e-16
7.570527377e-16
1.9806775e-15
4.973291513e-15
1.225783822e-14
2.072856124e-18
2.2090624e-18
2.420863362e-18
2.46983515e-18
2.589502948e-18
2.764828427e-18
3.042683316e-18
3.274026155e-18
3.527327941e-18
3.68224023e-18
3.664024679e-18
3.447513464e-18
3.316858601e-18
3.011518271e-18
2.69329442e-18
2.222209471e-18
1.541437734e-18
1.314134984e-18
1.314134984e-18
1.314134984e-18
1.314134984e-18
1.314134984e-18
1.314134984e-18
1.314134984e-18
1.314134984e-18
1.314134984e-18
1.314134984e-18
1.314134984e-18
1.314134984e-18
1.314134984e-18
1.314134984e-18
1.314134984e-18
1.314134984e-18
9.63140272e-18
8.449093023e-17
2.912653267e-16
8.214689683e-16
2.134057525e-15
5.334561367e-15
1.310793744e-14
2.153818452e-18
2.316362108e-18
2.454721804e-18
2.431995647e-18
2.54379837e-18
2.74349436e-18
3.021450784e-18
3.254144222e-18
3.535403145e-18
3.694710389e-18
3.581965082e-18
3.411659759e-18
3.197919785e-18
2.918324143e-18
2.580495431e-18
2.082134151e-18
1.32038581e-18
1.314134984e-18
1.314134984e-18
1.314134984e-18
1.314134984e-18
1.314134984e-18
1.314134984e-18
1.314134984e-18
1.314134984e-18
1.314134984e-18
1.314134984e-18
1.314134984e-18
1.314134984e-18
1.314134984e-18
1.314134984e-18
1.314134984e-18
1.314134984e-18
1.329769209e-17
9.545874262e-17
3.196682598e-16
8.906789306e-16
2.298238074e-15
5.720280985e-15
1.401375422e-14
2.196213312e-18
2.336539878e-18
2.4365147e-18
2.432085313e-18
2.555585316e-18
2.7661262e-18
3.106494852e-18
3.304207449e-18
3.461782387e-18
3.680559039e-18
3.591497928e-18
3.457228902e-18
3.117382366e-18
2.880250932e-18
2.521112587e-18
1.937512776e-18
1.314134984e-18
1.314134984e-18
1.314134984e-18
1.314134984e-18
1.314134984e-18
1.314134984e-18
1.314134984e-18
1.314134984e-18
1.314134984e-18
1.314134984e-18
1.314134984e-18
1.314134984e-18
1.314134984e-18
1.314134984e-18
1.314134984e-18
1.314134984e-18
1.314134984e-18
1.739001086e-17
1.074256566e-16
3.503507849e-16
9.650134279e-16
2.473939604e-15
6.132016537e-15
1.497878461e-14
2.209523986e-18
2.305343923e-18
2.417788903e-18
2.477443471e-18
2.605639079e-18
2.832493341e-18
3.154810802e-18
3.238215652e-18
3.403295986e-18
3.636101974e-18
3.531386263e-18
3.445258508e-18
3.047470249e-18
2.743869282e-18
2.363989561e-18
1.753965806e-18
1.314134984e-18
1.314134984e-18
1.314134984e-18
1.314134984e-18
1.314134984e-18
1.314134984e-18
1.314134984e-18
1.314134984e-18
1.314134984e-18
1.314134984e-18
1.314134984e-18
1.314134984e-18
1.314134984e-18
1.314134984e-18
1.314134984e-18
1.314134984e-18
1.314134984e-18
2.194919474e-17
1.204738583e-16
3.834738425e-16
1.04481596e-15
2.661927871e-15
6.571427528e-15
1.600672444e-14
2.21906544e-18
2.327634157e-18
2.432481668e-18
2.619556399e-18
2.693380389e-18
2.947510981e-18
3.174011072e-18
3.222440589e-18
3.392452642e-18
3.641834108e-18
3.526777223e-18
3.404247985e-18
3.003092691e-18
2.650106898e-18
2.288411397e-18
1.575249018e-18
1.314134984e-18
1.314134984e-18
1.314134984e-18
1.314134984e-18
1.314134984e-18
1.314134984e-18
1.314134984e-18
1.314134984e-18
1.314134984e-18
1.314134984e-18
1.314134984e-18
1.314134984e-18
1.314134984e-18
1.314134984e-18
1.314134984e-18
1.314134984e-18
1.314134984e-18
2.700183838e-17
1.346827885e-16
4.191980302e-16
1.130455593e-15
2.862989733e-15
7.040278988e-15
1.710150284e-14
2.284502239e-18
2.439882106e-18
2.526340776e-18
2.674681967e-18
2.787319003e-18
2.944774333e-18
3.141869109e-18
3.239072689e-18
3.432217202e-18
3.655957066e-18
3.593533985e-18
3.311053857e-18
3.011559066e-18
2.60606699e-18
2.157428187e-18
1.32209058e-18
1.314134984e-18
1.314134984e-18
1.314134984e-18
1.314134984e-18
1.314134984e-18
1.314134984e-18
1.314134984e-18
1.314134984e-18
1.314134984e-18
1.314134984e-18
1.314134984e-18
1.314134984e-18
1.314134984e-18
1.314134984e-18
1.314134984e-18
1.314134984e-18
1.314134984e-18
3.259426797e-17
1.501387513e-16
4.577264969e-16
1.222346174e-15
3.07799149e-15
7.540447127e-15
1.826729673e-14
2.333539097e-18
2.515894643e-18
2.700497231e-18
2.871493148e-18
2.919245814e-18
2.995025661e-18
3.160715208e-18
3.318240581e-18
3.571754902e-18
3.671323581e-18
3.621321094e-18
3.258560139e-18
2.932678403e-18
2.472526624e-18
1.947457272e-18
1.314134984e-18
1.314134984e-18
1.314134984e-18
1.314134984e-18
1.314134984e-18
1.314134984e-18
1.314134984e-18
1.314134984e-18
1.314134984e-18
1.314134984e-18
1.314134984e-18
1.314134984e-18
1.314134984e-18
1.314134984e-18
1.314134984e-18
1.314134984e-18
1.314134984e-18
1.314134984e-18
3.877315287e-17
1.669304527e-16
4.992375126e-16
1.320893315e-15
3.3078492e-15
8.073914192e-15
1.950849336e-14
2.339076767e-18
2.573514382e-18
2.716413075e-18
2.990243008e-18
3.087985758e-18
3.104403239e-18
3.284063094e-18
3.471706081e-18
3.658754826e-18
3.681821362e-18
3.630285683e-18
3.237438606e-18
2.947491632e-18
2.39155002e-18
1.781810392e-18
1.314134984e-18
1.314134984e-18
1.314134984e-18
1.314134984e-18
1.314134984e-18
1.314134984e-18
1.314134984e-18
1.314134984e-18
1.314134984e-18
1.314134984e-18
1.314134984e-18
1.314134984e-18
1.314134984e-18
1.314134984e-18
1.314134984e-18
1.314134984e-18
1.314134984e-18
1.314134984e-18
4.55855056e-17
1.851479714e-16
5.439537863e-16
1.426538658e-15
3.553522329e-15
8.642794372e-15
2.082977563e-14
2.393249965e-18
2.625279973e-18
2.76821016e-18
3.048440467e-18
3.152642621e-18
3.231981559e-18
3.38360322e-18
3.491624158e-18
3.696277852e-18
3.742825513e-18
3.617913103e-18
3.245609838e-18
2.923919986e-18
2.373649928e-18
1.701970301e-18
1.314134984e-18
1.314134984e-18
1.314134984e-18
1.314134984e-18
1.314134984e-18
1.314134984e-18
1.314134984e-18
1.314134984e-18
1.314134984e-18
1.314134984e-18
1.314134984e-18
1.314134984e-18
1.314134984e-18
1.314134984e-18
1.314134984e-18
1.314134984e-18
1.314134984e-18
1.314134984e-18
5.307593655e-17
2.048969998e-16
5.920863594e-16
1.539759877e-15
3.816018387e-15
9.249318189e-15
2.223609666e-14
2.455476337e-18
2.705952666e-18
2.844089669e-18
3.057461678e-18
3.075737437e-18
3.168864089e-18
3.409842165e-18
3.55901922e-18
3.652324509e-18
3.749077889e-18
3.571852804e-18
3.15738443e-18
2.838991569e-18
2.28414947e-18
1.559337826e-18
1.314134984e-18
1.314134984e-18
1.314134984e-18
1.314134984e-18
1.314134984e-18
1.314134984e-18
1.314134984e-18
1.314134984e-18
1.314134984e-18
1.314134984e-18
1.314134984e-18
1.314134984e-18
1.314134984e-18
1.314134984e-18
1.314134984e-18
1.314134984e-18
1.314134984e-18
1.314134984e-18
6.130552767e-17
2.262990154e-16
6.438828198e-16
1.661072396e-15
4.096433074e-15
9.895857029e-15
2.373270985e-14
2.543945613e-18
2.78257201e-18
2.888933092e-18
3.011387958e-18
3.041012333e-18
3.147020793e-18
3.340001642e-18
3.518384897e-18
3.676842162e-18
3.736898916e-18
3.464607311e-18
3.065985594e-18
2.657657046e-18
2.070484885e-18
1.317828654e-18
1.314134984e-18
1.314134984e-18
1.314134984e-18
1.314134984e-18
1.314134984e-18
1.314134984e-18
1.314134984e-18
1.314134984e-18
1.314134984e-18
1.314134984e-18
1.314134984e-18
1.314134984e-18
1.314134984e-18
1.314134984e-18
1.314134984e-18
1.314134984e-18
1.314134984e-18
4.233543144e-18
7.03322725e-17
2.494753243e-16
6.995794311e-16
1.791001072e-15
4.395931065e-15
1.058493258e-14
2.532516765e-14
2.606059436e-18
2.862434825e-18
3.037721059e-18
3.140312921e-18
3.059671882e-18
3.137642148e-18
3.354270193e-18
3.544055586e-18
3.62516383e-18
3.722564973e-18
3.472981614e-18
3.010586056e-18
2.567903953e-18
1.90228085e-18
1.314134984e-18
1.314134984e-18
1.314134984e-18
1.314134984e-18
1.314134984e-18
1.314134984e-18
1.314134984e-18
1.314134984e-18
1.314134984e-18
1.314134984e-18
1.314134984e-18
1.314134984e-18
1.314134984e-18
1.314134984e-18
1.314134984e-18
1.314134984e-18
1.314134984e-18
1.314134984e-18
7.593908045e-18
8.020798774e-17
2.745475756e-16
7.594471157e-16
1.930117091e-15
4.715714782e-15
1.131920654e-14
2.701937818e-14
2.621750179e-18
2.893462997e-18
3.099370567e-18
3.215547072e-18
3.103452791e-18
3.152012235e-18
3.347281082e-18
3.496070923e-18
3.640626373e-18
3.724549915e-18
3.491977263e-18
2.990156344e-18
2.393045356e-18
1.705663971e-18
1.314134984e-18
1.314134984e-18
1.314134984e-18
1.314134984e-18
1.314134984e-18
1.314134984e-18
1.314134984e-18
1.314134984e-18
1.314134984e-18
1.314134984e-18
1.314134984e-18
1.314134984e-18
1.314134984e-18
1.314134984e-18
1.314134984e-18