/*--------------------------------*- C++ -*----------------------------------*\
| =========                 |                                                 |
| \\      /  F ield         | OpenFOAM: The Open Source CFD Toolbox           |
|  \\    /   O peration     | Version:  v2006                                 |
|   \\  /    A nd           | Website:  www.openfoam.com                      |
|    \\/     M anipulation  |                                                 |
\*---------------------------------------------------------------------------*/
FoamFile
{
    version     2.0;
    format      ascii;
    class       volScalarField;
    location    "0.12";
    object      CH4;
}
// * * * * * * * * * * * * * * * * * * * * * * * * * * * * * * * * * * * * * //

dimensions      [0 0 0 0 0 0 0];


internalField   nonuniform List<scalar> 
168000
(
1.71179648e-10
1.711796146e-10
1.711795845e-10
1.71179556e-10
1.71179555e-10
1.71179555e-10
1.711795559e-10
1.711795579e-10
1.71179567e-10
1.711795854e-10
1.71179559e-10
1.711795593e-10
1.711795566e-10
1.71179555e-10
1.71179558e-10
1.711795716e-10
1.711795667e-10
1.711795564e-10
1.711795631e-10
1.71179561e-10
1.71179568e-10
1.711795555e-10
1.711795552e-10
1.711795595e-10
1.71179555e-10
1.71179555e-10
1.71179555e-10
1.71179555e-10
1.71179555e-10
1.71179555e-10
1.71179555e-10
1.71179555e-10
1.71179555e-10
1.71179555e-10
1.71179555e-10
1.71179555e-10
1.711910298e-10
1.715573961e-10
1.723381211e-10
1.749548061e-10
1.711798013e-10
1.711797187e-10
1.711796307e-10
1.711795794e-10
1.711795591e-10
1.71179555e-10
1.71179578e-10
1.71179603e-10
1.711796246e-10
1.71179629e-10
1.711795939e-10
1.711795905e-10
1.711795697e-10
1.711795612e-10
1.711795678e-10
1.711795846e-10
1.711795795e-10
1.711795636e-10
1.711795724e-10
1.711795796e-10
1.711795821e-10
1.711795598e-10
1.71179593e-10
1.71179555e-10
1.71179555e-10
1.71179555e-10
1.71179555e-10
1.71179555e-10
1.71179555e-10
1.71179555e-10
1.71179555e-10
1.71179555e-10
1.71179555e-10
1.71179555e-10
1.71179555e-10
1.71179555e-10
1.712128974e-10
1.715904214e-10
1.724711374e-10
1.752367585e-10
1.711799034e-10
1.711797928e-10
1.711796986e-10
1.711796291e-10
1.711795991e-10
1.711795875e-10
1.711795885e-10
1.711795989e-10
1.711796601e-10
1.71179662e-10
1.711796065e-10
1.711796007e-10
1.71179572e-10
1.711795645e-10
1.711795754e-10
1.711795906e-10
1.711795847e-10
1.711795737e-10
1.711795784e-10
1.711795834e-10
1.711795799e-10
1.711795666e-10
1.711796122e-10
1.71179555e-10
1.71179555e-10
1.71179555e-10
1.71179555e-10
1.71179555e-10
1.71179555e-10
1.71179555e-10
1.71179555e-10
1.71179555e-10
1.71179555e-10
1.71179555e-10
1.71179555e-10
1.71179555e-10
1.71234366e-10
1.716296437e-10
1.726096605e-10
1.755443699e-10
1.711799882e-10
1.711798876e-10
1.71179767e-10
1.71179697e-10
1.711796748e-10
1.711796447e-10
1.711796191e-10
1.711796143e-10
1.71179676e-10
1.711796987e-10
1.711796443e-10
1.711795948e-10
1.711795769e-10
1.7117957e-10
1.711795879e-10
1.711795976e-10
1.711795954e-10
1.711795899e-10
1.711795807e-10
1.711795936e-10
1.711795907e-10
1.711795778e-10
1.711796116e-10
1.71179555e-10
1.71179555e-10
1.71179555e-10
1.71179555e-10
1.71179555e-10
1.71179555e-10
1.71179555e-10
1.71179555e-10
1.71179555e-10
1.71179555e-10
1.71179555e-10
1.71179555e-10
1.71179555e-10
1.712559926e-10
1.716746942e-10
1.727550602e-10
1.758784872e-10
1.711800771e-10
1.711799734e-10
1.711798484e-10
1.711797872e-10
1.711797055e-10
1.711796645e-10
1.711796559e-10
1.711796432e-10
1.711796815e-10
1.711797239e-10
1.711796965e-10
1.71179626e-10
1.711795846e-10
1.71179578e-10
1.711795933e-10
1.711796011e-10
1.711796065e-10
1.711796028e-10
1.711795855e-10
1.711795998e-10
1.711795973e-10
1.711795804e-10
1.711795865e-10
1.71179555e-10
1.71179555e-10
1.71179555e-10
1.71179555e-10
1.71179555e-10
1.71179555e-10
1.71179555e-10
1.71179555e-10
1.71179555e-10
1.71179555e-10
1.71179555e-10
1.71179555e-10
1.71179555e-10
1.712782432e-10
1.71725465e-10
1.729086236e-10
1.762402629e-10
1.711801337e-10
1.711800379e-10
1.711799334e-10
1.71179831e-10
1.711797594e-10
1.71179695e-10
1.71179695e-10
1.711796936e-10
1.711797203e-10
1.711797476e-10
1.711797236e-10
1.711796219e-10
1.711795982e-10
1.711795864e-10
1.711796012e-10
1.711796066e-10
1.711796182e-10
1.711796092e-10
1.711795938e-10
1.711796037e-10
1.711795973e-10
1.71179579e-10
1.71179555e-10
1.71179555e-10
1.71179555e-10
1.71179555e-10
1.71179555e-10
1.71179555e-10
1.71179555e-10
1.71179555e-10
1.71179555e-10
1.71179555e-10
1.71179555e-10
1.71179555e-10
1.71179555e-10
1.711814186e-10
1.713014976e-10
1.717819313e-10
1.730715884e-10
1.766310014e-10
1.71180146e-10
1.711800746e-10
1.711799648e-10
1.711799046e-10
1.711797928e-10
1.711797353e-10
1.711797175e-10
1.711796904e-10
1.711797163e-10
1.7117976e-10
1.711797461e-10
1.711796356e-10
1.711796023e-10
1.711795963e-10
1.711796064e-10
1.711796167e-10
1.711796274e-10
1.71179614e-10
1.711796013e-10
1.711796008e-10
1.711795919e-10
1.711795736e-10
1.71179555e-10
1.71179555e-10
1.71179555e-10
1.71179555e-10
1.71179555e-10
1.71179555e-10
1.71179555e-10
1.71179555e-10
1.71179555e-10
1.71179555e-10
1.71179555e-10
1.71179555e-10
1.71179555e-10
1.71185848e-10
1.713261134e-10
1.718441546e-10
1.732451248e-10
1.770521682e-10
1.711801725e-10
1.711801003e-10
1.711799929e-10
1.711799527e-10
1.711798429e-10
1.711797931e-10
1.711797436e-10
1.711797029e-10
1.71179729e-10
1.711797692e-10
1.711797607e-10
1.711796742e-10
1.711796121e-10
1.711796117e-10
1.711796183e-10
1.71179619e-10
1.711796332e-10
1.711796252e-10
1.711796077e-10
1.711796038e-10
1.711795906e-10
1.711795598e-10
1.71179555e-10
1.71179555e-10
1.71179555e-10
1.71179555e-10
1.71179555e-10
1.71179555e-10
1.71179555e-10
1.71179555e-10
1.71179555e-10
1.71179555e-10
1.71179555e-10
1.71179555e-10
1.71179555e-10
1.711913812e-10
1.713523866e-10
1.719122191e-10
1.734303796e-10
1.775054483e-10
1.71180231e-10
1.711801374e-10
1.711800376e-10
1.711799894e-10
1.711798753e-10
1.711798022e-10
1.711797692e-10
1.711797175e-10
1.711797437e-10
1.711797992e-10
1.711797657e-10
1.711796756e-10
1.711796263e-10
1.711796189e-10
1.711796241e-10
1.711796234e-10
1.711796328e-10
1.711796281e-10
1.711796192e-10
1.711796112e-10
1.711795866e-10
1.71179555e-10
1.71179555e-10
1.71179555e-10
1.71179555e-10
1.71179555e-10
1.71179555e-10
1.71179555e-10
1.71179555e-10
1.71179555e-10
1.71179555e-10
1.71179555e-10
1.71179555e-10
1.71179555e-10
1.71179555e-10
1.711980826e-10
1.713805974e-10
1.719863946e-10
1.736284778e-10
1.779926797e-10
1.711803272e-10
1.711802109e-10
1.711800967e-10
1.71180009e-10
1.711799349e-10
1.71179834e-10
1.711797907e-10
1.711797397e-10
1.711797838e-10
1.711798249e-10
1.711797671e-10
1.711796975e-10
1.711796322e-10
1.71179622e-10
1.711796239e-10
1.71179628e-10
1.711796349e-10
1.711796293e-10
1.711796222e-10
1.711796175e-10
1.711795869e-10
1.71179555e-10
1.71179555e-10
1.71179555e-10
1.71179555e-10
1.71179555e-10
1.71179555e-10
1.71179555e-10
1.71179555e-10
1.71179555e-10
1.71179555e-10
1.71179555e-10
1.71179555e-10
1.71179555e-10
1.71179555e-10
1.712059142e-10
1.714110087e-10
1.720670201e-10
1.738405966e-10
1.785158712e-10
1.711804164e-10
1.711802946e-10
1.711801825e-10
1.711800674e-10
1.71179972e-10
1.711798735e-10
1.711798297e-10
1.711797693e-10
1.711797866e-10
1.711798487e-10
1.711798078e-10
1.711797585e-10
1.711796695e-10
1.711796321e-10
1.711796302e-10
1.711796314e-10
1.711796364e-10
1.711796329e-10
1.711796322e-10
1.711796229e-10
1.711795804e-10
1.71179555e-10
1.71179555e-10
1.71179555e-10
1.71179555e-10
1.71179555e-10
1.71179555e-10
1.71179555e-10
1.71179555e-10
1.71179555e-10
1.71179555e-10
1.71179555e-10
1.71179555e-10
1.71179555e-10
1.71179555e-10
1.712149647e-10
1.714438992e-10
1.721544055e-10
1.740678893e-10
1.790772579e-10
1.711804622e-10
1.711803499e-10
1.711802107e-10
1.711801528e-10
1.711800556e-10
1.711799235e-10
1.711798802e-10
1.711798084e-10
1.7117981e-10
1.711798749e-10
1.711798519e-10
1.711797981e-10
1.711796781e-10
1.711796393e-10
1.711796447e-10
1.711796384e-10
1.711796438e-10
1.711796421e-10
1.71179635e-10
1.711796256e-10
1.711795807e-10
1.71179555e-10
1.71179555e-10
1.71179555e-10
1.71179555e-10
1.71179555e-10
1.71179555e-10
1.71179555e-10
1.71179555e-10
1.71179555e-10
1.71179555e-10
1.71179555e-10
1.71179555e-10
1.71179555e-10
1.71179555e-10
1.71225302e-10
1.714795141e-10
1.722490094e-10
1.743115548e-10
1.796791734e-10
1.711804948e-10
1.71180367e-10
1.711802473e-10
1.711802072e-10
1.711801089e-10
1.711799702e-10
1.711799306e-10
1.711798469e-10
1.711798517e-10
1.711798969e-10
1.711798919e-10
1.711798218e-10
1.711797203e-10
1.711796506e-10
1.711796544e-10
1.711796476e-10
1.711796454e-10
1.711796441e-10
1.711796372e-10
1.711796254e-10
1.711795744e-10
1.71179555e-10
1.71179555e-10
1.71179555e-10
1.71179555e-10
1.71179555e-10
1.71179555e-10
1.71179555e-10
1.71179555e-10
1.71179555e-10
1.71179555e-10
1.71179555e-10
1.71179555e-10
1.71179555e-10
1.71179555e-10
1.712369997e-10
1.715181317e-10
1.72351261e-10
1.7457286e-10
1.803241805e-10
1.711805145e-10
1.711804057e-10
1.711802802e-10
1.711802435e-10
1.711801457e-10
1.711800124e-10
1.711799571e-10
1.711798895e-10
1.711798864e-10
1.711799405e-10
1.711799177e-10
1.711798203e-10
1.711797478e-10
1.711796658e-10
1.711796556e-10
1.711796535e-10
1.711796547e-10
1.711796496e-10
1.711796416e-10
1.711796186e-10
1.711795601e-10
1.71179555e-10
1.71179555e-10
1.71179555e-10
1.71179555e-10
1.71179555e-10
1.71179555e-10
1.71179555e-10
1.71179555e-10
1.71179555e-10
1.71179555e-10
1.71179555e-10
1.71179555e-10
1.71179555e-10
1.71179555e-10
1.712501293e-10
1.715599888e-10
1.724616775e-10
1.748531193e-10
1.810150207e-10
1.711805508e-10
1.711804217e-10
1.71180303e-10
1.711802572e-10
1.711801542e-10
1.711800624e-10
1.71180021e-10
1.711799476e-10
1.711799302e-10
1.711799738e-10
1.711799307e-10
1.711798308e-10
1.711797575e-10
1.711796705e-10
1.711796605e-10
1.711796582e-10
1.711796586e-10
1.711796465e-10
1.711796363e-10
1.711796024e-10
1.71179555e-10
1.71179555e-10
1.71179555e-10
1.71179555e-10
1.71179555e-10
1.71179555e-10
1.71179555e-10
1.71179555e-10
1.71179555e-10
1.71179555e-10
1.71179555e-10
1.71179555e-10
1.71179555e-10
1.71179555e-10
1.71179555e-10
1.712647825e-10
1.716053762e-10
1.725807998e-10
1.751537206e-10
1.817546441e-10
1.711805841e-10
1.711804556e-10
1.711803297e-10
1.711802492e-10
1.711801996e-10
1.71180121e-10
1.711800641e-10
1.711800285e-10
1.711799909e-10
1.711800078e-10
1.711799206e-10
1.7117985e-10
1.711797434e-10
1.711796826e-10
1.711796743e-10
1.711796655e-10
1.711796647e-10
1.711796451e-10
1.711796356e-10
1.711795847e-10
1.71179555e-10
1.71179555e-10
1.71179555e-10
1.71179555e-10
1.71179555e-10
1.71179555e-10
1.71179555e-10
1.71179555e-10
1.71179555e-10
1.71179555e-10
1.71179555e-10
1.71179555e-10
1.71179555e-10
1.71179555e-10
1.71179555e-10
1.712810956e-10
1.716545824e-10
1.72709253e-10
1.754760801e-10
1.825461604e-10
1.711806154e-10
1.711804936e-10
1.711803762e-10
1.711802717e-10
1.711802093e-10
1.71180128e-10
1.711800915e-10
1.711800618e-10
1.711800713e-10
1.711800446e-10
1.711799351e-10
1.711798665e-10
1.711797544e-10
1.711796842e-10
1.711796778e-10
1.711796752e-10
1.71179665e-10
1.71179646e-10
1.71179631e-10
1.711795689e-10
1.71179555e-10
1.71179555e-10
1.71179555e-10
1.71179555e-10
1.71179555e-10
1.71179555e-10
1.71179555e-10
1.71179555e-10
1.71179555e-10
1.71179555e-10
1.71179555e-10
1.71179555e-10
1.71179555e-10
1.71179555e-10
1.71179555e-10
1.7129918e-10
1.717079403e-10
1.728476487e-10
1.758217442e-10
1.833929184e-10
1.711806459e-10
1.711805445e-10
1.711804516e-10
1.711803024e-10
1.711802099e-10
1.711801436e-10
1.711801431e-10
1.711801259e-10
1.711801257e-10
1.711800855e-10
1.71179977e-10
1.711798667e-10
1.711797918e-10
1.711796924e-10
1.711796853e-10
1.711796773e-10
1.711796712e-10
1.711796517e-10
1.711796295e-10
1.71179555e-10
1.71179555e-10
1.71179555e-10
1.71179555e-10
1.71179555e-10
1.71179555e-10
1.71179555e-10
1.71179555e-10
1.71179555e-10
1.71179555e-10
1.71179555e-10
1.71179555e-10
1.71179555e-10
1.71179555e-10
1.71179555e-10
1.71179555e-10
1.713191768e-10
1.717657477e-10
1.729967107e-10
1.761923149e-10
1.842985052e-10
1.711807172e-10
1.711806088e-10
1.711805057e-10
1.71180351e-10
1.711802414e-10
1.711801757e-10
1.711801557e-10
1.711801419e-10
1.711801568e-10
1.711801072e-10
1.711799803e-10
1.711798768e-10
1.711798173e-10
1.711796961e-10
1.711796868e-10
1.711796803e-10
1.711796759e-10
1.711796489e-10
1.711796213e-10
1.71179555e-10
1.71179555e-10
1.71179555e-10
1.71179555e-10
1.71179555e-10
1.71179555e-10
1.71179555e-10
1.71179555e-10
1.71179555e-10
1.71179555e-10
1.71179555e-10
1.71179555e-10
1.71179555e-10
1.71179555e-10
1.71179555e-10
1.711819316e-10
1.713412102e-10
1.718283598e-10
1.731571843e-10
1.765895138e-10
1.852666865e-10
1.711807826e-10
1.711806827e-10
1.71180565e-10
1.711804102e-10
1.711802932e-10
1.711802226e-10
1.711802121e-10
1.711801894e-10
1.711801728e-10
1.711801378e-10
1.711800094e-10
1.711799027e-10
1.711798402e-10
1.711797069e-10
1.711796935e-10
1.711796888e-10
1.711796806e-10
1.711796511e-10
1.711796088e-10
1.71179555e-10
1.71179555e-10
1.71179555e-10
1.71179555e-10
1.71179555e-10
1.71179555e-10
1.71179555e-10
1.71179555e-10
1.71179555e-10
1.71179555e-10
1.71179555e-10
1.71179555e-10
1.71179555e-10
1.71179555e-10
1.71179555e-10
1.711885516e-10
1.713654394e-10
1.718961485e-10
1.733298609e-10
1.770151453e-10
1.863015303e-10
1.711808473e-10
1.711807361e-10
1.711805967e-10
1.711805002e-10
1.711803565e-10
1.711802944e-10
1.711802288e-10
1.711801806e-10
1.711801627e-10
1.711801635e-10
1.711800652e-10
1.711799376e-10
1.711798516e-10
1.711797165e-10
1.711797006e-10
1.711796922e-10
1.711796805e-10
1.711796446e-10
1.711795916e-10
1.71179555e-10
1.71179555e-10
1.71179555e-10
1.71179555e-10
1.71179555e-10
1.71179555e-10
1.71179555e-10
1.71179555e-10
1.71179555e-10
1.71179555e-10
1.71179555e-10
1.71179555e-10
1.71179555e-10
1.71179555e-10
1.71179555e-10
1.711961744e-10
1.713920173e-10
1.719694684e-10
1.735155827e-10
1.774711274e-10
1.874073158e-10
1.711809071e-10
1.711807748e-10
1.711806428e-10
1.711805661e-10
1.71180418e-10
1.711803178e-10
1.711802556e-10
1.71180192e-10
1.711801807e-10
1.711801813e-10
1.711800972e-10
1.711799342e-10
1.711798463e-10
1.711797164e-10
1.711797059e-10
1.711796897e-10
1.711796718e-10
1.711796359e-10
1.711795789e-10
1.71179555e-10
1.71179555e-10
1.71179555e-10
1.71179555e-10
1.71179555e-10
1.71179555e-10
1.71179555e-10
1.71179555e-10
1.71179555e-10
1.71179555e-10
1.71179555e-10
1.71179555e-10
1.71179555e-10
1.71179555e-10
1.71179555e-10
1.712048736e-10
1.714211397e-10
1.720487625e-10
1.737152642e-10
1.779595067e-10
1.885886445e-10
1.71180928e-10
1.711808164e-10
1.711807049e-10
1.711806222e-10
1.711805009e-10
1.711803619e-10
1.71180293e-10
1.711802225e-10
1.711802292e-10
1.711802001e-10
1.711801117e-10
1.711799376e-10
1.711798204e-10
1.711797137e-10
1.711797049e-10
1.711796878e-10
1.7117967e-10
1.711796265e-10
1.711795633e-10
1.71179555e-10
1.71179555e-10
1.71179555e-10
1.71179555e-10
1.71179555e-10
1.71179555e-10
1.71179555e-10
1.71179555e-10
1.71179555e-10
1.71179555e-10
1.71179555e-10
1.71179555e-10
1.71179555e-10
1.71179555e-10
1.71179555e-10
1.71214733e-10
1.71453013e-10
1.7213446e-10
1.739298373e-10
1.784824593e-10
1.898503644e-10
1.711809656e-10
1.711808287e-10
1.711807262e-10
1.711806489e-10
1.711805434e-10
1.711804097e-10
1.711803238e-10
1.711802615e-10
1.711802434e-10
1.711802032e-10
1.711801131e-10
1.711799477e-10
1.711798272e-10
1.711797146e-10
1.711797101e-10
1.711796902e-10
1.711796689e-10
1.711796155e-10
1.71179555e-10
1.71179555e-10
1.71179555e-10
1.71179555e-10
1.71179555e-10
1.71179555e-10
1.71179555e-10
1.71179555e-10
1.71179555e-10
1.71179555e-10
1.71179555e-10
1.71179555e-10
1.71179555e-10
1.71179555e-10
1.71179555e-10
1.71179555e-10
1.712258223e-10
1.71487837e-10
1.722270045e-10
1.741603431e-10
1.790422685e-10
1.911976145e-10
1.711809782e-10
1.711808522e-10
1.711807466e-10
1.71180631e-10
1.71180564e-10
1.71180464e-10
1.711803828e-10
1.711803316e-10
1.711803013e-10
1.711802152e-10
1.711801012e-10
1.711799716e-10
1.711798238e-10
1.711797161e-10
1.711797144e-10
1.711796965e-10
1.71179665e-10
1.711796062e-10
1.71179555e-10
1.71179555e-10
1.71179555e-10
1.71179555e-10
1.71179555e-10
1.71179555e-10
1.71179555e-10
1.71179555e-10
1.71179555e-10
1.71179555e-10
1.71179555e-10
1.71179555e-10
1.71179555e-10
1.71179555e-10
1.71179555e-10
1.71179555e-10
1.712382517e-10
1.715258245e-10
1.723269095e-10
1.74407915e-10
1.796413902e-10
1.926358973e-10
1.711810058e-10
1.711808709e-10
1.711807422e-10
1.711806322e-10
1.71180547e-10
1.711804617e-10
1.711803976e-10
1.711803445e-10
1.711803439e-10
1.711802619e-10
1.711801115e-10
1.711799808e-10
1.711798526e-10
1.711797172e-10
1.71179709e-10
1.711796984e-10
1.71179658e-10
1.711795937e-10
1.71179555e-10
1.71179555e-10
1.71179555e-10
1.71179555e-10
1.71179555e-10
1.71179555e-10
1.71179555e-10
1.71179555e-10
1.71179555e-10
1.71179555e-10
1.71179555e-10
1.71179555e-10
1.71179555e-10
1.71179555e-10
1.71179555e-10
1.71179555e-10
1.712521312e-10
1.715672322e-10
1.724346943e-10
1.746736533e-10
1.802823955e-10
1.94171026e-10
1.711810292e-10
1.711808999e-10
1.711807701e-10
1.711806625e-10
1.711805722e-10
1.711804887e-10
1.71180436e-10
1.711803677e-10
1.711803765e-10
1.711802927e-10
1.711801481e-10
1.711800295e-10
1.711798767e-10
1.711797197e-10
1.711797078e-10
1.71179694e-10
1.711796513e-10
1.71179584e-10
1.71179555e-10
1.71179555e-10
1.71179555e-10
1.71179555e-10
1.71179555e-10
1.71179555e-10
1.71179555e-10
1.71179555e-10
1.71179555e-10
1.71179555e-10
1.71179555e-10
1.71179555e-10
1.71179555e-10
1.71179555e-10
1.71179555e-10
1.71179555e-10
1.712675877e-10
1.716123061e-10
1.725509187e-10
1.749588048e-10
1.809680568e-10
1.958091825e-10
1.711810924e-10
1.711809618e-10
1.711808346e-10
1.711807336e-10
1.711806446e-10
1.711805473e-10
1.711804747e-10
1.711804009e-10
1.711804042e-10
1.711803195e-10
1.711801637e-10
1.711800492e-10
1.711798803e-10
1.711797208e-10
1.711797075e-10
1.711796962e-10
1.711796455e-10
1.711795673e-10
1.71179555e-10
1.71179555e-10
1.71179555e-10
1.71179555e-10
1.71179555e-10
1.71179555e-10
1.71179555e-10
1.71179555e-10
1.71179555e-10
1.71179555e-10
1.71179555e-10
1.71179555e-10
1.71179555e-10
1.71179555e-10
1.71179555e-10
1.71179555e-10
1.712847264e-10
1.7166129e-10
1.726761858e-10
1.752647304e-10
1.817012894e-10
1.975569554e-10
1.711811495e-10
1.711810364e-10
1.711809289e-10
1.711808503e-10
1.711807185e-10
1.711806246e-10
1.711805452e-10
1.711804398e-10
1.711804254e-10
1.71180348e-10
1.711801961e-10
1.711800443e-10
1.711798586e-10
1.711797227e-10
1.711797108e-10
1.711796958e-10
1.711796454e-10
1.711795598e-10
1.71179555e-10
1.71179555e-10
1.71179555e-10
1.71179555e-10
1.71179555e-10
1.71179555e-10
1.71179555e-10
1.71179555e-10
1.71179555e-10
1.71179555e-10
1.71179555e-10
1.71179555e-10
1.71179555e-10
1.71179555e-10
1.71179555e-10
1.71179555e-10
1.713036669e-10
1.717144716e-10
1.728111403e-10
1.755928024e-10
1.824852176e-10
1.994212827e-10
1.711812227e-10
1.711811081e-10
1.711810225e-10
1.71180944e-10
1.711808223e-10
1.711806673e-10
1.711805753e-10
1.711804758e-10
1.711804243e-10
1.711803601e-10
1.711802443e-10
1.711800739e-10
1.711798621e-10
1.711797219e-10
1.711797063e-10
1.711796914e-10
1.711796396e-10
1.71179555e-10
1.71179555e-10
1.71179555e-10
1.71179555e-10
1.71179555e-10
1.71179555e-10
1.71179555e-10
1.71179555e-10
1.71179555e-10
1.71179555e-10
1.71179555e-10
1.71179555e-10
1.71179555e-10
1.71179555e-10
1.71179555e-10
1.71179555e-10
1.71179555e-10
1.713245711e-10
1.717721982e-10
1.729564933e-10
1.759445341e-10
1.833231204e-10
2.01409623e-10
1.711813205e-10
1.711811892e-10
1.711810779e-10
1.711810179e-10
1.711808871e-10
1.711807133e-10
1.711806103e-10
1.711805346e-10
1.711804535e-10
1.711804012e-10
1.711802796e-10
1.711800749e-10
1.711798965e-10
1.711797235e-10
1.711797036e-10
1.711796793e-10
1.711796287e-10
1.71179555e-10
1.71179555e-10
1.71179555e-10
1.71179555e-10
1.71179555e-10
1.71179555e-10
1.71179555e-10
1.71179555e-10
1.71179555e-10
1.71179555e-10
1.71179555e-10
1.71179555e-10
1.71179555e-10
1.71179555e-10
1.71179555e-10
1.71179555e-10
1.71179555e-10
1.713475509e-10
1.718347776e-10
1.731129345e-10
1.763215051e-10
1.842185327e-10
2.035297747e-10
1.711814085e-10
1.711812661e-10
1.711811415e-10
1.711810727e-10
1.711809323e-10
1.711807695e-10
1.711806496e-10
1.711805599e-10
1.711805097e-10
1.711804365e-10
1.711803005e-10
1.711800883e-10
1.71179928e-10
1.71179728e-10
1.711797012e-10
1.711796686e-10
1.711796142e-10
1.71179555e-10
1.71179555e-10
1.71179555e-10
1.71179555e-10
1.71179555e-10
1.71179555e-10
1.71179555e-10
1.71179555e-10
1.71179555e-10
1.71179555e-10
1.71179555e-10
1.71179555e-10
1.71179555e-10
1.71179555e-10
1.71179555e-10
1.71179555e-10
1.711861071e-10
1.713727974e-10
1.719025638e-10
1.732812242e-10
1.767254167e-10
1.851751754e-10
2.057900696e-10
1.71181486e-10
1.711813448e-10
1.711812173e-10
1.711811225e-10
1.711809882e-10
1.71180846e-10
1.711807185e-10
1.711806096e-10
1.711805346e-10
1.711804621e-10
1.711803065e-10
1.711801179e-10
1.711799414e-10
1.711797371e-10
1.711797061e-10
1.711796633e-10
1.711795986e-10
1.71179555e-10
1.71179555e-10
1.71179555e-10
1.71179555e-10
1.71179555e-10
1.71179555e-10
1.71179555e-10
1.71179555e-10
1.71179555e-10
1.71179555e-10
1.71179555e-10
1.71179555e-10
1.71179555e-10
1.71179555e-10
1.71179555e-10
1.71179555e-10
1.71194828e-10
1.714004703e-10
1.719759474e-10
1.73462201e-10
1.771580584e-10
1.861970016e-10
2.081993726e-10
1.711815893e-10
1.711814471e-10
1.711813206e-10
1.7118114e-10
1.71180995e-10
1.711808675e-10
1.711807841e-10
1.711806827e-10
1.711805946e-10
1.711804849e-10
1.71180314e-10
1.711801077e-10
1.711799332e-10
1.711797383e-10
1.71179704e-10
1.711796531e-10
1.711795796e-10
1.71179555e-10
1.71179555e-10
1.71179555e-10
1.71179555e-10
1.71179555e-10
1.71179555e-10
1.71179555e-10
1.71179555e-10
1.71179555e-10
1.71179555e-10
1.71179555e-10
1.71179555e-10
1.71179555e-10
1.71179555e-10
1.71179555e-10
1.71179555e-10
1.712046766e-10
1.714307836e-10
1.720553286e-10
1.736567649e-10
1.776213301e-10
1.872881873e-10
2.10767027e-10
1.711817205e-10
1.711815676e-10
1.711813972e-10
1.711811904e-10
1.71181034e-10
1.711809057e-10
1.711808168e-10
1.711807095e-10
1.711806239e-10
1.711804977e-10
1.711803037e-10
1.711801054e-10
1.711798934e-10
1.711797283e-10
1.711796918e-10
1.71179638e-10
1.711795557e-10
1.71179555e-10
1.71179555e-10
1.71179555e-10
1.71179555e-10
1.71179555e-10
1.71179555e-10
1.71179555e-10
1.71179555e-10
1.71179555e-10
1.71179555e-10
1.71179555e-10
1.71179555e-10
1.71179555e-10
1.71179555e-10
1.71179555e-10
1.71179555e-10
1.712157503e-10
1.71463911e-10
1.721411173e-10
1.738658078e-10
1.781172238e-10
1.884532215e-10
2.135029716e-10
1.711818295e-10
1.711816493e-10
1.711814622e-10
1.711812568e-10
1.711810978e-10
1.711809666e-10
1.711808924e-10
1.711807664e-10
1.711806275e-10
1.711805212e-10
1.711803242e-10
1.711801338e-10
1.711798777e-10
1.711797242e-10
1.711796854e-10
1.711796223e-10
1.71179555e-10
1.71179555e-10
1.71179555e-10
1.71179555e-10
1.71179555e-10
1.71179555e-10
1.71179555e-10
1.71179555e-10
1.71179555e-10
1.71179555e-10
1.71179555e-10
1.71179555e-10
1.71179555e-10
1.71179555e-10
1.71179555e-10
1.71179555e-10
1.71179555e-10
1.712281109e-10
1.715000561e-10
1.722337913e-10
1.74090329e-10
1.786479158e-10
1.896968347e-10
2.164177662e-10
1.711819144e-10
1.711817238e-10
1.711815496e-10
1.711813442e-10
1.711811761e-10
1.711810487e-10
1.711809556e-10
1.711807772e-10
1.711806411e-10
1.711805334e-10
1.711803222e-10
1.711801415e-10
1.711798626e-10
1.711797094e-10
1.711796684e-10
1.711796025e-10
1.71179555e-10
1.71179555e-10
1.71179555e-10
1.71179555e-10
1.71179555e-10
1.71179555e-10
1.71179555e-10
1.71179555e-10
1.71179555e-10
1.71179555e-10
1.71179555e-10
1.71179555e-10
1.71179555e-10
1.71179555e-10
1.71179555e-10
1.71179555e-10
1.71179555e-10
1.712418815e-10
1.715394671e-10
1.723338368e-10
1.74331366e-10
1.792157188e-10
1.910240393e-10
2.195225734e-10
1.711819904e-10
1.711818102e-10
1.711816172e-10
1.71181459e-10
1.711812641e-10
1.711811396e-10
1.711810062e-10
1.711808115e-10
1.711806705e-10
1.711805565e-10
1.711803447e-10
1.71180145e-10
1.711798594e-10
1.711796993e-10
1.711796602e-10
1.711795832e-10
1.71179555e-10
1.71179555e-10
1.71179555e-10
1.71179555e-10
1.71179555e-10
1.71179555e-10
1.71179555e-10
1.71179555e-10
1.71179555e-10
1.71179555e-10
1.71179555e-10
1.71179555e-10
1.71179555e-10
1.71179555e-10
1.71179555e-10
1.71179555e-10
1.71179555e-10
1.712571426e-10
1.71582384e-10
1.724417388e-10
1.745900334e-10
1.798230095e-10
1.924401663e-10
2.228292611e-10
1.711821144e-10
1.711819333e-10
1.711817227e-10
1.711815444e-10
1.711813542e-10
1.711811868e-10
1.711810382e-10
1.711808568e-10
1.711807202e-10
1.711805975e-10
1.711803973e-10
1.71180135e-10
1.711798858e-10
1.711796945e-10
1.711796461e-10
1.711795559e-10
1.71179555e-10
1.71179555e-10
1.71179555e-10
1.71179555e-10
1.71179555e-10
1.71179555e-10
1.71179555e-10
1.71179555e-10
1.71179555e-10
1.71179555e-10
1.71179555e-10
1.71179555e-10
1.71179555e-10
1.71179555e-10
1.71179555e-10
1.71179555e-10
1.71179555e-10
1.712740341e-10
1.716290674e-10
1.725581108e-10
1.748675813e-10
1.804724046e-10
1.939508828e-10
2.263504451e-10
1.711822211e-10
1.711820354e-10
1.71181864e-10
1.711816796e-10
1.711814614e-10
1.711812517e-10
1.711810827e-10
1.711809213e-10
1.711808008e-10
1.711806356e-10
1.711804258e-10
1.711801353e-10
1.711798742e-10
1.711796801e-10
1.711796234e-10
1.71179555e-10
1.71179555e-10
1.71179555e-10
1.71179555e-10
1.71179555e-10
1.71179555e-10
1.71179555e-10
1.71179555e-10
1.71179555e-10
1.71179555e-10
1.71179555e-10
1.71179555e-10
1.71179555e-10
1.71179555e-10
1.71179555e-10
1.71179555e-10
1.71179555e-10
1.71179555e-10
1.712926969e-10
1.716797854e-10
1.726834914e-10
1.751652348e-10
1.811666708e-10
1.95562176e-10
2.300993769e-10
1.711823107e-10
1.711821441e-10
1.711819451e-10
1.711817883e-10
1.71181568e-10
1.711813354e-10
1.71181164e-10
1.711810058e-10
1.711808616e-10
1.711806557e-10
1.711804463e-10
1.71180141e-10
1.711798933e-10
1.711796714e-10
1.711796055e-10
1.71179555e-10
1.71179555e-10
1.71179555e-10
1.71179555e-10
1.71179555e-10
1.71179555e-10
1.71179555e-10
1.71179555e-10
1.71179555e-10
1.71179555e-10
1.71179555e-10
1.71179555e-10
1.71179555e-10
1.71179555e-10
1.71179555e-10
1.71179555e-10
1.71179555e-10
1.71179555e-10
1.71313273e-10
1.717348099e-10
1.728185532e-10
1.754843278e-10
1.819087061e-10
1.972804315e-10
2.340902007e-10
1.711824279e-10
1.711822516e-10
1.711820412e-10
1.711818756e-10
1.711816475e-10
1.711814287e-10
1.711812437e-10
1.71181047e-10
1.711808997e-10
1.711807018e-10
1.71180452e-10
1.711801624e-10
1.711798958e-10
1.711796694e-10
1.711795969e-10
1.71179555e-10
1.71179555e-10
1.71179555e-10
1.71179555e-10
1.71179555e-10
1.71179555e-10
1.71179555e-10
1.71179555e-10
1.71179555e-10
1.71179555e-10
1.71179555e-10
1.71179555e-10
1.71179555e-10
1.71179555e-10
1.71179555e-10
1.71179555e-10
1.71179555e-10
1.71179555e-10
1.713358972e-10
1.717944602e-10
1.729639337e-10
1.758263032e-10
1.827015538e-10
1.991123866e-10
2.383378771e-10
1.711825646e-10
1.711823803e-10
1.711821603e-10
1.711819475e-10
1.711816816e-10
1.711814548e-10
1.711812915e-10
1.711811057e-10
1.711809084e-10
1.71180729e-10
1.711804585e-10
1.711801384e-10
1.711798726e-10
1.711796598e-10
1.711795815e-10
1.71179555e-10
1.71179555e-10
1.71179555e-10
1.71179555e-10
1.71179555e-10
1.71179555e-10
1.71179555e-10
1.71179555e-10
1.71179555e-10
1.71179555e-10
1.71179555e-10
1.71179555e-10
1.71179555e-10
1.71179555e-10
1.71179555e-10
1.71179555e-10
1.71179555e-10
1.71179555e-10
1.71360754e-10
1.718591032e-10
1.731203806e-10
1.761927176e-10
1.835485232e-10
2.010652037e-10
2.428582735e-10
1.71182725e-10
1.711825e-10
1.711822461e-10
1.711819995e-10
1.711817274e-10
1.711814939e-10
1.711813089e-10
1.711811253e-10
1.711809485e-10
1.711807451e-10
1.711804399e-10
1.71180118e-10
1.711798255e-10
1.711796367e-10
1.711795554e-10
1.71179555e-10
1.71179555e-10
1.71179555e-10
1.71179555e-10
1.71179555e-10
1.71179555e-10
1.71179555e-10
1.71179555e-10
1.71179555e-10
1.71179555e-10
1.71179555e-10
1.71179555e-10
1.71179555e-10
1.71179555e-10
1.71179555e-10
1.71179555e-10
1.71179555e-10
1.711883728e-10
1.713880186e-10
1.719291054e-10
1.732886076e-10
1.765851564e-10
1.844531321e-10
2.031464994e-10
2.476681606e-10
1.711828622e-10
1.71182622e-10
1.711823736e-10
1.711821109e-10
1.711817903e-10
1.711815434e-10
1.711813644e-10
1.71181173e-10
1.711809579e-10
1.711807631e-10
1.711804503e-10
1.711801145e-10
1.711798044e-10
1.711796185e-10
1.71179555e-10
1.71179555e-10
1.71179555e-10
1.71179555e-10
1.71179555e-10
1.71179555e-10
1.71179555e-10
1.71179555e-10
1.71179555e-10
1.71179555e-10
1.71179555e-10
1.71179555e-10
1.71179555e-10
1.71179555e-10
1.71179555e-10
1.71179555e-10
1.71179555e-10
1.71179555e-10
1.711985225e-10
1.714178474e-10
1.72004834e-10
1.73469433e-10
1.770053448e-10
1.854190123e-10
2.053643132e-10
2.527853835e-10
1.711829443e-10
1.711827033e-10
1.711824547e-10
1.711821949e-10
1.71181858e-10
1.711815934e-10
1.711813897e-10
1.711811829e-10
1.711809881e-10
1.711807873e-10
1.711804853e-10
1.711801248e-10
1.71179757e-10
1.711795973e-10
1.71179555e-10
1.71179555e-10
1.71179555e-10
1.71179555e-10
1.71179555e-10
1.71179555e-10
1.71179555e-10
1.71179555e-10
1.71179555e-10
1.71179555e-10
1.71179555e-10
1.71179555e-10
1.71179555e-10
1.71179555e-10
1.71179555e-10
1.71179555e-10
1.71179555e-10
1.71179555e-10
1.712098875e-10
1.714504316e-10
1.720866706e-10
1.736637564e-10
1.774551154e-10
1.864501259e-10
2.077272017e-10
2.582287505e-10
1.711830266e-10
1.711827843e-10
1.711825022e-10
1.711822646e-10
1.711819261e-10
1.711816494e-10
1.711814406e-10
1.711812242e-10
1.711810452e-10
1.711808116e-10
1.71180504e-10
1.711800998e-10
1.711797317e-10
1.71179579e-10
1.71179555e-10
1.71179555e-10
1.71179555e-10
1.71179555e-10
1.71179555e-10
1.71179555e-10
1.71179555e-10
1.71179555e-10
1.71179555e-10
1.71179555e-10
1.71179555e-10
1.71179555e-10
1.71179555e-10
1.71179555e-10
1.71179555e-10
1.71179555e-10
1.71179555e-10
1.71179555e-10
1.712225553e-10
1.714859807e-10
1.721750884e-10