/*--------------------------------*- C++ -*----------------------------------*\
| =========                 |                                                 |
| \\      /  F ield         | OpenFOAM: The Open Source CFD Toolbox           |
|  \\    /   O peration     | Version:  v2006                                 |
|   \\  /    A nd           | Website:  www.openfoam.com                      |
|    \\/     M anipulation  |                                                 |
\*---------------------------------------------------------------------------*/
FoamFile
{
    version     2.0;
    format      ascii;
    class       volScalarField;
    location    "0.12";
    object      CO;
}
// * * * * * * * * * * * * * * * * * * * * * * * * * * * * * * * * * * * * * //

dimensions      [0 0 0 0 0 0 0];


internalField   nonuniform List<scalar> 
168000
(
8.201135368e-10
8.201130715e-10
8.201126465e-10
8.201122479e-10
8.201122334e-10
8.201122334e-10
8.201122472e-10
8.201122803e-10
8.201124129e-10
8.201126809e-10
8.20112297e-10
8.20112302e-10
8.201122591e-10
8.201122339e-10
8.201122813e-10
8.201124814e-10
8.201124093e-10
8.201122561e-10
8.20112362e-10
8.201123306e-10
8.201124214e-10
8.201122413e-10
8.201122364e-10
8.201122986e-10
8.201122334e-10
8.201122334e-10
8.201122334e-10
8.201122334e-10
8.201122334e-10
8.201122334e-10
8.201122334e-10
8.201122334e-10
8.201122334e-10
8.201122334e-10
8.201122334e-10
8.201122334e-10
8.202726866e-10
8.253956031e-10
8.363125178e-10
8.729017482e-10
8.201156889e-10
8.201145309e-10
8.201132914e-10
8.20112574e-10
8.201122914e-10
8.201122334e-10
8.201125786e-10
8.201129424e-10
8.201132596e-10
8.201133263e-10
8.201128199e-10
8.201127721e-10
8.201124697e-10
8.20112333e-10
8.201124396e-10
8.201126876e-10
8.201126157e-10
8.20112372e-10
8.201125136e-10
8.201126175e-10
8.201126444e-10
8.201123104e-10
8.20112789e-10
8.201122334e-10
8.201122334e-10
8.201122334e-10
8.201122334e-10
8.201122334e-10
8.201122334e-10
8.201122334e-10
8.201122334e-10
8.201122334e-10
8.201122334e-10
8.201122334e-10
8.201122334e-10
8.201122334e-10
8.205784623e-10
8.258573971e-10
8.381724913e-10
8.768443022e-10
8.201171148e-10
8.201155631e-10
8.201142407e-10
8.201132697e-10
8.201128494e-10
8.201126932e-10
8.201127273e-10
8.201128894e-10
8.201137868e-10
8.20113818e-10
8.20113014e-10
8.201129362e-10
8.201125067e-10
8.201123858e-10
8.20112561e-10
8.201127993e-10
8.201127109e-10
8.201125338e-10
8.201126103e-10
8.201126897e-10
8.20112634e-10
8.201124194e-10
8.201130725e-10
8.201122334e-10
8.201122334e-10
8.201122334e-10
8.201122334e-10
8.201122334e-10
8.201122334e-10
8.201122334e-10
8.201122334e-10
8.201122334e-10
8.201122334e-10
8.201122334e-10
8.201122334e-10
8.201122334e-10
8.208786581e-10
8.264058455e-10
8.401094668e-10
8.811456476e-10
8.201182997e-10
8.201169031e-10
8.201151972e-10
8.20114219e-10
8.201139289e-10
8.201135208e-10
8.201131795e-10
8.201131147e-10
8.201140234e-10
8.201143598e-10
8.201135695e-10
8.201128635e-10
8.201125861e-10
8.201124751e-10
8.201127617e-10
8.201129176e-10
8.201128821e-10
8.201127938e-10
8.201126458e-10
8.201128535e-10
8.201128066e-10
8.201126004e-10
8.201130656e-10
8.201122334e-10
8.201122334e-10
8.201122334e-10
8.201122334e-10
8.201122334e-10
8.201122334e-10
8.201122334e-10
8.201122334e-10
8.201122334e-10
8.201122334e-10
8.201122334e-10
8.201122334e-10
8.201122334e-10
8.211810642e-10
8.270357886e-10
8.421425967e-10
8.858176254e-10
8.201195485e-10
8.201181125e-10
8.201163498e-10
8.201155044e-10
8.201143545e-10
8.201137947e-10
8.20113702e-10
8.20113534e-10
8.201141088e-10
8.201147365e-10
8.201143414e-10
8.201133261e-10
8.201127094e-10
8.201126029e-10
8.201128491e-10
8.201129748e-10
8.201130617e-10
8.201130015e-10
8.201127233e-10
8.201129541e-10
8.201129127e-10
8.201126424e-10
8.20112698e-10
8.201122334e-10
8.201122334e-10
8.201122334e-10
8.201122334e-10
8.201122334e-10
8.201122334e-10
8.201122334e-10
8.201122334e-10
8.201122334e-10
8.201122334e-10
8.201122334e-10
8.201122334e-10
8.201122334e-10
8.21492195e-10
8.277457192e-10
8.442898817e-10
8.908763519e-10
8.201203398e-10
8.201190213e-10
8.201175628e-10
8.201161194e-10
8.201151115e-10
8.20114222e-10
8.201142512e-10
8.201142625e-10
8.201146738e-10
8.201150853e-10
8.201147461e-10
8.201132795e-10
8.20112928e-10
8.201127376e-10
8.201129768e-10
8.201130627e-10
8.201132491e-10
8.201131051e-10
8.201128569e-10
8.201130158e-10
8.201129132e-10
8.201126192e-10
8.201122334e-10
8.201122334e-10
8.201122334e-10
8.201122334e-10
8.201122334e-10
8.201122334e-10
8.201122334e-10
8.201122334e-10
8.201122334e-10
8.201122334e-10
8.201122334e-10
8.201122334e-10
8.201122334e-10
8.20138292e-10
8.218173625e-10
8.285352894e-10
8.465686264e-10
8.963400666e-10
8.201205066e-10
8.201195321e-10
8.20118002e-10
8.20117173e-10
8.201155906e-10
8.201147962e-10
8.201145744e-10
8.201142145e-10
8.201146153e-10
8.201152736e-10
8.201150784e-10
8.201134875e-10
8.201129936e-10
8.201128974e-10
8.201130602e-10
8.201132255e-10
8.201133976e-10
8.201131815e-10
8.201129778e-10
8.201129699e-10
8.201128259e-10
8.201125323e-10
8.201122334e-10
8.201122334e-10
8.201122334e-10
8.201122334e-10
8.201122334e-10
8.201122334e-10
8.201122334e-10
8.201122334e-10
8.201122334e-10
8.201122334e-10
8.201122334e-10
8.201122334e-10
8.201122334e-10
8.202002283e-10
8.221615667e-10
8.294053616e-10
8.489951936e-10
9.022292629e-10
8.201208726e-10
8.201198796e-10
8.201183855e-10
8.201178547e-10
8.201163069e-10
8.201156291e-10
8.201149567e-10
8.201143913e-10
8.201147945e-10
8.201154136e-10
8.201152965e-10
8.201140568e-10
8.201131515e-10
8.20113145e-10
8.201132516e-10
8.201132629e-10
8.201134904e-10
8.201133626e-10
8.201130809e-10
8.201130183e-10
8.201128061e-10
8.201123099e-10
8.201122334e-10
8.201122334e-10
8.201122334e-10
8.201122334e-10
8.201122334e-10
8.201122334e-10
8.201122334e-10
8.201122334e-10
8.201122334e-10
8.201122334e-10
8.201122334e-10
8.201122334e-10
8.201122334e-10
8.202775998e-10
8.225289453e-10
8.303571098e-10
8.515856199e-10
9.085674992e-10
8.201216914e-10
8.201203938e-10
8.201190094e-10
8.201183679e-10
8.201167647e-10
8.20115751e-10
8.201153075e-10
8.201145991e-10
8.201150111e-10
8.201158462e-10
8.20115378e-10
8.201140847e-10
8.201133799e-10
8.20113261e-10
8.201133443e-10
8.20113333e-10
8.201134844e-10
8.20113409e-10
8.201132659e-10
8.201131362e-10
8.20112741e-10
8.201122334e-10
8.201122334e-10
8.201122334e-10
8.201122334e-10
8.201122334e-10
8.201122334e-10
8.201122334e-10
8.201122334e-10
8.201122334e-10
8.201122334e-10
8.201122334e-10
8.201122334e-10
8.201122334e-10
8.201122334e-10
8.20371305e-10
8.229234188e-10
8.313943093e-10
8.543556377e-10
9.153804792e-10
8.20123044e-10
8.2012143e-10
8.201198437e-10
8.201186336e-10
8.201176192e-10
8.201162022e-10
8.201156215e-10
8.201149167e-10
8.201155939e-10
8.201162171e-10
8.201154008e-10
8.201144073e-10
8.201134741e-10
8.201133098e-10
8.201133414e-10
8.20113407e-10
8.201135185e-10
8.201134277e-10
8.201133142e-10
8.201132378e-10
8.20112746e-10
8.201122334e-10
8.201122334e-10
8.201122334e-10
8.201122334e-10
8.201122334e-10
8.201122334e-10
8.201122334e-10
8.201122334e-10
8.201122334e-10
8.201122334e-10
8.201122334e-10
8.201122334e-10
8.201122334e-10
8.201122334e-10
8.20480815e-10
8.233486612e-10
8.325216995e-10
8.573217037e-10
9.226962905e-10
8.20124297e-10
8.201226188e-10
8.201210672e-10
8.201194614e-10
8.201181393e-10
8.201167624e-10
8.20116175e-10
8.201153404e-10
8.201156296e-10
8.201165655e-10
8.201159957e-10
8.201153011e-10
8.201140279e-10
8.201134731e-10
8.201134415e-10
8.201134608e-10
8.201135412e-10
8.201134849e-10
8.201134736e-10
8.201133246e-10
8.201126424e-10
8.201122334e-10
8.201122334e-10
8.201122334e-10
8.201122334e-10
8.201122334e-10
8.201122334e-10
8.201122334e-10
8.201122334e-10
8.201122334e-10
8.201122334e-10
8.201122334e-10
8.201122334e-10
8.201122334e-10
8.201122334e-10
8.206073688e-10
8.238085711e-10
8.337436138e-10
8.60499949e-10
9.305461874e-10
8.201249349e-10
8.201233935e-10
8.201214568e-10
8.201206857e-10
8.201193393e-10
8.201174775e-10
8.201169038e-10
8.20115901e-10
8.201159652e-10
8.201169495e-10
8.201166465e-10
8.201158836e-10
8.201141616e-10
8.201135885e-10
8.201136754e-10
8.201135737e-10
8.201136615e-10
8.201136339e-10
8.20113519e-10
8.201133685e-10
8.201126468e-10
8.201122334e-10
8.201122334e-10
8.201122334e-10
8.201122334e-10
8.201122334e-10
8.201122334e-10
8.201122334e-10
8.201122334e-10
8.201122334e-10
8.201122334e-10
8.201122334e-10
8.201122334e-10
8.201122334e-10
8.201122334e-10
8.207519159e-10
8.243065762e-10
8.350664653e-10
8.639071346e-10
9.389628012e-10
8.20125392e-10
8.201236252e-10
8.20121969e-10
8.201214604e-10
8.20120102e-10
8.201181461e-10
8.201176247e-10
8.201164535e-10
8.201165627e-10
8.201172745e-10
8.201172312e-10
8.201162373e-10
8.201147848e-10
8.201137696e-10
8.201138307e-10
8.201137217e-10
8.201136872e-10
8.201136655e-10
8.20113555e-10
8.201133646e-10
8.201125457e-10
8.201122334e-10
8.201122334e-10
8.201122334e-10
8.201122334e-10
8.201122334e-10
8.201122334e-10
8.201122334e-10
8.201122334e-10
8.201122334e-10
8.201122334e-10
8.201122334e-10
8.201122334e-10
8.201122334e-10
8.201122334e-10
8.209154851e-10
8.248465678e-10
8.364962543e-10
8.675609785e-10
9.479819661e-10
8.201256634e-10
8.20124168e-10
8.201224311e-10
8.201219721e-10
8.201206224e-10
8.20118747e-10
8.201179986e-10
8.201170643e-10
8.201170645e-10
8.20117899e-10
8.201176066e-10
8.201162195e-10
8.201151933e-10
8.201140147e-10
8.20113851e-10
8.201138159e-10
8.201138357e-10
8.201137548e-10
8.20113625e-10
8.201132565e-10
8.201123158e-10
8.201122334e-10
8.201122334e-10
8.201122334e-10
8.201122334e-10
8.201122334e-10
8.201122334e-10
8.201122334e-10
8.201122334e-10
8.201122334e-10
8.201122334e-10
8.201122334e-10
8.201122334e-10
8.201122334e-10
8.201122334e-10
8.210990766e-10
8.254318576e-10
8.380402127e-10
8.71479858e-10
9.576420164e-10
8.201261718e-10
8.20124383e-10
8.201227437e-10
8.201221558e-10
8.201207302e-10
8.201194603e-10
8.201189191e-10
8.201179033e-10
8.201176972e-10
8.201183773e-10
8.201177968e-10
8.201163812e-10
8.201153446e-10
8.201140902e-10
8.201139294e-10
8.201138929e-10
8.201138988e-10
8.20113704e-10
8.201135397e-10
8.201129946e-10
8.201122334e-10
8.201122334e-10
8.201122334e-10
8.201122334e-10
8.201122334e-10
8.201122334e-10
8.201122334e-10
8.201122334e-10
8.201122334e-10
8.201122334e-10
8.201122334e-10
8.201122334e-10
8.201122334e-10
8.201122334e-10
8.201122334e-10
8.21303973e-10
8.26066511e-10
8.397059061e-10
8.756831793e-10
9.679842068e-10
8.20126639e-10
8.201248593e-10
8.201231126e-10
8.201220214e-10
8.201213747e-10
8.201203026e-10
8.201195396e-10
8.201190737e-10
8.201185758e-10
8.201188699e-10
8.201176507e-10
8.201166661e-10
8.201151476e-10
8.201142846e-10
8.201141519e-10
8.201140093e-10
8.201139975e-10
8.201136823e-10
8.201135283e-10
8.201127114e-10
8.201122334e-10
8.201122334e-10
8.201122334e-10
8.201122334e-10
8.201122334e-10
8.201122334e-10
8.201122334e-10
8.201122334e-10
8.201122334e-10
8.201122334e-10
8.201122334e-10
8.201122334e-10
8.201122334e-10
8.201122334e-10
8.201122334e-10
8.215320801e-10
8.267545642e-10
8.415020736e-10
8.801907472e-10
9.790520166e-10
8.201270745e-10
8.201253901e-10
8.201237696e-10
8.201223262e-10
8.201214961e-10
8.201203882e-10
8.201199222e-10
8.201195528e-10
8.20119742e-10
8.201194051e-10
8.201178622e-10
8.20116909e-10
8.201153109e-10
8.201143107e-10
8.201142066e-10
8.201141662e-10
8.201140019e-10
8.201136961e-10
8.201134548e-10
8.201124574e-10
8.201122334e-10
8.201122334e-10
8.201122334e-10
8.201122334e-10
8.201122334e-10
8.201122334e-10
8.201122334e-10
8.201122334e-10
8.201122334e-10
8.201122334e-10
8.201122334e-10
8.201122334e-10
8.201122334e-10
8.201122334e-10
8.201122334e-10
8.217849559e-10
8.275006696e-10
8.434372664e-10
8.850241855e-10
9.90892273e-10
8.201274988e-10
8.201261057e-10
8.201248422e-10
8.201227546e-10
8.2012149e-10
8.201206038e-10
8.201206652e-10
8.201204788e-10
8.201205321e-10
8.201199995e-10
8.201184734e-10
8.201169115e-10
8.201158549e-10
8.201144425e-10
8.201143285e-10
8.201141988e-10
8.201141021e-10
8.201137873e-10
8.201134302e-10
8.201122334e-10
8.201122334e-10
8.201122334e-10
8.201122334e-10
8.201122334e-10
8.201122334e-10
8.201122334e-10
8.201122334e-10
8.201122334e-10
8.201122334e-10
8.201122334e-10
8.201122334e-10
8.201122334e-10
8.201122334e-10
8.201122334e-10
8.201122334e-10
8.220645715e-10
8.28308994e-10
8.455216078e-10
8.902058933e-10
1.003555137e-09
8.201284996e-10
8.201270144e-10
8.201256034e-10
8.201234422e-10
8.201219329e-10
8.201210594e-10
8.201208395e-10
8.201207052e-10
8.20120984e-10
8.201203134e-10
8.201185233e-10
8.201170604e-10
8.201162325e-10
8.201145021e-10
8.201143517e-10
8.201142476e-10
8.201141766e-10
8.201137429e-10
8.201132985e-10
8.201122334e-10
8.201122334e-10
8.201122334e-10
8.201122334e-10
8.201122334e-10
8.201122334e-10
8.201122334e-10
8.201122334e-10
8.201122334e-10
8.201122334e-10
8.201122334e-10
8.201122334e-10
8.201122334e-10
8.201122334e-10
8.201122334e-10
8.201454661e-10
8.223726661e-10
8.291845011e-10
8.477655183e-10
8.957599436e-10
1.017093261e-09
8.201294163e-10
8.20128061e-10
8.20126445e-10
8.20124283e-10
8.201226684e-10
8.20121727e-10
8.201216479e-10
8.201213868e-10
8.201212147e-10
8.201207613e-10
8.201189457e-10
8.201174389e-10
8.201165746e-10
8.201146753e-10
8.201144602e-10
8.201143842e-10
8.20114252e-10
8.201137789e-10
8.201130977e-10
8.201122334e-10
8.201122334e-10
8.201122334e-10
8.201122334e-10
8.201122334e-10
8.201122334e-10
8.201122334e-10
8.201122334e-10
8.201122334e-10
8.201122334e-10
8.201122334e-10
8.201122334e-10
8.201122334e-10
8.201122334e-10
8.201122334e-10
8.202380336e-10
8.227114643e-10
8.301323941e-10
8.501800635e-10
9.017115689e-10
1.031563532e-09
8.201303229e-10
8.201288108e-10
8.201268815e-10
8.201255725e-10
8.201235725e-10
8.20122756e-10
8.201218805e-10
8.20121252e-10
8.201210605e-10
8.201211324e-10
8.201197597e-10
8.201179562e-10
8.201167492e-10
8.201148292e-10
8.201145732e-10
8.201144385e-10
8.201142506e-10
8.201136734e-10
8.201128219e-10
8.201122334e-10
8.201122334e-10
8.201122334e-10
8.201122334e-10
8.201122334e-10
8.201122334e-10
8.201122334e-10
8.201122334e-10
8.201122334e-10
8.201122334e-10
8.201122334e-10
8.201122334e-10
8.201122334e-10
8.201122334e-10
8.201122334e-10
8.203446232e-10
8.230831039e-10
8.311576296e-10
8.52777019e-10
9.080875888e-10
1.047025783e-09
8.201311631e-10
8.201293468e-10
8.201275284e-10
8.201265127e-10
8.201244509e-10
8.201230842e-10
8.201222659e-10
8.201214104e-10
8.201213162e-10
8.20121392e-10
8.201202277e-10
8.2011791e-10
8.201166822e-10
8.201148277e-10
8.201146595e-10
8.201143981e-10
8.201141105e-10
8.201135333e-10
8.201126177e-10
8.201122334e-10
8.201122334e-10
8.201122334e-10
8.201122334e-10
8.201122334e-10
8.201122334e-10
8.201122334e-10
8.201122334e-10
8.201122334e-10
8.201122334e-10
8.201122334e-10
8.201122334e-10
8.201122334e-10
8.201122334e-10
8.201122334e-10
8.204662639e-10
8.234903241e-10
8.322664034e-10
8.555691749e-10
9.149166199e-10
1.063544358e-09
8.201314514e-10
8.201299352e-10
8.201284051e-10
8.201273105e-10
8.201256429e-10
8.201237075e-10
8.201227868e-10
8.201218439e-10
8.201220156e-10
8.201216674e-10
8.201204405e-10
8.201179646e-10
8.201163134e-10
8.201147843e-10
8.201146427e-10
8.201143685e-10
8.201140818e-10
8.201133823e-10
8.201123671e-10
8.201122334e-10
8.201122334e-10
8.201122334e-10
8.201122334e-10
8.201122334e-10
8.201122334e-10
8.201122334e-10
8.201122334e-10
8.201122334e-10
8.201122334e-10
8.201122334e-10
8.201122334e-10
8.201122334e-10
8.201122334e-10
8.201122334e-10
8.206041296e-10
8.239360091e-10
8.334647156e-10
8.585695607e-10
9.222290905e-10
1.081187048e-09
8.201319789e-10
8.201301009e-10
8.201287151e-10
8.20127685e-10
8.201262459e-10
8.201243877e-10
8.201232242e-10
8.201224026e-10
8.201222172e-10
8.201217172e-10
8.201204632e-10
8.201181149e-10
8.201164195e-10
8.201147986e-10
8.201147266e-10
8.201144074e-10
8.201140651e-10
8.201132057e-10
8.201122334e-10
8.201122334e-10
8.201122334e-10
8.201122334e-10
8.201122334e-10
8.201122334e-10
8.201122334e-10
8.201122334e-10
8.201122334e-10
8.201122334e-10
8.201122334e-10
8.201122334e-10
8.201122334e-10
8.201122334e-10
8.201122334e-10
8.201122334e-10
8.207591914e-10
8.244229559e-10
8.347587693e-10
8.617927345e-10
9.300569289e-10
1.100025709e-09
8.201321512e-10
8.201304277e-10
8.201289951e-10
8.201274079e-10
8.20126527e-10
8.201251644e-10
8.201240682e-10
8.201234104e-10
8.201230543e-10
8.201218862e-10
8.201202861e-10
8.201184653e-10
8.201163706e-10
8.201148228e-10
8.201147957e-10
8.201145081e-10
8.201140009e-10
8.201130558e-10
8.201122334e-10
8.201122334e-10
8.201122334e-10
8.201122334e-10
8.201122334e-10
8.201122334e-10
8.201122334e-10
8.201122334e-10
8.201122334e-10
8.201122334e-10
8.201122334e-10
8.201122334e-10
8.201122334e-10
8.201122334e-10
8.201122334e-10
8.201122334e-10
8.209329928e-10
8.249541357e-10
8.361557459e-10
8.652545447e-10
9.384344765e-10
1.120137286e-09
8.201325382e-10
8.201306765e-10
8.201289067e-10
8.201274041e-10
8.20126261e-10
8.201251153e-10
8.201242676e-10
8.201235875e-10
8.201236638e-10
8.201225508e-10
8.201204323e-10
8.201185979e-10
8.201167912e-10
8.201148401e-10
8.201147093e-10
8.201145386e-10
8.201138894e-10
8.201128555e-10
8.201122334e-10
8.201122334e-10
8.201122334e-10
8.201122334e-10
8.201122334e-10
8.201122334e-10
8.201122334e-10
8.201122334e-10
8.201122334e-10
8.201122334e-10
8.201122334e-10
8.201122334e-10
8.201122334e-10
8.201122334e-10
8.201122334e-10
8.201122334e-10
8.211270701e-10
8.255331427e-10
8.376629063e-10
8.689703757e-10
9.473976836e-10
1.141603063e-09
8.201328606e-10
8.201310766e-10
8.201292879e-10
8.201278204e-10
8.201266012e-10
8.201254863e-10
8.201248111e-10
8.201239134e-10
8.20124128e-10
8.201229927e-10
8.201209606e-10
8.20119302e-10
8.201171407e-10
8.201148805e-10
8.201146891e-10
8.201144676e-10
8.201137819e-10
8.201127001e-10
8.201122334e-10
8.201122334e-10
8.201122334e-10
8.201122334e-10
8.201122334e-10
8.201122334e-10
8.201122334e-10
8.201122334e-10
8.201122334e-10
8.201122334e-10
8.201122334e-10
8.201122334e-10
8.201122334e-10
8.201122334e-10
8.201122334e-10
8.201122334e-10
8.213431986e-10
8.261634119e-10
8.392880769e-10
8.729576626e-10
9.569853191e-10
1.164509484e-09
8.201337471e-10
8.201319462e-10
8.201301968e-10
8.201288254e-10
8.201276263e-10
8.201263143e-10
8.201253574e-10
8.201243817e-10
8.201245212e-10
8.201233727e-10
8.201211808e-10
8.201195861e-10
8.201171954e-10
8.201148978e-10
8.201146842e-10
8.201145031e-10
8.201136882e-10
8.201124317e-10
8.201122334e-10
8.201122334e-10
8.201122334e-10
8.201122334e-10
8.201122334e-10
8.201122334e-10
8.201122334e-10
8.201122334e-10
8.201122334e-10
8.201122334e-10
8.201122334e-10
8.201122334e-10
8.201122334e-10
8.201122334e-10
8.201122334e-10
8.201122334e-10
8.215828495e-10
8.268483564e-10
8.410396926e-10
8.77235435e-10
9.672381449e-10
1.188948675e-09
8.201345447e-10
8.201329986e-10
8.201315322e-10
8.201304925e-10
8.201286788e-10
8.201274207e-10
8.201263652e-10
8.201249319e-10
8.201248178e-10
8.201237793e-10
8.201216453e-10
8.201195118e-10
8.201168789e-10
8.201149294e-10
8.201147379e-10
8.201144967e-10
8.201136872e-10
8.201123108e-10
8.201122334e-10
8.201122334e-10
8.201122334e-10
8.201122334e-10
8.201122334e-10
8.201122334e-10
8.201122334e-10
8.201122334e-10
8.201122334e-10
8.201122334e-10
8.201122334e-10
8.201122334e-10
8.201122334e-10
8.201122334e-10
8.201122334e-10
8.201122334e-10
8.218476966e-10
8.27591998e-10
8.429267683e-10
8.818228817e-10
9.781998506e-10
1.215017653e-09
8.201355699e-10
8.201340039e-10
8.201328674e-10
8.201318285e-10
8.201301622e-10
8.201280173e-10
8.201267814e-10
8.20125441e-10
8.20124788e-10
8.20123952e-10
8.20122341e-10
8.201199377e-10
8.201169293e-10
8.201149165e-10
8.201146659e-10
8.201144252e-10
8.201135935e-10
8.201122334e-10
8.201122334e-10
8.201122334e-10
8.201122334e-10
8.201122334e-10
8.201122334e-10
8.201122334e-10
8.201122334e-10
8.201122334e-10
8.201122334e-10
8.201122334e-10
8.201122334e-10
8.201122334e-10
8.201122334e-10
8.201122334e-10
8.201122334e-10
8.201122334e-10
8.221400009e-10
8.283991918e-10
8.44959246e-10
8.867411627e-10
9.899162851e-10
1.242820709e-09
8.201369429e-10
8.201351394e-10
8.201336327e-10
8.201328715e-10
8.201310782e-10
8.201286625e-10
8.201272719e-10
8.2012628e-10
8.201252002e-10
8.201245297e-10
8.201228476e-10
8.201199484e-10
8.201174305e-10
8.201149417e-10
8.201146215e-10
8.201142318e-10
8.201134173e-10
8.201122334e-10
8.201122334e-10
8.201122334e-10
8.201122334e-10
8.201122334e-10
8.201122334e-10
8.201122334e-10
8.201122334e-10
8.201122334e-10
8.201122334e-10
8.201122334e-10
8.201122334e-10
8.201122334e-10
8.201122334e-10
8.201122334e-10
8.201122334e-10
8.201122334e-10
8.224613277e-10
8.292742424e-10
8.471467711e-10
8.920123655e-10
1.002436877e-09
1.272466891e-09
8.201381727e-10
8.201362141e-10
8.201345209e-10
8.201336361e-10
8.201317004e-10
8.20129451e-10
8.201278223e-10
8.20126629e-10
8.201260019e-10
8.20125027e-10
8.201231468e-10
8.201201432e-10
8.201178844e-10
8.201150142e-10
8.20114584e-10
8.201140601e-10
8.201131855e-10
8.201122334e-10
8.201122334e-10
8.201122334e-10
8.201122334e-10
8.201122334e-10
8.201122334e-10
8.201122334e-10
8.201122334e-10
8.201122334e-10
8.201122334e-10
8.201122334e-10
8.201122334e-10
8.201122334e-10
8.201122334e-10
8.201122334e-10
8.201122334e-10
8.202038516e-10
8.228143509e-10
8.302220992e-10
8.494999742e-10
8.976602804e-10
1.015813657e-09
1.304072702e-09
8.201392513e-10
8.201373113e-10
8.201355859e-10
8.201343264e-10
8.201324876e-10
8.201305388e-10
8.201287942e-10
8.2012733e-10
8.201263491e-10
8.201253969e-10
8.201232343e-10
8.201205722e-10
8.201180793e-10
8.201151612e-10
8.20114663e-10
8.201139743e-10
8.201129344e-10
8.201122334e-10
8.201122334e-10
8.201122334e-10
8.201122334e-10
8.201122334e-10
8.201122334e-10
8.201122334e-10
8.201122334e-10
8.201122334e-10
8.201122334e-10
8.201122334e-10
8.201122334e-10
8.201122334e-10
8.201122334e-10
8.201122334e-10
8.201122334e-10
8.203257966e-10
8.232013025e-10
8.31248226e-10
8.520305802e-10
9.037099299e-10
1.030101901e-09
1.337762099e-09
8.201406991e-10
8.201387537e-10
8.201370438e-10
8.201345439e-10
8.201325559e-10
8.201308244e-10
8.201297295e-10
8.201283731e-10
8.201272078e-10
8.201257187e-10
8.201233384e-10
8.201204193e-10
8.20117962e-10
8.201151804e-10
8.201146279e-10
8.2011381e-10
8.20112628e-10
8.201122334e-10
8.201122334e-10
8.201122334e-10
8.201122334e-10
8.201122334e-10
8.201122334e-10
8.201122334e-10
8.201122334e-10
8.201122334e-10
8.201122334e-10
8.201122334e-10
8.201122334e-10
8.201122334e-10
8.201122334e-10
8.201122334e-10
8.201122334e-10
8.204635102e-10
8.236251753e-10
8.323582172e-10
8.547511764e-10
9.101878799e-10
1.045360003e-09
1.373665733e-09
8.201425421e-10
8.201404548e-10
8.201381171e-10
8.201352356e-10
8.201330881e-10
8.201313502e-10
8.20130179e-10
8.201287416e-10
8.201276179e-10
8.201259002e-10
8.201231751e-10
8.201203779e-10
8.201173802e-10
8.201150186e-10
8.201144321e-10
8.201135668e-10
8.201122443e-10
8.201122334e-10
8.201122334e-10
8.201122334e-10
8.201122334e-10
8.201122334e-10
8.201122334e-10
8.201122334e-10
8.201122334e-10
8.201122334e-10
8.201122334e-10
8.201122334e-10
8.201122334e-10
8.201122334e-10
8.201122334e-10
8.201122334e-10
8.201122334e-10
8.206183546e-10
8.240883969e-10
8.335578048e-10
8.576742342e-10
9.17121986e-10
1.061650732e-09
1.411922577e-09
8.20144068e-10
8.201415947e-10
8.201390166e-10
8.2013616e-10
8.201339771e-10
8.201322025e-10
8.201312508e-10
8.201295442e-10
8.201276498e-10
8.20126223e-10
8.201234627e-10
8.201207836e-10
8.201171431e-10
8.201149525e-10
8.20114329e-10
8.201133157e-10
8.201122334e-10
8.201122334e-10
8.201122334e-10
8.201122334e-10
8.201122334e-10
8.201122334e-10
8.201122334e-10
8.201122334e-10
8.201122334e-10
8.201122334e-10
8.201122334e-10
8.201122334e-10
8.201122334e-10
8.201122334e-10
8.201122334e-10
8.201122334e-10
8.201122334e-10
8.207911922e-10
8.245938152e-10
8.348536702e-10
8.608137248e-10
9.245426767e-10
1.079040234e-09
1.452680287e-09
8.201452515e-10
8.201426245e-10
8.201402279e-10
8.201373852e-10
8.201350785e-10
8.2013336e-10
8.201321408e-10
8.201296798e-10
8.201278262e-10
8.201263821e-10
8.201234208e-10
8.201208879e-10
8.201169175e-10
8.201147157e-10
8.201140562e-10
8.20112997e-10
8.201122334e-10
8.201122334e-10
8.201122334e-10
8.201122334e-10
8.201122334e-10
8.201122334e-10
8.201122334e-10
8.201122334e-10
8.201122334e-10
8.201122334e-10
8.201122334e-10
8.201122334e-10
8.201122334e-10
8.201122334e-10
8.201122334e-10
8.201122334e-10
8.201122334e-10
8.209837477e-10
8.251449013e-10
8.362526106e-10
8.64184156e-10
9.324822932e-10
1.097598599e-09
1.496094955e-09
8.201463104e-10
8.201438306e-10
8.201411706e-10
8.201390148e-10
8.201363218e-10
8.201346506e-10
8.201328481e-10
8.201301527e-10
8.201282313e-10
8.201267048e-10
8.201237325e-10
8.201209279e-10
8.201168613e-10
8.20114553e-10
8.20113925e-10
8.201126868e-10
8.201122334e-10
8.201122334e-10
8.201122334e-10
8.201122334e-10
8.201122334e-10
8.201122334e-10
8.201122334e-10
8.201122334e-10
8.201122334e-10
8.201122334e-10
8.201122334e-10
8.201122334e-10
8.201122334e-10
8.201122334e-10
8.201122334e-10
8.201122334e-10
8.201122334e-10
8.211971443e-10
8.257450103e-10
8.377614087e-10
8.678011149e-10
9.409740683e-10
1.117400371e-09
1.542332525e-09
8.2014805e-10
8.201455681e-10
8.201426608e-10
8.201402153e-10
8.201375967e-10
8.20135306e-10
8.201332857e-10
8.201307861e-10
8.201289327e-10
8.201272782e-10
8.201244807e-10
8.201207661e-10
8.201172304e-10
8.201144765e-10
8.201136976e-10
8.201122472e-10
8.201122334e-10
8.201122334e-10
8.201122334e-10
8.201122334e-10
8.201122334e-10
8.201122334e-10
8.201122334e-10
8.201122334e-10
8.201122334e-10
8.201122334e-10
8.201122334e-10
8.201122334e-10
8.201122334e-10
8.201122334e-10
8.201122334e-10
8.201122334e-10
8.201122334e-10
8.214333385e-10
8.263977873e-10
8.393886446e-10
8.716820804e-10
9.500545898e-10
1.138524791e-09
1.591569408e-09
8.201495457e-10
8.201470064e-10
8.201446656e-10
8.201421413e-10
8.201391182e-10
8.201362201e-10
8.20133909e-10
8.201317018e-10
8.201300852e-10
8.201278121e-10
8.201248833e-10
8.201207583e-10
8.201170517e-10
8.201142446e-10
8.20113333e-10
8.201122334e-10
8.201122334e-10
8.201122334e-10
8.201122334e-10
8.201122334e-10
8.201122334e-10
8.201122334e-10
8.201122334e-10
8.201122334e-10
8.201122334e-10
8.201122334e-10
8.201122334e-10
8.201122334e-10
8.201122334e-10
8.201122334e-10
8.201122334e-10
8.201122334e-10
8.201122334e-10
8.216943015e-10
8.271069787e-10
8.411418473e-10
8.758441833e-10
9.597625471e-10
1.16105558e-09
1.6439909e-09
8.201507922e-10
8.201485309e-10
8.201457981e-10
8.201436816e-10
8.201406411e-10
8.201374106e-10
8.201350682e-10
8.201329133e-10
8.20130952e-10
8.201280944e-10
8.201251699e-10
8.201208328e-10
8.201173206e-10
8.20114104e-10
8.201130454e-10
8.201122334e-10
8.201122334e-10
8.201122334e-10
8.201122334e-10
8.201122334e-10
8.201122334e-10
8.201122334e-10
8.201122334e-10
8.201122334e-10
8.201122334e-10
8.201122334e-10
8.201122334e-10
8.201122334e-10
8.201122334e-10
8.201122334e-10
8.201122334e-10
8.201122334e-10
8.201122334e-10
8.219820187e-10
8.278763891e-10
8.43030423e-10
8.803060761e-10
9.70138463e-10
1.185082029e-09
1.699794779e-09
8.201524358e-10
8.201500383e-10
8.201471457e-10
8.201449084e-10
8.201417609e-10
8.20138737e-10
8.201361999e-10
8.201334899e-10
8.201314896e-10
8.201287493e-10
8.201252457e-10
8.201211319e-10
8.201173492e-10
8.20114073e-10
8.201129068e-10
8.201122334e-10
8.201122334e-10
8.201122334e-10
8.201122334e-10
8.201122334e-10
8.201122334e-10
8.201122334e-10
8.201122334e-10
8.201122334e-10
8.201122334e-10
8.201122334e-10
8.201122334e-10
8.201122334e-10
8.201122334e-10
8.201122334e-10
8.201122334e-10
8.201122334e-10
8.201122334e-10
8.222983744e-10
8.287104821e-10
8.450632848e-10
8.850879334e-10
9.812248891e-10
1.210698343e-09
1.759190239e-09
8.201543505e-10
8.201518461e-10
8.2014882e-10
8.201459107e-10
8.20142218e-10
8.20139086e-10
8.201368709e-10
8.201343226e-10
8.201316009e-10
8.201291284e-10
8.201253255e-10
8.201207772e-10
8.201170072e-10
8.201139176e-10
8.201126591e-10
8.201122334e-10
8.201122334e-10
8.201122334e-10
8.201122334e-10
8.201122334e-10
8.201122334e-10
8.201122334e-10
8.201122334e-10
8.201122334e-10
8.201122334e-10
8.201122334e-10
8.201122334e-10
8.201122334e-10
8.201122334e-10
8.201122334e-10
8.201122334e-10
8.201122334e-10
8.201122334e-10
8.226459482e-10
8.296143885e-10
8.472508896e-10
8.902115238e-10
9.930681021e-10
1.238004677e-09
1.822399157e-09
8.201566026e-10
8.201535287e-10
8.201500236e-10
8.201466229e-10
8.201428456e-10
8.201396248e-10
8.20137097e-10
8.201345856e-10
8.201321646e-10
8.201293505e-10
8.201250421e-10
8.201204726e-10
8.201163102e-10
8.201135466e-10
8.201122398e-10
8.201122334e-10
8.201122334e-10
8.201122334e-10
8.201122334e-10
8.201122334e-10
8.201122334e-10
8.201122334e-10
8.201122334e-10
8.201122334e-10
8.201122334e-10
8.201122334e-10
8.201122334e-10
8.201122334e-10
8.201122334e-10
8.201122334e-10
8.201122334e-10
8.201122334e-10
8.202355335e-10
8.230271895e-10
8.305932316e-10
8.496032159e-10
8.956990145e-10
1.005717292e-09
1.267107534e-09
1.889656036e-09
8.20158524e-10
8.201552447e-10
8.201518315e-10
8.201482017e-10
8.201437257e-10
8.201403104e-10
8.201378723e-10
8.201352555e-10
8.201322834e-10
8.201295966e-10
8.201251886e-10
8.201204112e-10
8.201159945e-10
8.201132546e-10
8.201122334e-10
8.201122334e-10
8.201122334e-10
8.201122334e-10
8.201122334e-10
8.201122334e-10
8.201122334e-10
8.201122334e-10
8.201122334e-10
8.201122334e-10
8.201122334e-10
8.201122334e-10
8.201122334e-10
8.201122334e-10
8.201122334e-10
8.201122334e-10
8.201122334e-10
8.201122334e-10
8.203774573e-10
8.234442868e-10
8.31652149e-10
8.521317059e-10
9.015745293e-10
1.019223241e-09
1.29811933e-09
1.961210406e-09
8.2015967e-10
8.201563825e-10
8.201529738e-10
8.201493885e-10
8.201446773e-10
8.201410093e-10
8.201382215e-10
8.201353807e-10
8.201327063e-10
8.201299336e-10
8.201256802e-10
8.201205494e-10
8.201152949e-10
8.201129132e-10
8.201122334e-10
8.201122334e-10
8.201122334e-10
8.201122334e-10
8.201122334e-10
8.201122334e-10
8.201122334e-10
8.201122334e-10
8.201122334e-10
8.201122334e-10
8.201122334e-10
8.201122334e-10
8.201122334e-10
8.201122334e-10
8.201122334e-10