/*--------------------------------*- C++ -*----------------------------------*\
| =========                 |                                                 |
| \\      /  F ield         | OpenFOAM: The Open Source CFD Toolbox           |
|  \\    /   O peration     | Version:  v2006                                 |
|   \\  /    A nd           | Website:  www.openfoam.com                      |
|    \\/     M anipulation  |                                                 |
\*---------------------------------------------------------------------------*/
FoamFile
{
    version     2.0;
    format      ascii;
    class       volScalarField;
    location    "0.12";
    object      CO2;
}
// * * * * * * * * * * * * * * * * * * * * * * * * * * * * * * * * * * * * * //

dimensions      [0 0 0 0 0 0 0];


internalField   nonuniform List<scalar> 
168000
(
1.620586346e-11
1.620580352e-11
1.620571535e-11
1.620565427e-11
1.620565205e-11
1.620565205e-11
1.620566194e-11
1.62056856e-11
1.620572758e-11
1.620581749e-11
1.62056976e-11
1.620570113e-11
1.620567041e-11
1.62056524e-11
1.62056863e-11
1.620576027e-11
1.620573312e-11
1.620566829e-11
1.620574003e-11
1.620572161e-11
1.620570917e-11
1.62056577e-11
1.620565417e-11
1.620567425e-11
1.620565205e-11
1.620565205e-11
1.620565205e-11
1.620565205e-11
1.620565205e-11
1.620565205e-11
1.620565205e-11
1.620565205e-11
1.620565205e-11
1.620565205e-11
1.620565205e-11
1.620565205e-11
1.623024285e-11
1.701537262e-11
1.868848106e-11
2.429608645e-11
1.620622992e-11
1.620604108e-11
1.62058142e-11
1.620570425e-11
1.620566093e-11
1.620565205e-11
1.620580542e-11
1.620592722e-11
1.620603606e-11
1.620607152e-11
1.620592509e-11
1.620591943e-11
1.620582119e-11
1.620572338e-11
1.620579965e-11
1.620589566e-11
1.620588491e-11
1.620575128e-11
1.620585262e-11
1.620588214e-11
1.620585657e-11
1.620570714e-11
1.620584181e-11
1.620565205e-11
1.620565205e-11
1.620565205e-11
1.620565205e-11
1.620565205e-11
1.620565205e-11
1.620565205e-11
1.620565205e-11
1.620565205e-11
1.620565205e-11
1.620565205e-11
1.620565205e-11
1.620565205e-11
1.627710553e-11
1.708614641e-11
1.897353754e-11
2.49003158e-11
1.620644346e-11
1.620618068e-11
1.620595968e-11
1.620581087e-11
1.620574645e-11
1.620574471e-11
1.620583848e-11
1.620593407e-11
1.620625033e-11
1.620627676e-11
1.620603143e-11
1.620603283e-11
1.620584768e-11
1.620576116e-11
1.620588652e-11
1.620603266e-11
1.620599387e-11
1.62058671e-11
1.620592183e-11
1.620597868e-11
1.620593878e-11
1.620578517e-11
1.620595105e-11
1.620565205e-11
1.620565205e-11
1.620565205e-11
1.620565205e-11
1.620565205e-11
1.620565205e-11
1.620565205e-11
1.620565205e-11
1.620565205e-11
1.620565205e-11
1.620565205e-11
1.620565205e-11
1.620565205e-11
1.632311305e-11
1.717020071e-11
1.927039521e-11
2.555953294e-11
1.620661894e-11
1.620644681e-11
1.620610628e-11
1.620595635e-11
1.620599737e-11
1.62059906e-11
1.620601128e-11
1.620601384e-11
1.620635042e-11
1.620648523e-11
1.62062334e-11
1.620606636e-11
1.620590453e-11
1.620582508e-11
1.620603024e-11
1.620614182e-11
1.62061164e-11
1.620605319e-11
1.620594725e-11
1.620609592e-11
1.620606237e-11
1.620591477e-11
1.620595831e-11
1.620565205e-11
1.620565205e-11
1.620565205e-11
1.620565205e-11
1.620565205e-11
1.620565205e-11
1.620565205e-11
1.620565205e-11
1.620565205e-11
1.620565205e-11
1.620565205e-11
1.620565205e-11
1.620565205e-11
1.63694593e-11
1.726674475e-11
1.958198938e-11
2.627555259e-11
1.620683614e-11
1.620667656e-11
1.620634425e-11
1.620625688e-11
1.620604927e-11
1.620601954e-11
1.620612438e-11
1.620614276e-11
1.620639931e-11
1.620664481e-11
1.62065332e-11
1.620625077e-11
1.620599281e-11
1.620591653e-11
1.620609274e-11
1.620618278e-11
1.620624493e-11
1.620620185e-11
1.620600269e-11
1.620616795e-11
1.620613829e-11
1.620594478e-11
1.620582566e-11
1.620565205e-11
1.620565205e-11
1.620565205e-11
1.620565205e-11
1.620565205e-11
1.620565205e-11
1.620565205e-11
1.620565205e-11
1.620565205e-11
1.620565205e-11
1.620565205e-11
1.620565205e-11
1.620565205e-11
1.641714271e-11
1.737554755e-11
1.991107874e-11
2.705084471e-11
1.620695825e-11
1.62068461e-11
1.620663366e-11
1.620636278e-11
1.620617945e-11
1.620609308e-11
1.620621993e-11
1.620635848e-11
1.620658358e-11
1.620677625e-11
1.620670872e-11
1.620629081e-11
1.620614924e-11
1.620601293e-11
1.620618419e-11
1.620624564e-11
1.620637911e-11
1.6206276e-11
1.620609839e-11
1.620621209e-11
1.620613864e-11
1.620592819e-11
1.620565205e-11
1.620565205e-11
1.620565205e-11
1.620565205e-11
1.620565205e-11
1.620565205e-11
1.620565205e-11
1.620565205e-11
1.620565205e-11
1.620565205e-11
1.620565205e-11
1.620565205e-11
1.620565205e-11
1.620964575e-11
1.646697734e-11
1.749655579e-11
2.026031542e-11
2.788820466e-11
1.620695939e-11
1.620691411e-11
1.620670348e-11
1.620662776e-11
1.620630228e-11
1.620622687e-11
1.620630859e-11
1.620633224e-11
1.620656213e-11
1.620686615e-11
1.620683652e-11
1.620639483e-11
1.62061962e-11
1.620612734e-11
1.620624387e-11
1.620636216e-11
1.62064854e-11
1.620633074e-11
1.62061849e-11
1.620617925e-11
1.620607614e-11
1.620586604e-11
1.620565205e-11
1.620565205e-11
1.620565205e-11
1.620565205e-11
1.620565205e-11
1.620565205e-11
1.620565205e-11
1.620565205e-11
1.620565205e-11
1.620565205e-11
1.620565205e-11
1.620565205e-11
1.620565205e-11
1.621913801e-11
1.65197295e-11
1.762990163e-11
2.063220713e-11
2.879077322e-11
1.620699716e-11
1.620691824e-11
1.620672118e-11
1.620677331e-11
1.620648475e-11
1.620646025e-11
1.620643962e-11
1.620637322e-11
1.620660069e-11
1.620693784e-11
1.620692738e-11
1.620660669e-11
1.62063092e-11
1.620630461e-11
1.620638088e-11
1.6206389e-11
1.620655179e-11
1.620646033e-11
1.62062587e-11
1.620621386e-11
1.620606202e-11
1.620570678e-11
1.620565205e-11
1.620565205e-11
1.620565205e-11
1.620565205e-11
1.620565205e-11
1.620565205e-11
1.620565205e-11
1.620565205e-11
1.620565205e-11
1.620565205e-11
1.620565205e-11
1.620565205e-11
1.620565205e-11
1.623099583e-11
1.657603335e-11
1.777576499e-11
2.102921162e-11
2.976216092e-11
1.620712266e-11
1.620697652e-11
1.620680903e-11
1.620685529e-11
1.6206576e-11
1.620645784e-11
1.620646646e-11
1.620642006e-11
1.620667829e-11
1.620706409e-11
1.620698983e-11
1.620664704e-11
1.620647269e-11
1.620638759e-11
1.620644726e-11
1.620643914e-11
1.620654755e-11
1.620649352e-11
1.620639112e-11
1.620629825e-11
1.620601541e-11
1.620565205e-11
1.620565205e-11
1.620565205e-11
1.620565205e-11
1.620565205e-11
1.620565205e-11
1.620565205e-11
1.620565205e-11
1.620565205e-11
1.620565205e-11
1.620565205e-11
1.620565205e-11
1.620565205e-11
1.620565205e-11
1.624535694e-11
1.663648971e-11
1.793472449e-11
2.145373999e-11
3.080630705e-11
1.620736519e-11
1.620717195e-11
1.620697407e-11
1.6206858e-11
1.620679632e-11
1.620655252e-11
1.620656898e-11
1.620650065e-11
1.620686307e-11
1.620717061e-11
1.620701026e-11
1.620677196e-11
1.620654013e-11
1.620642255e-11
1.620644515e-11
1.620649211e-11
1.620657191e-11
1.620650694e-11
1.620642572e-11
1.620637099e-11
1.620601894e-11
1.620565205e-11
1.620565205e-11
1.620565205e-11
1.620565205e-11
1.620565205e-11
1.620565205e-11
1.620565205e-11
1.620565205e-11
1.620565205e-11
1.620565205e-11
1.620565205e-11
1.620565205e-11
1.620565205e-11
1.620565205e-11
1.626214026e-11
1.670166167e-11
1.810750646e-11
2.190831441e-11
3.192751628e-11
1.620758138e-11
1.620743186e-11
1.620726288e-11
1.620703065e-11
1.620688325e-11
1.620667223e-11
1.620668794e-11
1.620660415e-11
1.620685606e-11
1.620728948e-11
1.620721188e-11
1.620708156e-11
1.620676127e-11
1.620653943e-11
1.620651683e-11
1.62065306e-11
1.620658816e-11
1.62065479e-11
1.620653978e-11
1.620643314e-11
1.620594478e-11
1.620565205e-11
1.620565205e-11
1.620565205e-11
1.620565205e-11
1.620565205e-11
1.620565205e-11
1.620565205e-11
1.620565205e-11
1.620565205e-11
1.620565205e-11
1.620565205e-11
1.620565205e-11
1.620565205e-11
1.620565205e-11
1.628153569e-11
1.67721467e-11
1.829477503e-11
2.239540705e-11
3.313057859e-11
1.62076711e-11
1.620755836e-11
1.620730122e-11
1.62073526e-11
1.62072001e-11
1.620684982e-11
1.620689982e-11
1.620674862e-11
1.620694134e-11
1.620742576e-11
1.620745759e-11
1.620729877e-11
1.620684476e-11
1.620662206e-11
1.62066842e-11
1.620661146e-11
1.620667432e-11
1.620665454e-11
1.620657227e-11
1.620646457e-11
1.620594796e-11
1.620565205e-11
1.620565205e-11
1.620565205e-11
1.620565205e-11
1.620565205e-11
1.620565205e-11
1.620565205e-11
1.620565205e-11
1.620565205e-11
1.620565205e-11
1.620565205e-11
1.620565205e-11
1.620565205e-11
1.620565205e-11
1.630368874e-11
1.684847014e-11
1.849751309e-11
2.291758673e-11
3.442049501e-11
1.620774142e-11
1.620756111e-11
1.620738249e-11
1.620753211e-11
1.620739136e-11
1.620701862e-11
1.620707745e-11
1.620689547e-11
1.620709591e-11
1.620755245e-11
1.620765599e-11
1.620744593e-11
1.62070829e-11
1.620675165e-11
1.620679544e-11
1.62067174e-11
1.620669268e-11
1.620667714e-11
1.620659804e-11
1.620646174e-11
1.620587557e-11
1.620565205e-11
1.620565205e-11
1.620565205e-11
1.620565205e-11
1.620565205e-11
1.620565205e-11
1.620565205e-11
1.620565205e-11
1.620565205e-11
1.620565205e-11
1.620565205e-11
1.620565205e-11
1.620565205e-11
1.620565205e-11
1.632875709e-11
1.693122837e-11
1.87166402e-11
2.347756886e-11
3.580275743e-11
1.620776859e-11
1.620765207e-11
1.620746053e-11
1.620762523e-11
1.620749886e-11
1.620715926e-11
1.620714947e-11
1.620705957e-11
1.620724719e-11
1.620771004e-11
1.620777789e-11
1.620745763e-11
1.620724485e-11
1.620692715e-11
1.620680991e-11
1.620678484e-11
1.620679897e-11
1.620674106e-11
1.620664819e-11
1.620638441e-11
1.620571102e-11
1.620565205e-11
1.620565205e-11
1.620565205e-11
1.620565205e-11
1.620565205e-11
1.620565205e-11
1.620565205e-11
1.620565205e-11
1.620565205e-11
1.620565205e-11
1.620565205e-11
1.620565205e-11
1.620565205e-11
1.620565205e-11
1.635689402e-11
1.702092893e-11
1.895326474e-11
2.407816989e-11
3.728324089e-11
1.620785122e-11
1.620764701e-11
1.620748458e-11
1.620761815e-11
1.620746599e-11
1.620732741e-11
1.620741293e-11
1.620730137e-11
1.620743101e-11
1.620783635e-11
1.620784479e-11
1.620754486e-11
1.620733687e-11
1.620698117e-11
1.620686606e-11
1.620683993e-11
1.620684417e-11
1.620670469e-11
1.62065871e-11
1.620619691e-11
1.620565205e-11
1.620565205e-11
1.620565205e-11
1.620565205e-11
1.620565205e-11
1.620565205e-11
1.620565205e-11
1.620565205e-11
1.620565205e-11
1.620565205e-11
1.620565205e-11
1.620565205e-11
1.620565205e-11
1.620565205e-11
1.620565205e-11
1.63882961e-11
1.711819486e-11
1.920854616e-11
2.472236401e-11
3.886826801e-11
1.620792477e-11
1.62077311e-11
1.620752029e-11
1.620750152e-11
1.620760528e-11
1.62075553e-11
1.62075799e-11
1.620764586e-11
1.620769304e-11
1.62079851e-11
1.62078013e-11
1.620766317e-11
1.620731001e-11
1.62071203e-11
1.620702531e-11
1.620692326e-11
1.620691479e-11
1.620668915e-11
1.620657898e-11
1.620599422e-11
1.620565205e-11
1.620565205e-11
1.620565205e-11
1.620565205e-11
1.620565205e-11
1.620565205e-11
1.620565205e-11
1.620565205e-11
1.620565205e-11
1.620565205e-11
1.620565205e-11
1.620565205e-11
1.620565205e-11
1.620565205e-11
1.620565205e-11
1.642325542e-11
1.722364477e-11
1.948382386e-11
2.541318648e-11
4.056450237e-11
1.620798374e-11
1.62078094e-11
1.620764818e-11
1.620750772e-11
1.620756172e-11
1.620751874e-11
1.62076377e-11
1.620778089e-11
1.620805493e-11
1.62081562e-11
1.620787118e-11
1.620775146e-11
1.620737388e-11
1.620713902e-11
1.620706451e-11
1.620703555e-11
1.620691797e-11
1.620669904e-11
1.620652636e-11
1.620581236e-11
1.620565205e-11
1.620565205e-11
1.620565205e-11
1.620565205e-11
1.620565205e-11
1.620565205e-11
1.620565205e-11
1.620565205e-11
1.620565205e-11
1.620565205e-11
1.620565205e-11
1.620565205e-11
1.620565205e-11
1.620565205e-11
1.620565205e-11
1.646201076e-11
1.733799166e-11
1.978040833e-11
2.61539513e-11
4.237912064e-11
1.620803878e-11
1.620793433e-11
1.620789416e-11
1.620756977e-11
1.620750029e-11
1.620754263e-11
1.620784343e-11
1.620805241e-11
1.620830257e-11
1.620834527e-11
1.620807225e-11
1.620775323e-11
1.620755134e-11
1.62072333e-11
1.620715173e-11
1.620705886e-11
1.620698965e-11
1.620676436e-11
1.620650871e-11
1.620565205e-11
1.620565205e-11
1.620565205e-11
1.620565205e-11
1.620565205e-11
1.620565205e-11
1.620565205e-11
1.620565205e-11
1.620565205e-11
1.620565205e-11
1.620565205e-11
1.620565205e-11
1.620565205e-11
1.620565205e-11
1.620565205e-11
1.620565205e-11
1.650486418e-11
1.746187412e-11
2.009985106e-11
2.694809133e-11
4.431981034e-11
1.620821297e-11
1.620811189e-11
1.620803135e-11
1.620770735e-11
1.620757676e-11
1.620764049e-11
1.620786625e-11
1.620809627e-11
1.62084426e-11
1.620844361e-11
1.620809571e-11
1.620780686e-11
1.620769523e-11
1.620727603e-11
1.620716833e-11
1.620709382e-11
1.620704297e-11
1.620673258e-11
1.620641442e-11
1.620565205e-11
1.620565205e-11
1.620565205e-11
1.620565205e-11
1.620565205e-11
1.620565205e-11
1.620565205e-11
1.620565205e-11
1.620565205e-11
1.620565205e-11
1.620565205e-11
1.620565205e-11
1.620565205e-11
1.620565205e-11
1.620565205e-11
1.621074524e-11
1.655208225e-11
1.759605291e-11
2.044374911e-11
2.779929596e-11
4.639464108e-11
1.620835956e-11
1.620833113e-11
1.620821389e-11
1.620789337e-11
1.620773639e-11
1.620779219e-11
1.620807396e-11
1.620827844e-11
1.620850986e-11
1.620859301e-11
1.620823093e-11
1.620793507e-11
1.62078423e-11
1.620739997e-11
1.620724601e-11
1.620719163e-11
1.6207097e-11
1.620675836e-11
1.620627071e-11
1.620565205e-11
1.620565205e-11
1.620565205e-11
1.620565205e-11
1.620565205e-11
1.620565205e-11
1.620565205e-11
1.620565205e-11
1.620565205e-11
1.620565205e-11
1.620565205e-11
1.620565205e-11
1.620565205e-11
1.620565205e-11
1.620565205e-11
1.622493198e-11
1.660400591e-11
1.774132543e-11
2.081379834e-11
2.871143229e-11
4.861233101e-11
1.620850711e-11
1.62084602e-11
1.620824915e-11
1.620822532e-11
1.620795959e-11
1.620805591e-11
1.620810183e-11
1.620820226e-11
1.620843212e-11
1.620870372e-11
1.620849972e-11
1.620814228e-11
1.620793871e-11
1.620751014e-11
1.620732687e-11
1.620723047e-11
1.620709594e-11
1.620668279e-11
1.620607332e-11
1.620565205e-11
1.620565205e-11
1.620565205e-11
1.620565205e-11
1.620565205e-11
1.620565205e-11
1.620565205e-11
1.620565205e-11
1.620565205e-11
1.620565205e-11
1.620565205e-11
1.620565205e-11
1.620565205e-11
1.620565205e-11
1.620565205e-11
1.624126773e-11
1.666096279e-11
1.789845134e-11
2.121180348e-11
2.968861064e-11
5.098205033e-11
1.620865198e-11
1.62085218e-11
1.620836162e-11
1.620844988e-11
1.620817664e-11
1.620811148e-11
1.620821057e-11
1.620822599e-11
1.620848879e-11
1.620878763e-11
1.620865941e-11
1.620814187e-11
1.620796008e-11
1.620750908e-11
1.620738867e-11
1.620720152e-11
1.620699565e-11
1.620658251e-11
1.620592713e-11
1.620565205e-11
1.620565205e-11
1.620565205e-11
1.620565205e-11
1.620565205e-11
1.620565205e-11
1.620565205e-11
1.620565205e-11
1.620565205e-11
1.620565205e-11
1.620565205e-11
1.620565205e-11
1.620565205e-11
1.620565205e-11
1.620565205e-11
1.625991018e-11
1.672337269e-11
1.806838019e-11
2.163972472e-11
3.073521674e-11
5.351366001e-11
1.620867895e-11
1.620863723e-11
1.620853261e-11
1.62086296e-11
1.620849586e-11
1.620823559e-11
1.620828181e-11
1.620832435e-11
1.620868367e-11
1.620888284e-11
1.620873837e-11
1.620817688e-11
1.620787136e-11
1.620747801e-11
1.620737666e-11
1.620718033e-11
1.620697517e-11
1.620647445e-11
1.620574774e-11
1.620565205e-11
1.620565205e-11
1.620565205e-11
1.620565205e-11
1.620565205e-11
1.620565205e-11
1.620565205e-11
1.620565205e-11
1.620565205e-11
1.620565205e-11
1.620565205e-11
1.620565205e-11
1.620565205e-11
1.620565205e-11
1.620565205e-11
1.628103926e-11
1.679167763e-11
1.825203155e-11
2.209955891e-11
3.185591398e-11
5.621754967e-11
1.620877117e-11
1.620863766e-11
1.620862813e-11
1.620868977e-11
1.62086299e-11
1.620839229e-11
1.620837881e-11
1.620846741e-11
1.62087301e-11
1.62089185e-11
1.620875461e-11
1.620823959e-11
1.620793508e-11
1.620748825e-11
1.620743669e-11
1.620720823e-11
1.620696317e-11
1.620634804e-11
1.620565205e-11
1.620565205e-11
1.620565205e-11
1.620565205e-11
1.620565205e-11
1.620565205e-11
1.620565205e-11
1.620565205e-11
1.620565205e-11
1.620565205e-11
1.620565205e-11
1.620565205e-11
1.620565205e-11
1.620565205e-11
1.620565205e-11
1.620565205e-11
1.630480377e-11
1.68663063e-11
1.84503561e-11
2.259353725e-11
3.305559564e-11
5.910473198e-11
1.620878038e-11
1.620867997e-11
1.620865329e-11
1.620853631e-11
1.620864356e-11
1.620858541e-11
1.620858753e-11
1.620874035e-11
1.620897468e-11
1.620895383e-11
1.620868085e-11
1.620836407e-11
1.620792453e-11
1.620750555e-11
1.620748613e-11
1.620728026e-11
1.620691726e-11
1.620624069e-11
1.620565205e-11
1.620565205e-11
1.620565205e-11
1.620565205e-11
1.620565205e-11
1.620565205e-11
1.620565205e-11
1.620565205e-11
1.620565205e-11
1.620565205e-11
1.620565205e-11
1.620565205e-11
1.620565205e-11
1.620565205e-11
1.620565205e-11
1.620565205e-11
1.633144029e-11
1.694771405e-11
1.866445444e-11
2.31240886e-11
3.433952484e-11
6.218699923e-11
1.620884136e-11
1.620866649e-11
1.620852068e-11
1.620844386e-11
1.620847764e-11
1.620850547e-11
1.620858756e-11
1.62087489e-11
1.62091297e-11
1.620910342e-11
1.620871214e-11
1.620840186e-11
1.620806253e-11
1.620751791e-11
1.620742433e-11
1.620730216e-11
1.620683746e-11
1.620609733e-11
1.620565205e-11
1.620565205e-11
1.620565205e-11
1.620565205e-11
1.620565205e-11
1.620565205e-11
1.620565205e-11
1.620565205e-11
1.620565205e-11
1.620565205e-11
1.620565205e-11
1.620565205e-11
1.620565205e-11
1.620565205e-11
1.620565205e-11
1.620565205e-11
1.636118425e-11
1.703645172e-11
1.889543937e-11
2.369357075e-11
3.571321124e-11
6.547680896e-11
1.620886828e-11
1.620870422e-11
1.620854081e-11
1.620847685e-11
1.620848066e-11
1.620853457e-11
1.620869945e-11
1.62088069e-11
1.620923775e-11
1.620921998e-11
1.62088661e-11
1.620860829e-11
1.620817409e-11
1.620754686e-11
1.620740986e-11
1.620725131e-11
1.620676048e-11
1.62059861e-11
1.620565205e-11
1.620565205e-11
1.620565205e-11
1.620565205e-11
1.620565205e-11
1.620565205e-11
1.620565205e-11
1.620565205e-11
1.620565205e-11
1.620565205e-11
1.620565205e-11
1.620565205e-11
1.620565205e-11
1.620565205e-11
1.620565205e-11
1.620565205e-11
1.639430776e-11
1.713304574e-11
1.914451035e-11
2.430465581e-11
3.718259652e-11
6.898740948e-11
1.620901775e-11
1.620884969e-11
1.620871035e-11
1.620867445e-11
1.620868855e-11
1.620869921e-11
1.620880509e-11
1.620889755e-11
1.620932354e-11
1.620930043e-11
1.620890955e-11
1.620869346e-11
1.620820108e-11
1.620755922e-11
1.620740632e-11
1.620727673e-11
1.620669339e-11
1.6205794e-11
1.620565205e-11
1.620565205e-11
1.620565205e-11
1.620565205e-11
1.620565205e-11
1.620565205e-11
1.620565205e-11
1.620565205e-11
1.620565205e-11
1.620565205e-11
1.620565205e-11
1.620565205e-11
1.620565205e-11
1.620565205e-11
1.620565205e-11
1.620565205e-11
1.643103625e-11
1.723801921e-11
1.941296011e-11
2.496026018e-11
3.875392779e-11
7.273291978e-11
1.620914027e-11
1.620905678e-11
1.620898551e-11
1.620908507e-11
1.620893643e-11
1.620897756e-11
1.620905362e-11
1.620900601e-11
1.620936872e-11
1.620939576e-11
1.620902597e-11
1.620865653e-11
1.620809679e-11
1.620758182e-11
1.620744481e-11
1.620727214e-11
1.620669268e-11
1.620570749e-11
1.620565205e-11
1.620565205e-11
1.620565205e-11
1.620565205e-11
1.620565205e-11
1.620565205e-11
1.620565205e-11
1.620565205e-11
1.620565205e-11
1.620565205e-11
1.620565205e-11
1.620565205e-11
1.620565205e-11
1.620565205e-11
1.620565205e-11
1.620565205e-11
1.647162629e-11
1.735198849e-11
1.970217022e-11
2.566332474e-11
4.043390081e-11
7.67282085e-11
1.620929933e-11
1.620922194e-11
1.62093053e-11
1.620940139e-11
1.620930114e-11
1.620906621e-11
1.620909882e-11
1.620910957e-11
1.620930255e-11
1.620944193e-11
1.62092264e-11
1.620876982e-11
1.620810839e-11
1.620757264e-11
1.620739326e-11
1.620722094e-11
1.620662559e-11
1.620565205e-11
1.620565205e-11
1.620565205e-11
1.620565205e-11
1.620565205e-11
1.620565205e-11
1.620565205e-11
1.620565205e-11
1.620565205e-11
1.620565205e-11
1.620565205e-11
1.620565205e-11
1.620565205e-11
1.620565205e-11
1.620565205e-11
1.620565205e-11
1.620565205e-11
1.651642437e-11
1.74756977e-11
2.001366443e-11
2.641709241e-11
4.222954233e-11
8.098925935e-11
1.620953612e-11
1.620940291e-11
1.620938429e-11
1.620960176e-11
1.620948399e-11
1.620917343e-11
1.620917676e-11
1.620931058e-11
1.620938154e-11
1.620954157e-11
1.620936481e-11
1.62087612e-11
1.620827152e-11
1.620759065e-11
1.620736148e-11
1.620708252e-11
1.620649953e-11
1.620565205e-11
1.620565205e-11
1.620565205e-11
1.620565205e-11
1.620565205e-11
1.620565205e-11
1.620565205e-11
1.620565205e-11
1.620565205e-11
1.620565205e-11
1.620565205e-11
1.620565205e-11
1.620565205e-11
1.620565205e-11
1.620565205e-11
1.620565205e-11
1.620565205e-11
1.656567039e-11
1.760980652e-11
2.034892093e-11
2.722494829e-11
4.414842772e-11
8.553278454e-11
1.620971932e-11
1.620956068e-11
1.620951459e-11
1.620971283e-11
1.6209538e-11
1.620930981e-11
1.6209265e-11
1.620934437e-11
1.620957628e-11
1.620963666e-11
1.620944036e-11
1.620881908e-11
1.620840075e-11
1.620764256e-11
1.620733464e-11
1.620695963e-11
1.620633356e-11
1.620565205e-11
1.620565205e-11
1.620565205e-11
1.620565205e-11
1.620565205e-11
1.620565205e-11
1.620565205e-11
1.620565205e-11
1.620565205e-11
1.620565205e-11
1.620565205e-11
1.620565205e-11
1.620565205e-11
1.620565205e-11
1.620565205e-11
1.620565205e-11
1.621969331e-11
1.661977414e-11
1.775507349e-11
2.070956897e-11
2.809053846e-11
4.619853105e-11
9.037663913e-11
1.62098677e-11
1.620971829e-11
1.620969807e-11
1.620979115e-11
1.620967751e-11
1.620955034e-11
1.620945114e-11
1.620947928e-11
1.620962505e-11
1.620974248e-11
1.620947043e-11
1.620895087e-11
1.620846281e-11
1.620774779e-11
1.620739114e-11
1.620689819e-11
1.620615383e-11
1.620565205e-11
1.620565205e-11
1.620565205e-11
1.620565205e-11
1.620565205e-11
1.620565205e-11
1.620565205e-11
1.620565205e-11
1.620565205e-11
1.620565205e-11
1.620565205e-11
1.620565205e-11
1.620565205e-11
1.620565205e-11
1.620565205e-11
1.620565205e-11
1.62383824e-11
1.667907771e-11
1.7912336e-11
2.10974055e-11
2.901769782e-11
4.838832395e-11
9.553982095e-11
1.621010096e-11
1.620998847e-11
1.620998339e-11
1.620971043e-11
1.620957559e-11
1.620953056e-11
1.620967218e-11
1.620973266e-11
1.620984017e-11
1.620980567e-11
1.620947972e-11
1.620888221e-11
1.620843178e-11
1.620776156e-11
1.620736607e-11
1.620678061e-11
1.620593454e-11
1.620565205e-11
1.620565205e-11
1.620565205e-11
1.620565205e-11
1.620565205e-11
1.620565205e-11
1.620565205e-11
1.620565205e-11
1.620565205e-11
1.620565205e-11
1.620565205e-11
1.620565205e-11
1.620565205e-11
1.620565205e-11
1.620565205e-11
1.620565205e-11
1.625948816e-11
1.674403976e-11
1.808245143e-11
2.151435961e-11
3.00104978e-11
5.072675558e-11
1.010423529e-10
1.621042144e-11
1.621031745e-11
1.621015648e-11
1.620976122e-11
1.620959776e-11
1.620957673e-11
1.62097086e-11
1.620976e-11
1.620990136e-11
1.62098418e-11
1.620937505e-11
1.620884034e-11
1.62082355e-11
1.620764574e-11
1.620722588e-11
1.620660652e-11
1.620565982e-11
1.620565205e-11
1.620565205e-11
1.620565205e-11
1.620565205e-11
1.620565205e-11
1.620565205e-11
1.620565205e-11
1.620565205e-11
1.620565205e-11
1.620565205e-11
1.620565205e-11
1.620565205e-11
1.620565205e-11
1.620565205e-11
1.620565205e-11
1.620565205e-11
1.628321936e-11
1.681503234e-11
1.826629826e-11
2.196234265e-11
3.107320753e-11
5.322344592e-11
1.069055341e-10
1.621066167e-11
1.62104852e-11
1.62102541e-11
1.620988068e-11
1.620972458e-11
1.620970985e-11
1.620993365e-11
1.620991464e-11
1.62098305e-11
1.620986908e-11
1.620942189e-11
1.620893915e-11
1.620812285e-11
1.620759842e-11
1.620715208e-11
1.620642678e-11
1.620565205e-11
1.620565205e-11
1.620565205e-11
1.620565205e-11
1.620565205e-11
1.620565205e-11
1.620565205e-11
1.620565205e-11
1.620565205e-11
1.620565205e-11
1.620565205e-11
1.620565205e-11
1.620565205e-11
1.620565205e-11
1.620565205e-11
1.620565205e-11
1.620565205e-11
1.630970816e-11
1.689249192e-11
1.846490046e-11
2.244349583e-11
3.22104904e-11
5.588853249e-11
1.131519938e-10
1.621082807e-11
1.621058642e-11
1.621039145e-11
1.621008511e-11
1.62099178e-11
1.620992693e-11
1.621009779e-11
1.620986493e-11
1.620979371e-11
1.620984434e-11
1.620935526e-11
1.620894043e-11
1.62080225e-11
1.620742892e-11
1.620695681e-11
1.620619867e-11
1.620565205e-11
1.620565205e-11
1.620565205e-11
1.620565205e-11
1.620565205e-11
1.620565205e-11
1.620565205e-11
1.620565205e-11
1.620565205e-11
1.620565205e-11
1.620565205e-11
1.620565205e-11
1.620565205e-11
1.620565205e-11
1.620565205e-11
1.620565205e-11
1.620565205e-11
1.63392189e-11
1.697695047e-11
1.867929976e-11
2.296004257e-11
3.342730299e-11
5.873275697e-11
1.198056545e-10
1.621097454e-11
1.621076488e-11
1.621052817e-11
1.621044031e-11
1.621016773e-11
1.621021076e-11
1.621020869e-11
1.620990994e-11
1.620983497e-11
1.620989185e-11
1.620939081e-11
1.620890382e-11
1.620797004e-11
1.62073124e-11
1.620686288e-11
1.620597656e-11
1.620565205e-11
1.620565205e-11
1.620565205e-11
1.620565205e-11
1.620565205e-11
1.620565205e-11
1.620565205e-11
1.620565205e-11
1.620565205e-11
1.620565205e-11
1.620565205e-11
1.620565205e-11
1.620565205e-11
1.620565205e-11
1.620565205e-11
1.620565205e-11
1.620565205e-11
1.637192371e-11
1.706892219e-11
1.891053569e-11
2.351437176e-11
3.472873851e-11
6.176754405e-11
1.268919486e-10
1.621126584e-11
1.62111036e-11
1.621081621e-11
1.621065149e-11
1.621042805e-11
1.621029261e-11
1.621023246e-11
1.621000868e-11
1.620996605e-11
1.620998029e-11
1.620955543e-11
1.620878799e-11
1.620802633e-11
1.620725766e-11
1.620670009e-11
1.620566194e-11
1.620565205e-11
1.620565205e-11
1.620565205e-11
1.620565205e-11
1.620565205e-11
1.620565205e-11
1.620565205e-11
1.620565205e-11
1.620565205e-11
1.620565205e-11
1.620565205e-11
1.620565205e-11
1.620565205e-11
1.620565205e-11
1.620565205e-11
1.620565205e-11
1.620565205e-11
1.640812245e-11
1.716896572e-11
1.915992319e-11
2.410916216e-11
3.612040433e-11
6.500503809e-11
1.344379126e-10
1.621150895e-11
1.621136677e-11
1.62112525e-11
1.621110069e-11
1.621075892e-11
1.621046185e-11
1.621033216e-11
1.621020757e-11
1.621025702e-11
1.62100649e-11
1.620963573e-11
1.620873352e-11
1.620792291e-11
1.62070917e-11
1.620643914e-11
1.620565205e-11
1.620565205e-11
1.620565205e-11
1.620565205e-11
1.620565205e-11
1.620565205e-11
1.620565205e-11
1.620565205e-11
1.620565205e-11
1.620565205e-11
1.620565205e-11
1.620565205e-11
1.620565205e-11
1.620565205e-11
1.620565205e-11
1.620565205e-11
1.620565205e-11
1.620565205e-11
1.644811721e-11
1.727765524e-11
1.942861617e-11
2.474703922e-11
3.760822994e-11
6.845806979e-11
1.424719443e-10
1.621167556e-11
1.621162233e-11
1.621141496e-11
1.621142056e-11
1.621112746e-11
1.6210727e-11
1.621060749e-11
1.621052034e-11
1.621045757e-11
1.621011204e-11
1.620968187e-11
1.620872163e-11
1.620797273e-11
1.620699106e-11
1.620623328e-11
1.620565205e-11
1.620565205e-11
1.620565205e-11
1.620565205e-11
1.620565205e-11
1.620565205e-11
1.620565205e-11
1.620565205e-11
1.620565205e-11
1.620565205e-11
1.620565205e-11
1.620565205e-11
1.620565205e-11
1.620565205e-11
1.620565205e-11
1.620565205e-11
1.620565205e-11
1.620565205e-11
1.649221228e-11
1.73955738e-11
1.971805618e-11
2.54308616e-11
3.919842577e-11
7.214032391e-11
1.510243552e-10
1.6211943e-11
1.621186973e-11
1.621164176e-11
1.621163826e-11
1.621133793e-11
1.621102824e-11
1.621085504e-11
1.621061509e-11
1.621056523e-11
1.621025875e-11
1.620967906e-11
1.620876858e-11
1.620795241e-11
1.620696882e-11
1.620613405e-11
1.620565205e-11
1.620565205e-11
1.620565205e-11
1.620565205e-11
1.620565205e-11
1.620565205e-11
1.620565205e-11
1.620565205e-11
1.620565205e-11
1.620565205e-11
1.620565205e-11
1.620565205e-11
1.620565205e-11
1.620565205e-11
1.620565205e-11
1.620565205e-11
1.620565205e-11
1.620565205e-11
1.654069643e-11
1.752340554e-11
2.002960924e-11
2.61637212e-11
4.089751325e-11
7.60662382e-11
1.60127206e-10
1.621225365e-11
1.621218536e-11
1.621193527e-11
1.62117769e-11
1.621131863e-11
1.621100902e-11
1.621096841e-11
1.621079127e-11
1.621053483e-11
1.621031408e-11
1.620964245e-11
1.620863291e-11
1.620782173e-11
1.620685758e-11
1.620595679e-11
1.620565205e-11
1.620565205e-11
1.620565205e-11
1.620565205e-11
1.620565205e-11
1.620565205e-11
1.620565205e-11
1.620565205e-11
1.620565205e-11
1.620565205e-11
1.620565205e-11
1.620565205e-11
1.620565205e-11
1.620565205e-11
1.620565205e-11
1.620565205e-11
1.620565205e-11
1.620565205e-11
1.659396502e-11
1.766193675e-11
2.036487796e-11
2.694895426e-11
4.271258464e-11
8.025116217e-11
1.69814501e-10
1.62126346e-11
1.621248069e-11
1.621213638e-11
1.621182194e-11
1.621136431e-11
1.621105635e-11
1.621092648e-11
1.621078385e-11
1.62106326e-11
1.621033035e-11
1.620949661e-11
1.620850047e-11
1.620754702e-11
1.620659204e-11
1.620565664e-11
1.620565205e-11
1.620565205e-11
1.620565205e-11
1.620565205e-11
1.620565205e-11
1.620565205e-11
1.620565205e-11
1.620565205e-11
1.620565205e-11
1.620565205e-11
1.620565205e-11
1.620565205e-11
1.620565205e-11
1.620565205e-11
1.620565205e-11
1.620565205e-11
1.620565205e-11
1.622454883e-11
1.665239344e-11
1.781195263e-11
2.072539162e-11
2.778995808e-11
4.465117865e-11
8.471141827e-11
1.8012218e-10
1.6212946e-11
1.621278364e-11
1.62125214e-11
1.621215715e-11
1.621149698e-11
1.621113533e-11
1.621104113e-11
1.621089651e-11
1.62105953e-11
1.621034753e-11
1.620952406e-11
1.620843611e-11
1.620741483e-11
1.6206383e-11
1.620565205e-11
1.620565205e-11
1.620565205e-11
1.620565205e-11
1.620565205e-11
1.620565205e-11
1.620565205e-11
1.620565205e-11
1.620565205e-11
1.620565205e-11
1.620565205e-11
1.620565205e-11
1.620565205e-11
1.620565205e-11
1.620565205e-11
1.620565205e-11
1.620565205e-11
1.620565205e-11
1.624629984e-11
1.671631708e-11
1.797424058e-11
2.111290386e-11
2.869042983e-11
4.672107834e-11
8.946423514e-11
1.910884853e-10
1.621310998e-11
1.621296219e-11
1.621273173e-11
1.621238705e-11
1.621166446e-11
1.621124023e-11
1.62110791e-11
1.62108638e-11
1.621066566e-11
1.621039307e-11
1.62096069e-11
1.620843315e-11
1.620714637e-11
1.620613864e-11
1.620565205e-11
1.620565205e-11
1.620565205e-11
1.620565205e-11
1.620565205e-11
1.620565205e-11
1.620565205e-11
1.620565205e-11
1.620565205e-11
1.620565205e-11
1.620565205e-11
1.620565205e-11
1.620565205e-11
1.620565205e-11
1.620565205e-11