/*--------------------------------*- C++ -*----------------------------------*\
| =========                 |                                                 |
| \\      /  F ield         | OpenFOAM: The Open Source CFD Toolbox           |
|  \\    /   O peration     | Version:  v2006                                 |
|   \\  /    A nd           | Website:  www.openfoam.com                      |
|    \\/     M anipulation  |                                                 |
\*---------------------------------------------------------------------------*/
FoamFile
{
    version     2.0;
    format      ascii;
    class       volScalarField;
    location    "0.12";
    object      H;
}
// * * * * * * * * * * * * * * * * * * * * * * * * * * * * * * * * * * * * * //

dimensions      [0 0 0 0 0 0 0];


internalField   nonuniform List<scalar> 
168000
(
5.612569973e-23
1.023247431e-22
4.234131226e-24
2.902905871e-24
2.854497676e-24
2.854497676e-24
3.551254889e-23
1.136586e-22
2.049492531e-22
4.108335346e-22
1.53314805e-22
1.649783948e-22
6.350516421e-23
4.020856648e-24
1.159913179e-22
2.983547872e-22
2.305607423e-22
5.650701038e-23
2.898030088e-22
2.326272151e-22
1.222829907e-22
2.151624123e-23
9.852651507e-24
5.431951702e-23
2.854497676e-24
2.854497676e-24
2.854497676e-24
2.854497676e-24
2.854497676e-24
2.854497676e-24
2.854497676e-24
2.854497676e-24
2.854497676e-24
2.854497676e-24
2.854497676e-24
2.854497676e-24
5.387816217e-22
1.764974724e-20
5.411314732e-20
1.763242095e-19
2.170558641e-22
1.654351029e-22
6.388295892e-24
3.992090252e-24
3.048130455e-24
2.854497676e-24
4.256331397e-22
7.040495143e-22
9.578513301e-22
1.064062609e-21
7.735227666e-22
7.803514918e-22
5.615404452e-22
2.3845901e-22
4.903925479e-22
7.34645655e-22
7.35569973e-22
3.306013688e-22
6.653463937e-22
7.227642284e-22
5.982300635e-22
1.848064973e-22
4.43806239e-22
2.854497676e-24
2.854497676e-24
2.854497676e-24
2.854497676e-24
2.854497676e-24
2.854497676e-24
2.854497676e-24
2.854497676e-24
2.854497676e-24
2.854497676e-24
2.854497676e-24
2.854497676e-24
2.854497676e-24
1.560097714e-21
1.919217755e-20
6.032561299e-20
1.894926665e-19
2.008538138e-22
9.084705412e-23
9.559032648e-24
6.3156836e-24
4.911845953e-24
9.756705307e-23
4.692240954e-22
7.667666537e-22
1.519838159e-21
1.610789955e-21
1.095631476e-21
1.151277849e-21
6.490173681e-22
3.6325942e-22
7.77316855e-22
1.238173873e-21
1.131889982e-21
7.131671115e-22
8.939527522e-22
1.081736547e-21
9.499379828e-22
4.425718301e-22
7.207900096e-22
2.854497676e-24
2.854497676e-24
2.854497676e-24
2.854497676e-24
2.854497676e-24
2.854497676e-24
2.854497676e-24
2.854497676e-24
2.854497676e-24
2.854497676e-24
2.854497676e-24
2.854497676e-24
2.854497676e-24
2.562776652e-21
2.102404045e-20
6.67952714e-20
2.038595168e-19
1.791875925e-22
3.503943655e-22
1.27539735e-23
9.486420356e-24
3.672485337e-22
5.999924003e-22
9.051715435e-22
9.573672481e-22
1.788512193e-21
2.139049191e-21
1.587830399e-21
1.338553357e-21
8.368011625e-22
5.743703939e-22
1.252024957e-21
1.620594392e-21
1.536616546e-21
1.32783829e-21
9.779305981e-22
1.468967725e-21
1.358163623e-21
8.706255727e-22
7.557081665e-22
2.854497676e-24
2.854497676e-24
2.854497676e-24
2.854497676e-24
2.854497676e-24
2.854497676e-24
2.854497676e-24
2.854497676e-24
2.854497676e-24
2.854497676e-24
2.854497676e-24
2.854497676e-24
2.854497676e-24
3.57283784e-21
2.312810264e-20
7.358609398e-20
2.194643099e-19
2.916768571e-22
5.407876402e-22
2.740046963e-22
4.482173397e-22
3.127639571e-22
5.461658966e-22
1.045517323e-21
1.230145461e-21
1.939045112e-21
2.567756444e-21
2.352129821e-21
1.816465524e-21
1.128390906e-21
8.764573676e-22
1.458470495e-21
1.755892032e-21
1.961171211e-21
1.818875417e-21
1.161048957e-21
1.706904956e-21
1.608930802e-21
9.697660853e-22
4.341849181e-22
2.854497676e-24
2.854497676e-24
2.854497676e-24
2.854497676e-24
2.854497676e-24
2.854497676e-24
2.854497676e-24
2.854497676e-24
2.854497676e-24
2.854497676e-24
2.854497676e-24
2.854497676e-24
2.854497676e-24
4.61204076e-21
2.549932965e-20
8.07582037e-20
2.363608756e-19
2.978141806e-22
6.707768516e-22
7.124935746e-22
4.991891525e-22
3.746928785e-22
5.813699403e-22
1.09510494e-21
1.669345382e-21
2.350910492e-21
2.896205234e-21
2.829848355e-21
2.014310876e-21
1.64508793e-21
1.194873367e-21
1.760557468e-21
1.963503929e-21
2.404387621e-21
2.063810801e-21
1.477132238e-21
1.852699827e-21
1.610097161e-21
9.149472137e-22
2.854497676e-24
2.854497676e-24
2.854497676e-24
2.854497676e-24
2.854497676e-24
2.854497676e-24
2.854497676e-24
2.854497676e-24
2.854497676e-24
2.854497676e-24
2.854497676e-24
2.854497676e-24
2.854497676e-24
8.989243182e-23
5.698127017e-21
2.813655969e-20
8.836939996e-20
2.546101357e-19
1.958765099e-22
6.293884688e-22
7.244430512e-22
9.371455407e-22
5.836117968e-22
7.754650493e-22
1.260408699e-21
1.589984564e-21
2.298303317e-21
3.153070453e-21
3.153583301e-21
2.317830454e-21
1.800213673e-21
1.572773674e-21
1.957672134e-21
2.34840239e-21
2.755461671e-21
2.244596442e-21
1.762890186e-21
1.744228443e-21
1.403651623e-21
7.096680346e-22
2.854497676e-24
2.854497676e-24
2.854497676e-24
2.854497676e-24
2.854497676e-24
2.854497676e-24
2.854497676e-24
2.854497676e-24
2.854497676e-24
2.854497676e-24
2.854497676e-24
2.854497676e-24
2.854497676e-24
2.967648521e-22
6.847797438e-21
3.104267305e-20
9.64743356e-20
2.742805394e-19
1.202280431e-22
4.243951766e-22
5.533467815e-22
1.111799813e-21
8.911583793e-22
1.222001982e-21
1.565675534e-21
1.648810799e-21
2.345490166e-21
3.364350855e-21
3.395406874e-21
2.842687429e-21
2.173448544e-21
2.158285878e-21
2.410219416e-21
2.437045672e-21
2.974737158e-21
2.672650184e-21
2.006659211e-21
1.858531622e-21
1.356997264e-21
1.836401383e-22
2.854497676e-24
2.854497676e-24
2.854497676e-24
2.854497676e-24
2.854497676e-24
2.854497676e-24
2.854497676e-24
2.854497676e-24
2.854497676e-24
2.854497676e-24
2.854497676e-24
2.854497676e-24
2.854497676e-24
5.551919997e-22
8.074872563e-21
3.422159079e-20
1.051265743e-19
2.954507742e-19
1.229631061e-22
3.399241241e-22
5.228186909e-22
1.127490407e-21
9.812054988e-22
1.133891191e-21
1.453869939e-21
1.712399286e-21
2.53256748e-21
3.617373578e-21
3.605327285e-21
2.994193074e-21
2.713472748e-21
2.432380236e-21
2.629494902e-21
2.602668646e-21
2.96074085e-21
2.782287928e-21
2.444043826e-21
2.137291416e-21
1.20303788e-21
2.854497676e-24
2.854497676e-24
2.854497676e-24
2.854497676e-24
2.854497676e-24
2.854497676e-24
2.854497676e-24
2.854497676e-24
2.854497676e-24
2.854497676e-24
2.854497676e-24
2.854497676e-24
2.854497676e-24
2.854497676e-24
8.681751828e-22
9.392446807e-21
3.768592325e-20
1.143786631e-19
3.18206692e-19
2.753990249e-22
4.971268574e-22
6.816764274e-22
9.688126165e-22
1.359096681e-21
1.242551645e-21
1.68320242e-21
1.847401915e-21
2.9351746e-21
3.827095793e-21
3.676450978e-21
3.312072021e-21
2.936247312e-21
2.547849774e-21
2.622496748e-21
2.777622492e-21
3.041219619e-21
2.826609569e-21
2.558347005e-21
2.377561364e-21
1.214701469e-21
2.854497676e-24
2.854497676e-24
2.854497676e-24
2.854497676e-24
2.854497676e-24
2.854497676e-24
2.854497676e-24
2.854497676e-24
2.854497676e-24
2.854497676e-24
2.854497676e-24
2.854497676e-24
2.854497676e-24
2.854497676e-24
1.233947502e-21
1.081279165e-20
4.14514999e-20
1.242855696e-19
3.426421079e-19
3.809143397e-22
8.272169637e-22
1.110882842e-21
1.163754869e-21
1.391116301e-21
1.386517523e-21
1.828310453e-21
2.010711813e-21
2.882882079e-21
4.103131042e-21
4.141993074e-21
4.039507834e-21
3.509970343e-21
2.933914594e-21
2.85926762e-21
2.90475562e-21
3.094872132e-21
2.961907209e-21
2.935080953e-21
2.582840543e-21
9.697660853e-22
2.854497676e-24
2.854497676e-24
2.854497676e-24
2.854497676e-24
2.854497676e-24
2.854497676e-24
2.854497676e-24
2.854497676e-24
2.854497676e-24
2.854497676e-24
2.854497676e-24
2.854497676e-24
2.854497676e-24
2.854497676e-24
1.656647859e-21
1.234892889e-20
4.55327948e-20
1.349011721e-19
3.688614142e-19
3.492682983e-22
8.624164451e-22
1.022501243e-21
1.731564369e-21
1.953021394e-21
1.674260207e-21
2.251205553e-21
2.258338414e-21
3.026097629e-21
4.429368134e-21
4.756804915e-21
4.57838532e-21
3.774806442e-21
3.206842593e-21
3.412121772e-21
3.171851824e-21
3.379463721e-21
3.314147619e-21
3.042385978e-21
2.686646492e-21
9.802633161e-22
2.854497676e-24
2.854497676e-24
2.854497676e-24
2.854497676e-24
2.854497676e-24
2.854497676e-24
2.854497676e-24
2.854497676e-24
2.854497676e-24
2.854497676e-24
2.854497676e-24
2.854497676e-24
2.854497676e-24
2.854497676e-24
2.139446989e-21
1.401230708e-20
4.995122857e-20
1.462814546e-19
3.96973602e-19
3.519595154e-22
7.257542503e-22
1.03585912e-21
1.98922376e-21
2.267711355e-21
1.954859512e-21
2.535473364e-21
2.521079274e-21
3.29248279e-21
4.753078876e-21
5.215324653e-21
4.969744883e-21
4.375549363e-21
3.634896336e-21
3.779524849e-21
3.521759516e-21
3.440114388e-21
3.388794593e-21
3.127530183e-21
2.67731562e-21
7.411597269e-22
2.854497676e-24
2.854497676e-24
2.854497676e-24
2.854497676e-24
2.854497676e-24
2.854497676e-24
2.854497676e-24
2.854497676e-24
2.854497676e-24
2.854497676e-24
2.854497676e-24
2.854497676e-24
2.854497676e-24
2.854497676e-24
2.685781875e-21
1.58159238e-20
5.472684221e-20
1.584855961e-19
4.270983604e-19
2.923012168e-22
7.601792007e-22
1.067685107e-21
2.05266246e-21
2.385920518e-21
2.160690823e-21
2.598452186e-21
2.818956127e-21
3.606301404e-21
5.014895418e-21
5.486791282e-21
5.030250325e-21
4.793880406e-21
4.214576745e-21
3.827345566e-21
3.744534079e-21
3.791188438e-21
3.599905567e-21
3.293153157e-21
2.421883005e-21
1.97636446e-22
2.854497676e-24
2.854497676e-24
2.854497676e-24
2.854497676e-24
2.854497676e-24
2.854497676e-24
2.854497676e-24
2.854497676e-24
2.854497676e-24
2.854497676e-24
2.854497676e-24
2.854497676e-24
2.854497676e-24
2.854497676e-24
3.298992682e-21
1.777084034e-20
5.98837914e-20
1.715749784e-19
4.593637292e-19
3.137994021e-22
6.013319813e-22
9.685642362e-22
1.90535781e-21
2.178962132e-21
2.40999207e-21
3.11516429e-21
3.296960548e-21
3.972969232e-21
5.238952799e-21
5.645827572e-21
5.292850522e-21
5.083234247e-21
4.393029668e-21
4.012796643e-21
3.926486079e-21
3.940482387e-21
3.479770593e-21
3.091373055e-21
1.802546391e-21
2.854497676e-24
2.854497676e-24
2.854497676e-24
2.854497676e-24
2.854497676e-24
2.854497676e-24
2.854497676e-24
2.854497676e-24
2.854497676e-24
2.854497676e-24
2.854497676e-24
2.854497676e-24
2.854497676e-24
2.854497676e-24
2.854497676e-24
3.983363535e-21
1.989063519e-20
6.544734522e-20
1.856144198e-19
4.939075024e-19
3.235129771e-22
6.495111983e-22
8.824427427e-22
1.501918626e-21
2.351162665e-21
2.827442641e-21
3.418897143e-21
3.993872832e-21
4.510506369e-21
5.548081772e-21
5.556821228e-21
5.607109371e-21
5.09655284e-21
4.852575103e-21
4.538824539e-21
4.201746796e-21
4.173754181e-21
3.428450798e-21
3.064546799e-21
1.133056341e-21
2.854497676e-24
2.854497676e-24
2.854497676e-24
2.854497676e-24
2.854497676e-24
2.854497676e-24
2.854497676e-24
2.854497676e-24
2.854497676e-24
2.854497676e-24
2.854497676e-24
2.854497676e-24
2.854497676e-24
2.854497676e-24
2.854497676e-24
4.745260112e-21
2.218879003e-20
7.144669381e-20
2.006700703e-19
5.308749044e-19
2.923555799e-22
6.384723528e-22
9.987790662e-22
1.33288883e-21
2.090672787e-21
2.619245283e-21
3.416680883e-21
4.254038933e-21
5.283110966e-21
5.923741615e-21
5.714763771e-21
5.822227708e-21
5.260157749e-21
4.914392128e-21
4.668290385e-21
4.572648949e-21
4.184251412e-21
3.461108849e-21
2.890759312e-21
5.323814709e-22
2.854497676e-24
2.854497676e-24
2.854497676e-24
2.854497676e-24
2.854497676e-24
2.854497676e-24
2.854497676e-24
2.854497676e-24
2.854497676e-24
2.854497676e-24
2.854497676e-24
2.854497676e-24
2.854497676e-24
2.854497676e-24
2.854497676e-24
5.589886294e-21
2.468084389e-20
7.791039802e-20
2.168141548e-19
5.704223421e-19
2.518431069e-22
7.049214855e-22
1.344786728e-21
1.319178409e-21
1.836745388e-21
2.581529968e-21
3.80468203e-21
4.801052166e-21
5.816858577e-21
6.33687017e-21
6.167548531e-21
5.828059503e-21
5.656812054e-21
5.225809974e-21
4.956381051e-21
4.649628642e-21
4.421022283e-21
3.676885259e-21
2.832441363e-21
2.854497676e-24
2.854497676e-24
2.854497676e-24
2.854497676e-24
2.854497676e-24
2.854497676e-24
2.854497676e-24
2.854497676e-24
2.854497676e-24
2.854497676e-24
2.854497676e-24
2.854497676e-24
2.854497676e-24
2.854497676e-24
2.854497676e-24
2.854497676e-24
6.523825595e-21
2.738071414e-20
8.487227095e-20
2.341214883e-19
6.127173564e-19
3.425391747e-22
8.68686699e-22
1.433517702e-21
1.456581806e-21
1.874330558e-21
2.700687654e-21
3.788958107e-21
4.840243931e-21
6.115369299e-21
6.548731471e-21
6.234103605e-21
5.957840002e-21
6.019133662e-21
5.366939409e-21
5.011199923e-21
4.76509818e-21
4.597142488e-21
3.571912952e-21
2.521023518e-21
2.854497676e-24
2.854497676e-24
2.854497676e-24
2.854497676e-24
2.854497676e-24
2.854497676e-24
2.854497676e-24
2.854497676e-24
2.854497676e-24
2.854497676e-24
2.854497676e-24
2.854497676e-24
2.854497676e-24
2.854497676e-24
2.854497676e-24
1.138544882e-22
7.552886999e-21
3.030498057e-20
9.236711811e-20
2.526724767e-19
6.579358142e-19
3.712245843e-22
1.119101334e-21
1.661118006e-21
1.699320572e-21
2.073623593e-21
2.910235878e-21
4.14340109e-21
5.168639751e-21
6.250081479e-21
6.889158504e-21
6.531351152e-21
6.253775966e-21
6.41744297e-21
5.776331408e-21
5.267798897e-21
5.088179615e-21
4.77559541e-21
3.657057156e-21
2.046315416e-21
2.854497676e-24
2.854497676e-24
2.854497676e-24
2.854497676e-24
2.854497676e-24
2.854497676e-24
2.854497676e-24
2.854497676e-24
2.854497676e-24
2.854497676e-24
2.854497676e-24
2.854497676e-24
2.854497676e-24
2.854497676e-24
2.854497676e-24
4.23037628e-22
8.684501163e-21
3.347102173e-20
1.004318991e-19
2.725513987e-19
7.062677176e-19
4.103588164e-22
1.181006051e-21
1.529798961e-21
2.267347909e-21
2.431880306e-21
3.358592681e-21
4.111565978e-21
4.935246936e-21
6.022447847e-21
7.1163519e-21
7.138555174e-21
6.792435616e-21
6.710368501e-21
6.140235408e-21
5.534895101e-21
5.216479102e-21
4.772096334e-21
3.407456337e-21
1.394320751e-21
2.854497676e-24
2.854497676e-24
2.854497676e-24
2.854497676e-24
2.854497676e-24
2.854497676e-24
2.854497676e-24
2.854497676e-24
2.854497676e-24
2.854497676e-24
2.854497676e-24
2.854497676e-24
2.854497676e-24
2.854497676e-24
2.854497676e-24
7.790556963e-22
9.925808297e-21
3.689539322e-20
1.091059457e-19
2.938478336e-19
7.579129199e-19
4.807184957e-22
1.096607611e-21
1.587865745e-21
2.608254461e-21
2.780733534e-21
3.381818482e-21
4.321336602e-21
4.933446708e-21
6.096678789e-21
7.302408079e-21
7.509331744e-21
6.820234598e-21
6.842921954e-21
6.136736331e-21
5.739007921e-21
5.120837666e-21
4.440850386e-21
3.076210388e-21
9.114481367e-22
2.854497676e-24
2.854497676e-24
2.854497676e-24
2.854497676e-24
2.854497676e-24
2.854497676e-24
2.854497676e-24
2.854497676e-24
2.854497676e-24
2.854497676e-24
2.854497676e-24
2.854497676e-24
2.854497676e-24
2.854497676e-24
2.854497676e-24
1.185345675e-21
1.128595755e-20
4.059878955e-20
1.184319781e-19
3.166573635e-19
8.130863293e-19
4.094692197e-22
1.204561585e-21
1.744535988e-21
2.852014362e-21
3.357752885e-21
3.50386558e-21
4.286970577e-21
5.068836603e-21
6.467063531e-21
7.525787745e-21
7.704549366e-21
6.932229263e-21
6.706583537e-21
6.034096741e-21
5.699351716e-21
5.050856128e-21
4.373201565e-21
2.719304543e-21
3.18937779e-22
2.854497676e-24
2.854497676e-24
2.854497676e-24
2.854497676e-24
2.854497676e-24
2.854497676e-24
2.854497676e-24
2.854497676e-24
2.854497676e-24
2.854497676e-24
2.854497676e-24
2.854497676e-24
2.854497676e-24
2.854497676e-24
2.854497676e-24
1.645828627e-21
1.277458215e-20
4.46012517e-20
1.284535152e-19
3.410816213e-19
8.720143751e-19
4.589842244e-22
1.100291196e-21
1.947066417e-21
2.864912361e-21
3.53447363e-21
3.726267957e-21
4.414220163e-21
5.311797768e-21
6.532960532e-21
7.643590001e-21
7.758201879e-21
7.099284841e-21
6.906103533e-21
6.067921151e-21
5.897632741e-21
5.142998487e-21
4.33354536e-21
2.301748031e-21
2.854497676e-24
2.854497676e-24
2.854497676e-24
2.854497676e-24
2.854497676e-24
2.854497676e-24
2.854497676e-24
2.854497676e-24
2.854497676e-24
2.854497676e-24
2.854497676e-24
2.854497676e-24
2.854497676e-24
2.854497676e-24
2.854497676e-24
2.854497676e-24
2.163747903e-21
1.440102488e-20
4.892349839e-20
1.39219183e-19
3.672272504e-19
9.349370651e-19
3.873476828e-22
1.068770737e-21
1.873460219e-21
2.398102527e-21
3.411952968e-21
4.039839967e-21
4.750146626e-21
5.8124955e-21
7.023770698e-21
7.683754492e-21
7.561938918e-21
7.397456706e-21
6.89312836e-21
6.125072741e-21
6.060922997e-21
5.380935717e-21
4.181918694e-21
1.947174904e-21
2.854497676e-24
2.854497676e-24
2.854497676e-24
2.854497676e-24
2.854497676e-24
2.854497676e-24
2.854497676e-24
2.854497676e-24
2.854497676e-24
2.854497676e-24
2.854497676e-24
2.854497676e-24
2.854497676e-24
2.854497676e-24
2.854497676e-24
2.854497676e-24
2.744258974e-21
1.617520942e-20
5.358951587e-20
1.50781916e-19
3.952089539e-19
1.002111398e-18
3.956286538e-22
8.52965561e-22
1.37350369e-21
2.012570197e-21
2.885779847e-21
3.735686521e-21
4.622694283e-21
5.735051367e-21
7.284372472e-21
7.886304563e-21
7.599698079e-21
7.471276179e-21
7.203181651e-21
6.165895305e-21
5.856810177e-21
5.453249973e-21
3.918321566e-21
1.473633161e-21
2.854497676e-24
2.854497676e-24
2.854497676e-24
2.854497676e-24
2.854497676e-24
2.854497676e-24
2.854497676e-24
2.854497676e-24
2.854497676e-24
2.854497676e-24
2.854497676e-24
2.854497676e-24
2.854497676e-24
2.854497676e-24
2.854497676e-24
2.854497676e-24
3.39249311e-21
1.810914101e-20
5.862355666e-20
1.631930994e-19
4.251468083e-19
1.073808873e-18
3.02363782e-22
7.553014983e-22
1.214046805e-21
1.884677618e-21
2.68076235e-21
3.620454461e-21
4.744475136e-21
5.769916554e-21
7.440829441e-21
8.092769743e-21
7.907781714e-21
7.887100513e-21
7.447773616e-21
6.261536741e-21
5.80898946e-21
5.285294281e-21
3.66405531e-21
1.106230085e-21
2.854497676e-24
2.854497676e-24
2.854497676e-24
2.854497676e-24
2.854497676e-24
2.854497676e-24
2.854497676e-24
2.854497676e-24
2.854497676e-24
2.854497676e-24
2.854497676e-24
2.854497676e-24
2.854497676e-24
2.854497676e-24
2.854497676e-24
2.854497676e-24
4.114380314e-21
2.021429238e-20
6.405176117e-20
1.765109683e-19
4.571703055e-19
1.150318218e-18
3.623956592e-22
8.094531725e-22
1.344036017e-21
2.070894101e-21
2.897328371e-21
3.781620712e-21
4.838311781e-21
5.85068121e-21
7.549296263e-21
8.187216053e-21
7.949281993e-21
8.062756278e-21
7.525992279e-21
6.302359305e-21
5.79732587e-21
5.369272127e-21
3.442447106e-21
4.717308044e-22
2.854497676e-24
2.854497676e-24
2.854497676e-24
2.854497676e-24
2.854497676e-24
2.854497676e-24
2.854497676e-24
2.854497676e-24
2.854497676e-24
2.854497676e-24
2.854497676e-24
2.854497676e-24
2.854497676e-24
2.854497676e-24
2.854497676e-24
2.854497676e-24
4.914834018e-21
2.250206366e-20
6.990230297e-20
1.907990827e-19
4.914155937e-19
1.231947141e-18
3.662244689e-22
1.005145752e-21
1.64433328e-21
2.727535953e-21
3.264233678e-21
4.241883145e-21
5.236515148e-21
5.953848727e-21
7.549122272e-21
8.327174568e-21
8.140681322e-21
7.955354436e-21
7.290828003e-21
6.377006279e-21
5.924458998e-21
5.354109461e-21
3.440114388e-21
1.859728563e-22
2.854497676e-24
2.854497676e-24
2.854497676e-24
2.854497676e-24
2.854497676e-24
2.854497676e-24
2.854497676e-24
2.854497676e-24
2.854497676e-24
2.854497676e-24
2.854497676e-24
2.854497676e-24
2.854497676e-24
2.854497676e-24
2.854497676e-24
2.854497676e-24
5.799445369e-21
2.498588813e-20
7.620529197e-20
2.061215349e-19
5.280285993e-19
1.319019687e-18
3.778017594e-22
1.055091868e-21
2.132148093e-21
3.200212303e-21
3.84572027e-21
4.232228495e-21
5.159869751e-21
6.062702815e-21
7.290456825e-21
8.410445933e-21
8.536677554e-21
8.158272131e-21
7.307302253e-21
6.346680946e-21
5.754170588e-21
5.18498741e-21
3.218506183e-21
2.854497676e-24
2.854497676e-24
2.854497676e-24
2.854497676e-24
2.854497676e-24
2.854497676e-24
2.854497676e-24
2.854497676e-24
2.854497676e-24
2.854497676e-24
2.854497676e-24
2.854497676e-24
2.854497676e-24
2.854497676e-24
2.854497676e-24
2.854497676e-24
2.854497676e-24
6.775766045e-21
2.768198254e-20
8.299393618e-20
2.22549001e-19
5.671624617e-19
1.411884201e-18
4.930352116e-22
1.088002477e-21
1.973974026e-21
3.373744062e-21
4.026980868e-21
4.269325021e-21
5.173155015e-21
6.369494508e-21
7.358222104e-21
8.458964007e-21
8.793441394e-21
8.115213665e-21
7.67120169e-21
6.406165253e-21
5.64919828e-21
4.727774693e-21
2.80211603e-21
2.854497676e-24
2.854497676e-24
2.854497676e-24
2.854497676e-24
2.854497676e-24
2.854497676e-24
2.854497676e-24
2.854497676e-24
2.854497676e-24
2.854497676e-24
2.854497676e-24
2.854497676e-24
2.854497676e-24
2.854497676e-24
2.854497676e-24
2.854497676e-24
2.854497676e-24
7.84902413e-21
3.060472411e-20
9.030045126e-20
2.401552551e-19
6.089822769e-19
1.510904906e-18
4.750132918e-22
1.062474118e-21
1.952481795e-21
3.350674003e-21
3.855516975e-21
4.337182554e-21
5.191299348e-21
6.287965838e-21
7.662560059e-21
8.539825479e-21
8.919064743e-21
8.233500003e-21
7.923130666e-21
6.577620022e-21
5.560554999e-21
4.32188177e-21
2.253927313e-21
2.854497676e-24
2.854497676e-24
2.854497676e-24
2.854497676e-24
2.854497676e-24
2.854497676e-24
2.854497676e-24
2.854497676e-24
2.854497676e-24
2.854497676e-24
2.854497676e-24
2.854497676e-24
2.854497676e-24
2.854497676e-24
2.854497676e-24
2.854497676e-24
3.088669007e-22
9.028150938e-21
3.377064425e-20
9.816034461e-20
2.590197592e-19
6.536618304e-19
1.616470932e-18
4.075686214e-22
1.021879908e-21
2.041062982e-21
3.237673282e-21
3.937346611e-21
4.650628981e-21
5.350616963e-21
6.405613745e-21
7.645084316e-21
8.747214977e-21
8.989239915e-21
8.512134215e-21
8.058888184e-21
6.925194996e-21
5.747172434e-21
4.118935309e-21
1.660250597e-21
2.854497676e-24
2.854497676e-24
2.854497676e-24
2.854497676e-24
2.854497676e-24
2.854497676e-24
2.854497676e-24
2.854497676e-24
2.854497676e-24
2.854497676e-24
2.854497676e-24
2.854497676e-24
2.854497676e-24
2.854497676e-24
2.854497676e-24
2.854497676e-24
7.161734513e-22
1.032060133e-20
3.719799285e-20
1.066127785e-19
2.7922609e-19
7.013857512e-19
1.728996313e-18
4.601575464e-22
1.232851612e-21
2.305662995e-21
2.759703583e-21
3.465866779e-21
4.384864002e-21
5.679859925e-21
6.801605415e-21
7.998530368e-21
8.806525294e-21
8.961634565e-21
8.321775661e-21
8.003754659e-21
6.970682996e-21
5.664360947e-21
3.730537772e-21
9.359416752e-22
2.854497676e-24
2.854497676e-24
2.854497676e-24
2.854497676e-24
2.854497676e-24
2.854497676e-24
2.854497676e-24
2.854497676e-24
2.854497676e-24
2.854497676e-24
2.854497676e-24
2.854497676e-24
2.854497676e-24
2.854497676e-24
2.854497676e-24
2.854497676e-24
1.176148118e-21
1.17363716e-20
4.090545546e-20
1.156997954e-19
3.008629798e-19
7.523490756e-19
1.848917426e-18
6.258787294e-22
1.525052412e-21
2.345353921e-21
2.530236394e-21
3.218395919e-21
4.242196021e-21
5.545090213e-21
6.68054156e-21
7.992911848e-21
8.842072757e-21
8.626816928e-21
8.172554325e-21
7.552233075e-21
6.588117253e-21
5.201316435e-21
3.155522799e-21
2.851439506e-23
2.854497676e-24
2.854497676e-24
2.854497676e-24
2.854497676e-24
2.854497676e-24
2.854497676e-24
2.854497676e-24
2.854497676e-24
2.854497676e-24
2.854497676e-24
2.854497676e-24
2.854497676e-24
2.854497676e-24
2.854497676e-24
2.854497676e-24
2.854497676e-24
1.69334127e-21
1.328357011e-20
4.491217754e-20
1.254630505e-19
3.240234691e-19
8.067614598e-19
1.976698456e-18
6.577636421e-22
1.49974189e-21
2.17947522e-21
2.440146821e-21
3.181765226e-21
4.255525131e-21
5.803741972e-21
6.815999505e-21
7.675052543e-21
8.749974244e-21
8.639424477e-21
8.327651302e-21
7.2311455e-21
6.431825151e-21
4.95754741e-21
2.561846082e-21
2.854497676e-24
2.854497676e-24
2.854497676e-24
2.854497676e-24
2.854497676e-24
2.854497676e-24
2.854497676e-24
2.854497676e-24
2.854497676e-24
2.854497676e-24
2.854497676e-24
2.854497676e-24
2.854497676e-24
2.854497676e-24
2.854497676e-24
2.854497676e-24
2.854497676e-24
2.270633197e-21
1.497170909e-20
4.924047525e-20
1.359492095e-19
3.488091909e-19
8.648438386e-19
2.112832586e-18
5.988223419e-22
1.265580499e-21
1.980861292e-21
2.514122035e-21
3.287938614e-21
4.425945079e-21
5.923185545e-21
6.520615674e-21
7.407758143e-21
8.544351646e-21
8.386542417e-21
8.26626995e-21
6.954355363e-21
5.871972844e-21
4.312550899e-21
1.808378186e-21
2.854497676e-24
2.854497676e-24
2.854497676e-24
2.854497676e-24
2.854497676e-24
2.854497676e-24
2.854497676e-24
2.854497676e-24
2.854497676e-24
2.854497676e-24
2.854497676e-24
2.854497676e-24
2.854497676e-24
2.854497676e-24
2.854497676e-24
2.854497676e-24
2.854497676e-24
2.913784472e-21
1.681238229e-20
5.391305204e-20
1.472067288e-19
3.753281681e-19
9.268303142e-19
2.257841173e-18
5.359704951e-22
1.242820531e-21
1.951398181e-21
2.96215506e-21
3.541339478e-21
4.791316404e-21
5.936030573e-21
6.406888831e-21
7.32175767e-21
8.537276317e-21
8.336336011e-21
8.087037934e-21
6.770143257e-21
5.487074383e-21
4.002299412e-21
1.074738393e-21
2.854497676e-24
2.854497676e-24
2.854497676e-24
2.854497676e-24
2.854497676e-24
2.854497676e-24
2.854497676e-24
2.854497676e-24
2.854497676e-24
2.854497676e-24
2.854497676e-24
2.854497676e-24
2.854497676e-24
2.854497676e-24
2.854497676e-24
2.854497676e-24
2.854497676e-24
3.626546732e-21
1.88167962e-20
5.895256295e-20
1.592876715e-19
4.036914008e-19
9.929698739e-19
2.41227849e-18
6.454402024e-22
1.552613532e-21
2.206788343e-21
3.080306691e-21
3.818140133e-21
4.715469742e-21
5.755797064e-21
6.415992741e-21
7.423100756e-21
8.541521159e-21
8.548483199e-21
7.704472191e-21
6.770211307e-21
5.306288743e-21
3.464607926e-21
3.551254889e-23
2.854497676e-24
2.854497676e-24
2.854497676e-24
2.854497676e-24
2.854497676e-24
2.854497676e-24
2.854497676e-24
2.854497676e-24
2.854497676e-24
2.854497676e-24
2.854497676e-24
2.854497676e-24
2.854497676e-24
2.854497676e-24
2.854497676e-24
2.854497676e-24
2.854497676e-24
4.415455081e-21
2.09971255e-20
6.438766563e-20
1.722504179e-19
4.340210953e-19
1.06352719e-18
2.576733762e-18
7.086715828e-22
1.736783184e-21
2.755075269e-21
3.733154455e-21
4.233200453e-21
4.840817721e-21
5.775349797e-21
6.664805343e-21
7.906811389e-21
8.554951648e-21
8.627863659e-21
7.480821718e-21
6.450483724e-21
4.758100026e-21
2.602668646e-21
2.854497676e-24
2.854497676e-24
2.854497676e-24
2.854497676e-24
2.854497676e-24
2.854497676e-24
2.854497676e-24
2.854497676e-24
2.854497676e-24
2.854497676e-24
2.854497676e-24
2.854497676e-24
2.854497676e-24
2.854497676e-24
2.854497676e-24
2.854497676e-24
2.854497676e-24
2.854497676e-24
5.287093036e-21
2.336588369e-20
7.024350813e-20
1.861521864e-19
4.664464774e-19
1.138781892e-18
2.751825888e-18
6.103403226e-22
1.833887383e-21
2.712269362e-21
4.090042051e-21
4.805501397e-21
5.191878085e-21
6.189199913e-21
7.202289509e-21
8.193896e-21
8.572200429e-21
8.63813849e-21
7.38323483e-21
6.487487996e-21
4.425687719e-21
1.922681365e-21
2.854497676e-24
2.854497676e-24
2.854497676e-24
2.854497676e-24
2.854497676e-24
2.854497676e-24
2.854497676e-24
2.854497676e-24
2.854497676e-24
2.854497676e-24
2.854497676e-24
2.854497676e-24
2.854497676e-24
2.854497676e-24
2.854497676e-24
2.854497676e-24
2.854497676e-24
2.854497676e-24
6.248092518e-21
2.593577793e-20
7.655150738e-20
2.010552785e-19
5.011028964e-19
1.219032222e-18
2.93821547e-18
6.810539387e-22
1.907640198e-21
2.801794508e-21
4.218763525e-21
4.972301248e-21
5.607451254e-21
6.503957924e-21
7.231003685e-21
8.301680545e-21
8.768894501e-21
8.577826681e-21
7.388892634e-21
6.383924088e-21
4.352207104e-21
1.594934494e-21
2.854497676e-24
2.854497676e-24
2.854497676e-24
2.854497676e-24
2.854497676e-24
2.854497676e-24
2.854497676e-24
2.854497676e-24
2.854497676e-24
2.854497676e-24
2.854497676e-24
2.854497676e-24
2.854497676e-24
2.854497676e-24
2.854497676e-24
2.854497676e-24
2.854497676e-24
2.854497676e-24
7.304746593e-21
2.872171795e-20
8.33414344e-20
2.170270783e-19
5.381324787e-19
1.304592835e-18
3.136601231e-18
7.596612603e-22
2.075573078e-21
2.962293561e-21
4.159217122e-21
4.598791007e-21
5.303462674e-21
6.550457933e-21
7.437609527e-21
8.102886672e-21
8.758513729e-21
8.373104196e-21
7.046447536e-21
6.054333144e-21
3.984804028e-21
1.00942229e-21
2.854497676e-24
2.854497676e-24
2.854497676e-24
2.854497676e-24
2.854497676e-24
2.854497676e-24
2.854497676e-24
2.854497676e-24
2.854497676e-24
2.854497676e-24
2.854497676e-24
2.854497676e-24
2.854497676e-24
2.854497676e-24
2.854497676e-24
2.854497676e-24
2.854497676e-24
2.854497676e-24
8.465671919e-21
3.174084024e-20
9.064821573e-20
2.341402949e-19
5.776897918e-19
1.395798255e-18
3.347724254e-18
9.174312052e-22
2.238429053e-21
3.036196163e-21
3.892547467e-21
4.38890988e-21
5.157344024e-21
6.229753062e-21
7.238157581e-21
8.152522697e-21
8.684713898e-21
7.942378878e-21
6.685534328e-21
5.34735474e-21
3.107702081e-21
1.801716431e-23
2.854497676e-24
2.854497676e-24
2.854497676e-24
2.854497676e-24
2.854497676e-24
2.854497676e-24
2.854497676e-24
2.854497676e-24
2.854497676e-24
2.854497676e-24
2.854497676e-24
2.854497676e-24
2.854497676e-24
2.854497676e-24
2.854497676e-24
2.854497676e-24
2.854497676e-24
4.146872145e-22
9.739049482e-21
3.50102571e-20
9.850518039e-20
2.524689686e-19
6.199391329e-19
1.493004209e-18
3.572367807e-18
9.948963719e-22
2.411879075e-21
3.495307317e-21
4.28916388e-21
4.382531908e-21
5.050150895e-21
6.21487172e-21
7.282324873e-21
7.919977025e-21
8.599347294e-21
7.963833218e-21
6.454716272e-21
4.994557637e-21
2.417217569e-21
2.854497676e-24
2.854497676e-24
2.854497676e-24
2.854497676e-24
2.854497676e-24
2.854497676e-24
2.854497676e-24
2.854497676e-24
2.854497676e-24
2.854497676e-24
2.854497676e-24
2.854497676e-24
2.854497676e-24
2.854497676e-24
2.854497676e-24
2.854497676e-24
2.854497676e-24
2.854497676e-24
8.887244615e-22
1.113218892e-20
3.854712924e-20
1.069505467e-19
2.72093675e-19
6.650501245e-19
1.596586177e-18
3.811365333e-18
9.498061547e-22
2.433150299e-21
3.647041317e-21
4.494623005e-21
4.476557624e-21
5.04316782e-21
6.150814231e-21
7.064941868e-21
7.944683838e-21
8.574849193e-21
7.99692238e-21
6.353848144e-21
4.31552344e-21
1.610097161e-21
2.854497676e-24
2.854497676e-24
2.854497676e-24
2.854497676e-24
2.854497676e-24
2.854497676e-24
2.854497676e-24
2.854497676e-24
2.854497676e-24
2.854497676e-24
2.854497676e-24
2.854497676e-24
2.854497676e-24
2.854497676e-24
2.854497676e-24