/*--------------------------------*- C++ -*----------------------------------*\
| =========                 |                                                 |
| \\      /  F ield         | OpenFOAM: The Open Source CFD Toolbox           |
|  \\    /   O peration     | Version:  v2006                                 |
|   \\  /    A nd           | Website:  www.openfoam.com                      |
|    \\/     M anipulation  |                                                 |
\*---------------------------------------------------------------------------*/
FoamFile
{
    version     2.0;
    format      ascii;
    class       volScalarField;
    location    "0.12";
    object      H2O;
}
// * * * * * * * * * * * * * * * * * * * * * * * * * * * * * * * * * * * * * //

dimensions      [0 0 0 0 0 0 0];


internalField   nonuniform List<scalar> 
168000
(
1.191889478e-08
1.191889318e-08
1.191889174e-08
1.191889037e-08
1.191889032e-08
1.191889032e-08
1.191889036e-08
1.191889046e-08
1.19188909e-08
1.191889179e-08
1.191889051e-08
1.191889053e-08
1.19188904e-08
1.191889032e-08
1.191889047e-08
1.191889112e-08
1.191889089e-08
1.191889039e-08
1.191889071e-08
1.191889062e-08
1.191889095e-08
1.191889034e-08
1.191889033e-08
1.191889054e-08
1.191889032e-08
1.191889032e-08
1.191889032e-08
1.191889032e-08
1.191889032e-08
1.191889032e-08
1.191889032e-08
1.191889032e-08
1.191889032e-08
1.191889032e-08
1.191889032e-08
1.191889032e-08
1.191944074e-08
1.193701452e-08
1.197446418e-08
1.20999808e-08
1.191890214e-08
1.191889818e-08
1.191889395e-08
1.191889149e-08
1.191889052e-08
1.191889032e-08
1.191889144e-08
1.191889264e-08
1.191889369e-08
1.19188939e-08
1.191889221e-08
1.191889204e-08
1.191889104e-08
1.191889062e-08
1.191889095e-08
1.191889176e-08
1.191889151e-08
1.191889074e-08
1.191889117e-08
1.191889152e-08
1.191889163e-08
1.191889055e-08
1.191889215e-08
1.191889032e-08
1.191889032e-08
1.191889032e-08
1.191889032e-08
1.191889032e-08
1.191889032e-08
1.191889032e-08
1.191889032e-08
1.191889032e-08
1.191889032e-08
1.191889032e-08
1.191889032e-08
1.191889032e-08
1.192048968e-08
1.193859867e-08
1.198084468e-08
1.211350544e-08
1.191890704e-08
1.191890173e-08
1.191889721e-08
1.191889387e-08
1.191889243e-08
1.191889188e-08
1.191889194e-08
1.191889245e-08
1.19188954e-08
1.19188955e-08
1.191889282e-08
1.191889255e-08
1.191889115e-08
1.191889078e-08
1.191889132e-08
1.191889206e-08
1.191889178e-08
1.191889124e-08
1.191889147e-08
1.191889171e-08
1.191889154e-08
1.191889089e-08
1.191889308e-08
1.191889032e-08
1.191889032e-08
1.191889032e-08
1.191889032e-08
1.191889032e-08
1.191889032e-08
1.191889032e-08
1.191889032e-08
1.191889032e-08
1.191889032e-08
1.191889032e-08
1.191889032e-08
1.191889032e-08
1.192151948e-08
1.194048009e-08
1.198748933e-08
1.212826088e-08
1.19189111e-08
1.191890629e-08
1.191890049e-08
1.191889713e-08
1.191889608e-08
1.191889464e-08
1.191889342e-08
1.191889319e-08
1.191889617e-08
1.191889727e-08
1.191889465e-08
1.191889227e-08
1.19188914e-08
1.191889106e-08
1.191889193e-08
1.191889241e-08
1.19188923e-08
1.191889203e-08
1.191889158e-08
1.191889221e-08
1.191889207e-08
1.191889144e-08
1.191889305e-08
1.191889032e-08
1.191889032e-08
1.191889032e-08
1.191889032e-08
1.191889032e-08
1.191889032e-08
1.191889032e-08
1.191889032e-08
1.191889032e-08
1.191889032e-08
1.191889032e-08
1.191889032e-08
1.191889032e-08
1.192255686e-08
1.194264106e-08
1.199446383e-08
1.214428775e-08
1.191891537e-08
1.19189104e-08
1.19189044e-08
1.191890147e-08
1.191889755e-08
1.191889559e-08
1.191889519e-08
1.191889458e-08
1.191889644e-08
1.191889849e-08
1.191889717e-08
1.191889378e-08
1.191889177e-08
1.191889145e-08
1.19188922e-08
1.191889258e-08
1.191889284e-08
1.191889266e-08
1.191889181e-08
1.191889252e-08
1.191889239e-08
1.191889157e-08
1.191889184e-08
1.191889032e-08
1.191889032e-08
1.191889032e-08
1.191889032e-08
1.191889032e-08
1.191889032e-08
1.191889032e-08
1.191889032e-08
1.191889032e-08
1.191889032e-08
1.191889032e-08
1.191889032e-08
1.191889032e-08
1.192362418e-08
1.194507642e-08
1.200182993e-08
1.216164133e-08
1.191891809e-08
1.19189135e-08
1.191890849e-08
1.191890357e-08
1.191890013e-08
1.191889705e-08
1.191889707e-08
1.191889701e-08
1.191889831e-08
1.191889964e-08
1.191889848e-08
1.191889358e-08
1.191889244e-08
1.191889186e-08
1.191889259e-08
1.191889285e-08
1.191889342e-08
1.191889298e-08
1.191889222e-08
1.191889271e-08
1.191889239e-08
1.19188915e-08
1.191889032e-08
1.191889032e-08
1.191889032e-08
1.191889032e-08
1.191889032e-08
1.191889032e-08
1.191889032e-08
1.191889032e-08
1.191889032e-08
1.191889032e-08
1.191889032e-08
1.191889032e-08
1.191889032e-08
1.191897971e-08
1.192473964e-08
1.194778498e-08
1.2009647e-08
1.21803842e-08
1.191891867e-08
1.191891526e-08
1.191891e-08
1.191890712e-08
1.191890174e-08
1.191889899e-08
1.191889815e-08
1.191889686e-08
1.191889812e-08
1.191890024e-08
1.191889957e-08
1.191889425e-08
1.191889264e-08
1.191889234e-08
1.191889284e-08
1.191889334e-08
1.191889387e-08
1.191889321e-08
1.191889259e-08
1.191889257e-08
1.191889213e-08
1.191889123e-08
1.191889032e-08
1.191889032e-08
1.191889032e-08
1.191889032e-08
1.191889032e-08
1.191889032e-08
1.191889032e-08
1.191889032e-08
1.191889032e-08
1.191889032e-08
1.191889032e-08
1.191889032e-08
1.191889032e-08
1.191919218e-08
1.19259204e-08
1.19507697e-08
1.201797115e-08
1.220058664e-08
1.191891994e-08
1.191891649e-08
1.191891134e-08
1.191890943e-08
1.191890415e-08
1.191890177e-08
1.191889941e-08
1.191889746e-08
1.191889873e-08
1.191890069e-08
1.191890028e-08
1.191889612e-08
1.191889312e-08
1.19188931e-08
1.191889342e-08
1.191889346e-08
1.191889415e-08
1.191889376e-08
1.19188929e-08
1.191889271e-08
1.191889207e-08
1.191889055e-08
1.191889032e-08
1.191889032e-08
1.191889032e-08
1.191889032e-08
1.191889032e-08
1.191889032e-08
1.191889032e-08
1.191889032e-08
1.191889032e-08
1.191889032e-08
1.191889032e-08
1.191889032e-08
1.191889032e-08
1.19194576e-08
1.192718067e-08
1.19540346e-08
1.202685742e-08
1.222232949e-08
1.191892275e-08
1.191891826e-08
1.191891348e-08
1.191891119e-08
1.191890571e-08
1.191890221e-08
1.191890063e-08
1.191889816e-08
1.191889944e-08
1.191890213e-08
1.191890053e-08
1.191889619e-08
1.191889381e-08
1.191889345e-08
1.191889371e-08
1.191889367e-08
1.191889413e-08
1.19188939e-08
1.191889347e-08
1.191889307e-08
1.191889187e-08
1.191889032e-08
1.191889032e-08
1.191889032e-08
1.191889032e-08
1.191889032e-08
1.191889032e-08
1.191889032e-08
1.191889032e-08
1.191889032e-08
1.191889032e-08
1.191889032e-08
1.191889032e-08
1.191889032e-08
1.191889032e-08
1.191977905e-08
1.192853388e-08
1.195759264e-08
1.203635976e-08
1.224570091e-08
1.191892737e-08
1.191892179e-08
1.191891632e-08
1.191891212e-08
1.191890858e-08
1.191890374e-08
1.191890167e-08
1.191889923e-08
1.191890138e-08
1.191890337e-08
1.191890059e-08
1.191889724e-08
1.19188941e-08
1.19188936e-08
1.19188937e-08
1.19188939e-08
1.191889424e-08
1.191889396e-08
1.191889361e-08
1.191889338e-08
1.191889188e-08
1.191889032e-08
1.191889032e-08
1.191889032e-08
1.191889032e-08
1.191889032e-08
1.191889032e-08
1.191889032e-08
1.191889032e-08
1.191889032e-08
1.191889032e-08
1.191889032e-08
1.191889032e-08
1.191889032e-08
1.191889032e-08
1.192015471e-08
1.192999264e-08
1.196146006e-08
1.204653462e-08
1.227079725e-08
1.191893165e-08
1.191892582e-08
1.191892045e-08
1.191891493e-08
1.191891036e-08
1.191890564e-08
1.191890355e-08
1.191890066e-08
1.191890151e-08
1.191890452e-08
1.191890256e-08
1.191890019e-08
1.191889591e-08
1.19188941e-08
1.1918894e-08
1.191889406e-08
1.191889431e-08
1.191889414e-08
1.19188941e-08
1.191889365e-08
1.191889157e-08
1.191889032e-08
1.191889032e-08
1.191889032e-08
1.191889032e-08
1.191889032e-08
1.191889032e-08
1.191889032e-08
1.191889032e-08
1.191889032e-08
1.191889032e-08
1.191889032e-08
1.191889032e-08
1.191889032e-08
1.191889032e-08
1.192058885e-08
1.193157033e-08
1.196565175e-08
1.205743735e-08
1.229772573e-08
1.191893384e-08
1.191892847e-08
1.19189218e-08
1.191891904e-08
1.191891438e-08
1.191890804e-08
1.191890598e-08
1.191890254e-08
1.191890263e-08
1.191890578e-08
1.191890469e-08
1.19189021e-08
1.191889633e-08
1.191889445e-08
1.191889472e-08
1.191889441e-08
1.191889467e-08
1.191889459e-08
1.191889424e-08
1.191889378e-08
1.191889158e-08
1.191889032e-08
1.191889032e-08
1.191889032e-08
1.191889032e-08
1.191889032e-08
1.191889032e-08
1.191889032e-08
1.191889032e-08
1.191889032e-08
1.191889032e-08
1.191889032e-08
1.191889032e-08
1.191889032e-08
1.191889032e-08
1.19210847e-08
1.19332787e-08
1.197018969e-08
1.206912545e-08
1.23265983e-08
1.191893541e-08
1.191892929e-08
1.191892356e-08
1.191892166e-08
1.191891695e-08
1.191891029e-08
1.191890841e-08
1.191890439e-08
1.191890464e-08
1.191890685e-08
1.191890662e-08
1.191890325e-08
1.191889837e-08
1.1918895e-08
1.191889519e-08
1.191889486e-08
1.191889475e-08
1.191889469e-08
1.191889435e-08
1.191889377e-08
1.191889127e-08
1.191889032e-08
1.191889032e-08
1.191889032e-08
1.191889032e-08
1.191889032e-08
1.191889032e-08
1.191889032e-08
1.191889032e-08
1.191889032e-08
1.191889032e-08
1.191889032e-08
1.191889032e-08
1.191889032e-08
1.191889032e-08
1.192164581e-08
1.19351311e-08
1.197509448e-08
1.208165969e-08
1.235753787e-08
1.191893635e-08
1.191893114e-08
1.191892514e-08
1.19189234e-08
1.191891872e-08
1.191891232e-08
1.191890968e-08
1.191890644e-08
1.191890631e-08
1.191890895e-08
1.191890787e-08
1.191890318e-08
1.19188997e-08
1.191889575e-08
1.191889525e-08
1.191889514e-08
1.19188952e-08
1.191889496e-08
1.191889456e-08
1.191889344e-08
1.191889057e-08
1.191889032e-08
1.191889032e-08
1.191889032e-08
1.191889032e-08
1.191889032e-08
1.191889032e-08
1.191889032e-08
1.191889032e-08
1.191889032e-08
1.191889032e-08
1.191889032e-08
1.191889032e-08
1.191889032e-08
1.191889032e-08
1.192227561e-08
1.193713889e-08
1.198039091e-08
1.209510311e-08
1.239067595e-08
1.191893809e-08
1.191893191e-08
1.191892622e-08
1.191892406e-08
1.191891912e-08
1.191891473e-08
1.191891275e-08
1.191890924e-08
1.191890842e-08
1.191891055e-08
1.19189085e-08
1.19189037e-08
1.191890017e-08
1.191889598e-08
1.191889549e-08
1.191889538e-08
1.19188954e-08
1.19188948e-08
1.19188943e-08
1.191889264e-08
1.191889032e-08
1.191889032e-08
1.191889032e-08
1.191889032e-08
1.191889032e-08
1.191889032e-08
1.191889032e-08
1.191889032e-08
1.191889032e-08
1.191889032e-08
1.191889032e-08
1.191889032e-08
1.191889032e-08
1.191889032e-08
1.191889032e-08
1.192297849e-08
1.193931602e-08
1.198610495e-08
1.210952229e-08
1.242615406e-08
1.191893969e-08
1.191893353e-08
1.19189275e-08
1.191892366e-08
1.19189213e-08
1.191891755e-08
1.191891483e-08
1.191891314e-08
1.191891135e-08
1.191891219e-08
1.191890801e-08
1.191890462e-08
1.191889949e-08
1.191889657e-08
1.191889617e-08
1.191889573e-08
1.19188957e-08
1.191889474e-08
1.191889427e-08
1.191889178e-08
1.191889032e-08
1.191889032e-08
1.191889032e-08
1.191889032e-08
1.191889032e-08
1.191889032e-08
1.191889032e-08
1.191889032e-08
1.191889032e-08
1.191889032e-08
1.191889032e-08
1.191889032e-08
1.191889032e-08
1.191889032e-08
1.191889032e-08
1.1923761e-08
1.194167634e-08
1.199226657e-08
1.212498516e-08
1.246412135e-08
1.191894119e-08
1.191893536e-08
1.191892974e-08
1.191892473e-08
1.191892176e-08
1.191891788e-08
1.191891615e-08
1.191891474e-08
1.191891523e-08
1.191891397e-08
1.191890871e-08
1.191890542e-08
1.191890003e-08
1.191889665e-08
1.191889634e-08
1.191889621e-08
1.191889571e-08
1.191889478e-08
1.191889404e-08
1.1918891e-08
1.191889032e-08
1.191889032e-08
1.191889032e-08
1.191889032e-08
1.191889032e-08
1.191889032e-08
1.191889032e-08
1.191889032e-08
1.191889032e-08
1.191889032e-08
1.191889032e-08
1.191889032e-08
1.191889032e-08
1.191889032e-08
1.191889032e-08
1.192462847e-08
1.19442358e-08
1.19989051e-08
1.214156591e-08
1.250473846e-08
1.191894265e-08
1.19189378e-08
1.191893336e-08
1.19189262e-08
1.191892178e-08
1.191891862e-08
1.191891863e-08
1.191891783e-08
1.191891785e-08
1.191891594e-08
1.191891073e-08
1.191890543e-08
1.191890183e-08
1.191889705e-08
1.191889671e-08
1.191889631e-08
1.191889602e-08
1.191889506e-08
1.191889397e-08
1.191889032e-08
1.191889032e-08
1.191889032e-08
1.191889032e-08
1.191889032e-08
1.191889032e-08
1.191889032e-08
1.191889032e-08
1.191889032e-08
1.191889032e-08
1.191889032e-08
1.191889032e-08
1.191889032e-08
1.191889032e-08
1.191889032e-08
1.191889032e-08
1.192558767e-08
1.194700869e-08
1.200605528e-08
1.215934137e-08
1.254817747e-08
1.191894607e-08
1.191894089e-08
1.191893596e-08
1.191892854e-08
1.19189233e-08
1.191892017e-08
1.191891923e-08
1.19189186e-08
1.191891935e-08
1.191891698e-08
1.191891089e-08
1.191890592e-08
1.191890307e-08
1.191889724e-08
1.191889678e-08
1.191889646e-08
1.191889624e-08
1.191889492e-08
1.191889357e-08
1.191889032e-08
1.191889032e-08
1.191889032e-08
1.191889032e-08
1.191889032e-08
1.191889032e-08
1.191889032e-08
1.191889032e-08
1.191889032e-08
1.191889032e-08
1.191889032e-08
1.191889032e-08
1.191889032e-08
1.191889032e-08
1.191889032e-08
1.191900432e-08
1.192664457e-08
1.195001206e-08
1.201375284e-08
1.217839413e-08
1.259461899e-08
1.191894921e-08
1.191894444e-08
1.191893881e-08
1.191893139e-08
1.191892579e-08
1.191892242e-08
1.191892195e-08
1.191892089e-08
1.191892012e-08
1.191891847e-08
1.191891229e-08
1.191890717e-08
1.191890418e-08
1.191889776e-08
1.191889711e-08
1.191889688e-08
1.191889647e-08
1.191889503e-08
1.191889295e-08
1.191889032e-08
1.191889032e-08
1.191889032e-08
1.191889032e-08
1.191889032e-08
1.191889032e-08
1.191889032e-08
1.191889032e-08
1.191889032e-08
1.191889032e-08
1.191889032e-08
1.191889032e-08
1.191889032e-08
1.191889032e-08
1.191889032e-08
1.191932187e-08
1.192780679e-08
1.195326373e-08
1.202203576e-08
1.219881073e-08
1.264425817e-08
1.191895232e-08
1.191894701e-08
1.191894033e-08
1.191893572e-08
1.191892883e-08
1.191892588e-08
1.191892275e-08
1.191892046e-08
1.191891963e-08
1.19189197e-08
1.191891499e-08
1.191890886e-08
1.191890473e-08
1.191889823e-08
1.191889745e-08
1.191889704e-08
1.191889647e-08
1.191889471e-08
1.191889211e-08
1.191889032e-08
1.191889032e-08
1.191889032e-08
1.191889032e-08
1.191889032e-08
1.191889032e-08
1.191889032e-08
1.191889032e-08
1.191889032e-08
1.191889032e-08
1.191889032e-08
1.191889032e-08
1.191889032e-08
1.191889032e-08
1.191889032e-08
1.191968752e-08
1.192908167e-08
1.195678072e-08
1.203094442e-08
1.222068319e-08
1.269730027e-08
1.191895519e-08
1.191894886e-08
1.191894254e-08
1.191893889e-08
1.191893179e-08
1.1918927e-08
1.191892404e-08
1.191892101e-08
1.19189205e-08
1.191892056e-08
1.191891653e-08
1.191890869e-08
1.191890448e-08
1.191889823e-08
1.191889772e-08
1.191889692e-08
1.191889604e-08
1.191889428e-08
1.191889149e-08
1.191889032e-08
1.191889032e-08
1.191889032e-08
1.191889032e-08
1.191889032e-08
1.191889032e-08
1.191889032e-08
1.191889032e-08
1.191889032e-08
1.191889032e-08
1.191889032e-08
1.191889032e-08
1.191889032e-08
1.191889032e-08
1.191889032e-08
1.19201048e-08
1.193047861e-08
1.196058429e-08
1.20405227e-08
1.224410967e-08
1.2753966e-08
1.191895619e-08
1.191895086e-08
1.191894552e-08
1.191894159e-08
1.191893578e-08
1.191892912e-08
1.191892584e-08
1.191892247e-08
1.191892284e-08
1.191892147e-08
1.191891723e-08
1.191890886e-08
1.191890323e-08
1.19188981e-08
1.191889766e-08
1.191889683e-08
1.191889595e-08
1.191889382e-08
1.191889073e-08
1.191889032e-08
1.191889032e-08
1.191889032e-08
1.191889032e-08
1.191889032e-08
1.191889032e-08
1.191889032e-08
1.191889032e-08
1.191889032e-08
1.191889032e-08
1.191889032e-08
1.191889032e-08
1.191889032e-08
1.191889032e-08
1.191889032e-08
1.192057773e-08
1.19320075e-08
1.196469501e-08
1.20508153e-08
1.226919455e-08
1.281448793e-08
1.191895799e-08
1.191895145e-08
1.191894655e-08
1.191894287e-08
1.191893783e-08
1.191893142e-08
1.191892732e-08
1.191892435e-08
1.191892352e-08
1.191892162e-08
1.19189173e-08
1.191890935e-08
1.191890357e-08
1.191889814e-08
1.191889792e-08
1.191889695e-08
1.19188959e-08
1.191889328e-08
1.191889032e-08
1.191889032e-08
1.191889032e-08
1.191889032e-08
1.191889032e-08
1.191889032e-08
1.191889032e-08
1.191889032e-08
1.191889032e-08
1.191889032e-08
1.191889032e-08
1.191889032e-08
1.191889032e-08
1.191889032e-08
1.191889032e-08
1.191889032e-08
1.192110966e-08
1.193367793e-08
1.196913417e-08
1.206187216e-08
1.229604737e-08
1.287911255e-08
1.191895859e-08
1.191895257e-08
1.191894753e-08
1.1918942e-08
1.191893881e-08
1.191893403e-08
1.191893016e-08
1.191892773e-08
1.191892631e-08
1.19189222e-08
1.191891673e-08
1.191891051e-08
1.19189034e-08
1.191889821e-08
1.191889813e-08
1.191889725e-08
1.191889571e-08
1.191889283e-08
1.191889032e-08
1.191889032e-08
1.191889032e-08
1.191889032e-08
1.191889032e-08
1.191889032e-08
1.191889032e-08
1.191889032e-08
1.191889032e-08
1.191889032e-08
1.191889032e-08
1.191889032e-08
1.191889032e-08
1.191889032e-08
1.191889032e-08
1.191889032e-08
1.192170587e-08
1.19355001e-08
1.197392639e-08
1.207374764e-08
1.232478592e-08
1.29481038e-08
1.191895992e-08
1.191895346e-08
1.19189473e-08
1.191894204e-08
1.191893798e-08
1.191893391e-08
1.191893086e-08
1.191892835e-08
1.191892836e-08
1.191892444e-08
1.191891722e-08
1.191891095e-08
1.191890479e-08
1.191889827e-08
1.191889787e-08
1.191889735e-08
1.191889537e-08
1.191889222e-08
1.191889032e-08
1.191889032e-08
1.191889032e-08
1.191889032e-08
1.191889032e-08
1.191889032e-08
1.191889032e-08
1.191889032e-08
1.191889032e-08
1.191889032e-08
1.191889032e-08
1.191889032e-08
1.191889032e-08
1.191889032e-08
1.191889032e-08
1.191889032e-08
1.192237164e-08
1.193748634e-08
1.197909659e-08
1.208649452e-08
1.235553353e-08
1.302174055e-08
1.191896104e-08
1.191895485e-08
1.191894864e-08
1.191894349e-08
1.191893918e-08
1.191893521e-08
1.191893271e-08
1.191892946e-08
1.191892993e-08
1.191892593e-08
1.191891898e-08
1.19189133e-08
1.191890595e-08
1.191889839e-08
1.191889781e-08
1.191889713e-08
1.191889504e-08
1.191889174e-08
1.191889032e-08
1.191889032e-08
1.191889032e-08
1.191889032e-08
1.191889032e-08
1.191889032e-08
1.191889032e-08
1.191889032e-08
1.191889032e-08
1.191889032e-08
1.191889032e-08
1.191889032e-08
1.191889032e-08
1.191889032e-08
1.191889032e-08
1.191889032e-08
1.192311305e-08
1.193964844e-08
1.198467162e-08
1.210017261e-08
1.238842319e-08
1.310031931e-08
1.191896407e-08
1.191895782e-08
1.191895173e-08
1.191894691e-08
1.191894266e-08
1.191893802e-08
1.191893457e-08
1.191893105e-08
1.191893126e-08
1.191892721e-08
1.191891973e-08
1.191891424e-08
1.191890613e-08
1.191889844e-08
1.191889779e-08
1.191889724e-08
1.191889475e-08
1.191889092e-08
1.191889032e-08
1.191889032e-08
1.191889032e-08
1.191889032e-08
1.191889032e-08
1.191889032e-08
1.191889032e-08
1.191889032e-08
1.191889032e-08
1.191889032e-08
1.191889032e-08
1.191889032e-08
1.191889032e-08
1.191889032e-08
1.191889032e-08
1.191889032e-08
1.192393516e-08
1.194199809e-08
1.19906804e-08
1.211484719e-08
1.242359475e-08
1.318415612e-08
1.191896681e-08
1.19189614e-08
1.191895627e-08
1.191895253e-08
1.191894622e-08
1.191894174e-08
1.191893796e-08
1.191893293e-08
1.191893228e-08
1.191892859e-08
1.19189213e-08
1.191891401e-08
1.191890508e-08
1.191889854e-08
1.191889796e-08
1.191889722e-08
1.191889475e-08
1.191889056e-08
1.191889032e-08
1.191889032e-08
1.191889032e-08
1.191889032e-08
1.191889032e-08
1.191889032e-08
1.191889032e-08
1.191889032e-08
1.191889032e-08
1.191889032e-08
1.191889032e-08
1.191889032e-08
1.191889032e-08
1.191889032e-08
1.191889032e-08
1.191889032e-08
1.19248437e-08
1.194454909e-08
1.199715387e-08
1.213058408e-08
1.246119806e-08
1.32735838e-08
1.191897033e-08
1.191896484e-08
1.191896077e-08
1.191895703e-08
1.191895121e-08
1.191894379e-08
1.19189394e-08
1.191893465e-08
1.191893222e-08
1.191892917e-08
1.191892362e-08
1.191891543e-08
1.191890525e-08
1.19188985e-08
1.191889774e-08
1.1918897e-08
1.191889447e-08
1.191889032e-08
1.191889032e-08
1.191889032e-08
1.191889032e-08
1.191889032e-08
1.191889032e-08
1.191889032e-08
1.191889032e-08
1.191889032e-08
1.191889032e-08
1.191889032e-08
1.191889032e-08
1.191889032e-08
1.191889032e-08
1.191889032e-08
1.191889032e-08
1.191889032e-08
1.192584642e-08
1.194731811e-08
1.200412614e-08
1.214745587e-08
1.250139041e-08
1.33689601e-08
1.191897502e-08
1.191896873e-08
1.191896342e-08
1.191896058e-08
1.191895433e-08
1.1918946e-08
1.191894108e-08
1.191893748e-08
1.191893362e-08
1.191893114e-08
1.191892531e-08
1.191891548e-08
1.191890691e-08
1.191889858e-08
1.19188976e-08
1.191889641e-08
1.191889393e-08
1.191889032e-08
1.191889032e-08
1.191889032e-08
1.191889032e-08
1.191889032e-08
1.191889032e-08
1.191889032e-08
1.191889032e-08
1.191889032e-08
1.191889032e-08
1.191889032e-08
1.191889032e-08
1.191889032e-08
1.191889032e-08
1.191889032e-08
1.191889032e-08
1.191889032e-08
1.192694871e-08
1.195031991e-08
1.201163028e-08
1.216553834e-08
1.254434136e-08
1.347065911e-08
1.191897924e-08
1.191897243e-08
1.191896647e-08
1.191896321e-08
1.191895649e-08
1.191894869e-08
1.191894297e-08
1.191893869e-08
1.191893632e-08
1.191893283e-08
1.191892632e-08
1.191891613e-08
1.191890843e-08
1.19188988e-08
1.191889749e-08
1.191889589e-08
1.191889322e-08
1.191889032e-08
1.191889032e-08
1.191889032e-08
1.191889032e-08
1.191889032e-08
1.191889032e-08
1.191889032e-08
1.191889032e-08
1.191889032e-08
1.191889032e-08
1.191889032e-08
1.191889032e-08
1.191889032e-08
1.191889032e-08
1.191889032e-08
1.191889032e-08
1.191920461e-08
1.192815973e-08
1.195357146e-08
1.201970276e-08
1.218491309e-08
1.25902294e-08
1.357908048e-08
1.191898295e-08
1.19189762e-08
1.191897011e-08
1.19189656e-08
1.191895917e-08
1.191895237e-08
1.191894627e-08
1.191894108e-08
1.191893751e-08
1.191893407e-08
1.191892661e-08
1.191891755e-08
1.191890907e-08
1.191889925e-08
1.191889773e-08
1.191889563e-08
1.191889246e-08
1.191889032e-08
1.191889032e-08
1.191889032e-08
1.191889032e-08
1.191889032e-08
1.191889032e-08
1.191889032e-08
1.191889032e-08
1.191889032e-08
1.191889032e-08
1.191889032e-08
1.191889032e-08
1.191889032e-08
1.191889032e-08
1.191889032e-08
1.191889032e-08
1.191962293e-08
1.192948714e-08
1.195709151e-08
1.202838382e-08
1.220566596e-08
1.263924416e-08
1.369464944e-08
1.191898791e-08
1.191898111e-08
1.191897507e-08
1.191896642e-08
1.191895949e-08
1.19189534e-08
1.191894943e-08
1.191894459e-08
1.19189404e-08
1.191893516e-08
1.191892697e-08
1.191891706e-08
1.191890868e-08
1.19188993e-08
1.191889762e-08
1.191889513e-08
1.191889152e-08
1.191889032e-08
1.191889032e-08
1.191889032e-08
1.191889032e-08
1.191889032e-08
1.191889032e-08
1.191889032e-08
1.191889032e-08
1.191889032e-08
1.191889032e-08
1.191889032e-08
1.191889032e-08
1.191889032e-08
1.191889032e-08
1.191889032e-08
1.191889032e-08
1.192009535e-08
1.19309412e-08
1.196089925e-08
1.203771662e-08
1.222788808e-08
1.269158593e-08
1.381781416e-08
1.191899421e-08
1.19189869e-08
1.191897875e-08
1.191896883e-08
1.191896135e-08
1.191895522e-08
1.191895099e-08
1.191894588e-08
1.191894181e-08
1.191893578e-08
1.191892647e-08
1.191891694e-08
1.191890676e-08
1.191889881e-08
1.191889702e-08
1.191889438e-08
1.191889035e-08
1.191889032e-08
1.191889032e-08
1.191889032e-08
1.191889032e-08
1.191889032e-08
1.191889032e-08
1.191889032e-08
1.191889032e-08
1.191889032e-08
1.191889032e-08
1.191889032e-08
1.191889032e-08
1.191889032e-08
1.191889032e-08
1.191889032e-08
1.191889032e-08
1.192062653e-08
1.193253025e-08
1.196501435e-08
1.204774395e-08
1.225167501e-08
1.274747006e-08
1.39490514e-08
1.191899944e-08
1.191899082e-08
1.191898186e-08
1.191897202e-08
1.191896441e-08
1.191895815e-08
1.191895463e-08
1.191894861e-08
1.191894197e-08
1.19189369e-08
1.191892745e-08
1.191891831e-08
1.1918906e-08
1.191889861e-08
1.191889671e-08
1.191889362e-08
1.191889032e-08
1.191889032e-08
1.191889032e-08
1.191889032e-08
1.191889032e-08
1.191889032e-08
1.191889032e-08
1.191889032e-08
1.191889032e-08
1.191889032e-08
1.191889032e-08
1.191889032e-08
1.191889032e-08
1.191889032e-08
1.191889032e-08
1.191889032e-08
1.191889032e-08
1.192121944e-08
1.193426405e-08
1.196945972e-08
1.205851374e-08
1.227713114e-08
1.280712344e-08
1.408886768e-08
1.191900351e-08
1.191899439e-08
1.191898605e-08
1.191897621e-08
1.191896817e-08
1.191896209e-08
1.191895766e-08
1.191894912e-08
1.191894262e-08
1.191893748e-08
1.191892735e-08
1.191891868e-08
1.191890527e-08
1.191889789e-08
1.191889588e-08
1.191889265e-08
1.191889032e-08
1.191889032e-08
1.191889032e-08
1.191889032e-08
1.191889032e-08
1.191889032e-08
1.191889032e-08
1.191889032e-08
1.191889032e-08
1.191889032e-08
1.191889032e-08
1.191889032e-08
1.191889032e-08
1.191889032e-08
1.191889032e-08
1.191889032e-08
1.191889032e-08
1.192187998e-08
1.193615451e-08
1.197425868e-08
1.207007575e-08
1.23043674e-08
1.287078652e-08
1.423779844e-08
1.191900715e-08
1.191899853e-08
1.191898929e-08
1.191898173e-08
1.191897239e-08
1.191896646e-08
1.191896009e-08
1.191895076e-08
1.191894402e-08
1.191893859e-08
1.191892842e-08
1.191891884e-08
1.19189051e-08
1.191889739e-08
1.191889548e-08
1.19188917e-08
1.191889032e-08
1.191889032e-08
1.191889032e-08
1.191889032e-08
1.191889032e-08
1.191889032e-08
1.191889032e-08
1.191889032e-08
1.191889032e-08
1.191889032e-08
1.191889032e-08
1.191889032e-08
1.191889032e-08
1.191889032e-08
1.191889032e-08
1.191889032e-08
1.191889032e-08
1.192261203e-08
1.193821314e-08
1.197943449e-08
1.208248346e-08
1.23334978e-08
1.293871502e-08
1.439641297e-08
1.19190131e-08
1.191900444e-08
1.191899436e-08
1.191898583e-08
1.191897672e-08
1.191896872e-08
1.191896162e-08
1.191895294e-08
1.191894641e-08
1.191894056e-08
1.191893096e-08
1.191891835e-08
1.191890637e-08
1.191889716e-08
1.191889478e-08
1.191889036e-08
1.191889032e-08
1.191889032e-08
1.191889032e-08
1.191889032e-08
1.191889032e-08
1.191889032e-08
1.191889032e-08
1.191889032e-08
1.191889032e-08
1.191889032e-08
1.191889032e-08
1.191889032e-08
1.191889032e-08
1.191889032e-08
1.191889032e-08
1.191889032e-08
1.191889032e-08
1.192342227e-08
1.194045244e-08
1.198501661e-08
1.209579682e-08
1.236464785e-08
1.301118076e-08
1.456531641e-08
1.191901822e-08
1.191900934e-08
1.191900115e-08
1.191899233e-08
1.191898188e-08
1.191897184e-08
1.191896375e-08
1.191895604e-08
1.191895029e-08
1.191894239e-08
1.191893233e-08
1.191891836e-08
1.191890581e-08
1.191889645e-08
1.191889367e-08
1.191889032e-08
1.191889032e-08
1.191889032e-08
1.191889032e-08
1.191889032e-08
1.191889032e-08
1.191889032e-08
1.191889032e-08
1.191889032e-08
1.191889032e-08
1.191889032e-08
1.191889032e-08
1.191889032e-08
1.191889032e-08
1.191889032e-08
1.191889032e-08
1.191889032e-08
1.191889032e-08
1.192431749e-08
1.194288527e-08
1.199103084e-08
1.21100746e-08
1.239795027e-08
1.308847095e-08
1.474514441e-08
1.191902252e-08
1.191901456e-08
1.191900504e-08
1.191899756e-08
1.191898701e-08
1.191897586e-08
1.191896766e-08
1.191896011e-08
1.191895322e-08
1.191894335e-08
1.191893331e-08
1.191891863e-08
1.191890673e-08
1.191889602e-08
1.19188928e-08
1.191889032e-08
1.191889032e-08
1.191889032e-08
1.191889032e-08
1.191889032e-08
1.191889032e-08
1.191889032e-08
1.191889032e-08
1.191889032e-08
1.191889032e-08
1.191889032e-08
1.191889032e-08
1.191889032e-08
1.191889032e-08
1.191889032e-08
1.191889032e-08
1.191889032e-08
1.191889032e-08
1.192530448e-08
1.194552467e-08
1.199750945e-08
1.212538079e-08
1.243354407e-08
1.317089188e-08
1.493657544e-08
1.191902814e-08
1.191901972e-08
1.191900965e-08
1.191900174e-08
1.191899082e-08
1.191898035e-08
1.19189715e-08
1.191896208e-08
1.191895504e-08
1.191894557e-08
1.191893358e-08
1.191891966e-08
1.191890684e-08
1.191889593e-08
1.191889237e-08
1.191889032e-08
1.191889032e-08
1.191889032e-08
1.191889032e-08
1.191889032e-08
1.191889032e-08
1.191889032e-08
1.191889032e-08
1.191889032e-08
1.191889032e-08
1.191889032e-08
1.191889032e-08
1.191889032e-08
1.191889032e-08
1.191889032e-08
1.191889032e-08
1.191889032e-08
1.191889032e-08
1.192638971e-08
1.194838597e-08
1.200448303e-08
1.21417846e-08
1.247157523e-08
1.325876673e-08
1.514032712e-08
1.19190347e-08
1.191902589e-08
1.191901537e-08
1.191900519e-08
1.191899245e-08
1.191898159e-08
1.191897379e-08
1.19189649e-08
1.191895546e-08
1.191894687e-08
1.191893388e-08
1.191891849e-08
1.191890572e-08
1.191889545e-08
1.191889162e-08
1.191889032e-08
1.191889032e-08
1.191889032e-08
1.191889032e-08
1.191889032e-08
1.191889032e-08
1.191889032e-08
1.191889032e-08
1.191889032e-08
1.191889032e-08
1.191889032e-08
1.191889032e-08
1.191889032e-08
1.191889032e-08
1.191889032e-08
1.191889032e-08
1.191889032e-08
1.191889032e-08
1.192758204e-08
1.195148675e-08
1.201198745e-08
1.215936069e-08
1.251220248e-08
1.335243907e-08
1.535716058e-08
1.19190424e-08
1.191903164e-08
1.191901949e-08
1.191900768e-08
1.191899464e-08
1.191898347e-08
1.191897462e-08
1.191896584e-08
1.191895739e-08
1.191894764e-08
1.191893298e-08
1.191891751e-08
1.191890344e-08
1.191889432e-08
1.191889034e-08
1.191889032e-08
1.191889032e-08
1.191889032e-08
1.191889032e-08
1.191889032e-08
1.191889032e-08
1.191889032e-08
1.191889032e-08
1.191889032e-08
1.191889032e-08
1.191889032e-08
1.191889032e-08
1.191889032e-08
1.191889032e-08
1.191889032e-08
1.191889032e-08
1.191889032e-08
1.191931329e-08
1.192888986e-08
1.19548446e-08
1.202005693e-08
1.217818511e-08
1.255559458e-08
1.345227424e-08
1.558788027e-08
1.191904898e-08
1.19190375e-08
1.191902561e-08
1.191901303e-08
1.191899766e-08
1.191898583e-08
1.191897728e-08
1.191896813e-08
1.191895783e-08
1.19189485e-08
1.191893348e-08
1.191891733e-08
1.191890242e-08
1.191889343e-08
1.191889032e-08
1.191889032e-08
1.191889032e-08
1.191889032e-08
1.191889032e-08
1.191889032e-08
1.191889032e-08
1.191889032e-08
1.191889032e-08
1.191889032e-08
1.191889032e-08
1.191889032e-08
1.191889032e-08
1.191889032e-08
1.191889032e-08
1.191889032e-08
1.191889032e-08
1.191889032e-08
1.191980015e-08
1.193032068e-08
1.195847714e-08
1.202873072e-08
1.219834063e-08
1.260192573e-08
1.355865788e-08
1.583334218e-08
1.191905292e-08
1.19190414e-08
1.191902951e-08
1.191901707e-08
1.191900091e-08
1.191898823e-08
1.191897849e-08
1.19189686e-08
1.191895928e-08
1.191894966e-08
1.191893516e-08
1.191891782e-08
1.191890013e-08
1.191889239e-08
1.191889032e-08
1.191889032e-08
1.191889032e-08
1.191889032e-08
1.191889032e-08
1.191889032e-08
1.191889032e-08
1.191889032e-08
1.191889032e-08
1.191889032e-08
1.191889032e-08
1.191889032e-08
1.191889032e-08
1.191889032e-08
1.191889032e-08