/*--------------------------------*- C++ -*----------------------------------*\
| =========                 |                                                 |
| \\      /  F ield         | OpenFOAM: The Open Source CFD Toolbox           |
|  \\    /   O peration     | Version:  v2006                                 |
|   \\  /    A nd           | Website:  www.openfoam.com                      |
|    \\/     M anipulation  |                                                 |
\*---------------------------------------------------------------------------*/
FoamFile
{
    version     2.0;
    format      ascii;
    class       volScalarField;
    location    "0.12";
    object      H2O2;
}
// * * * * * * * * * * * * * * * * * * * * * * * * * * * * * * * * * * * * * //

dimensions      [0 0 0 0 0 0 0];


internalField   nonuniform List<scalar> 
168000
(
2.121153065e-11
2.12115134e-11
2.121149833e-11
2.121148375e-11
2.121148322e-11
2.121148322e-11
2.121148356e-11
2.121148439e-11
2.121148879e-11
2.121149757e-11
2.12114848e-11
2.121148493e-11
2.121148386e-11
2.121148323e-11
2.121148441e-11
2.121149083e-11
2.121148853e-11
2.121148378e-11
2.12114865e-11
2.121148564e-11
2.121148951e-11
2.121148342e-11
2.121148329e-11
2.121148535e-11
2.121148322e-11
2.121148322e-11
2.121148322e-11
2.121148322e-11
2.121148322e-11
2.121148322e-11
2.121148322e-11
2.121148322e-11
2.121148322e-11
2.121148322e-11
2.121148322e-11
2.121148322e-11
2.121735234e-11
2.140474022e-11
2.180406307e-11
2.314243713e-11
2.121160861e-11
2.121156649e-11
2.121152192e-11
2.121149568e-11
2.121148534e-11
2.121148322e-11
2.121149376e-11
2.121150569e-11
2.121151604e-11
2.121151795e-11
2.121150086e-11
2.121149908e-11
2.12114891e-11
2.12114857e-11
2.121148835e-11
2.121149621e-11
2.121149357e-11
2.121148667e-11
2.121149019e-11
2.12114937e-11
2.121149531e-11
2.121148513e-11
2.121150136e-11
2.121148322e-11
2.121148322e-11
2.121148322e-11
2.121148322e-11
2.121148322e-11
2.121148322e-11
2.121148322e-11
2.121148322e-11
2.121148322e-11
2.121148322e-11
2.121148322e-11
2.121148322e-11
2.121148322e-11
2.122853711e-11
2.142163189e-11
2.187209785e-11
2.328664929e-11
2.121166087e-11
2.121160464e-11
2.121155664e-11
2.121152112e-11
2.121150575e-11
2.121149958e-11
2.121149898e-11
2.121150344e-11
2.121153254e-11
2.121153323e-11
2.121150636e-11
2.121150324e-11
2.121149002e-11
2.121148701e-11
2.121149137e-11
2.12114978e-11
2.121149509e-11
2.121149069e-11
2.121149259e-11
2.121149457e-11
2.121149318e-11
2.121148784e-11
2.121151037e-11
2.121148322e-11
2.121148322e-11
2.121148322e-11
2.121148322e-11
2.121148322e-11
2.121148322e-11
2.121148322e-11
2.121148322e-11
2.121148322e-11
2.121148322e-11
2.121148322e-11
2.121148322e-11
2.121148322e-11
2.123951778e-11
2.144169323e-11
2.194294923e-11
2.344398546e-11
2.121170434e-11
2.121165238e-11
2.121159163e-11
2.121155585e-11
2.121154346e-11
2.121152737e-11
2.121151337e-11
2.121151074e-11
2.121153987e-11
2.121155044e-11
2.121152425e-11
2.121149965e-11
2.121149199e-11
2.121148923e-11
2.121149636e-11
2.121150023e-11
2.121149935e-11
2.121149716e-11
2.121149348e-11
2.121149864e-11
2.121149747e-11
2.121149235e-11
2.121150994e-11
2.121148322e-11
2.121148322e-11
2.121148322e-11
2.121148322e-11
2.121148322e-11
2.121148322e-11
2.121148322e-11
2.121148322e-11
2.121148322e-11
2.121148322e-11
2.121148322e-11
2.121148322e-11
2.121148322e-11
2.12505793e-11
2.146473552e-11
2.201731779e-11
2.361487875e-11
2.121174948e-11
2.12116957e-11
2.121163251e-11
2.121160071e-11
2.12115593e-11
2.121153766e-11
2.121153179e-11
2.121152473e-11
2.121154225e-11
2.12115621e-11
2.121154871e-11
2.121151421e-11
2.121149506e-11
2.121149241e-11
2.121149853e-11
2.121150166e-11
2.121150382e-11
2.121150232e-11
2.12114954e-11
2.121150114e-11
2.121150011e-11
2.121149339e-11
2.121149808e-11
2.121148322e-11
2.121148322e-11
2.121148322e-11
2.121148322e-11
2.121148322e-11
2.121148322e-11
2.121148322e-11
2.121148322e-11
2.121148322e-11
2.121148322e-11
2.121148322e-11
2.121148322e-11
2.121148322e-11
2.126195995e-11
2.149070362e-11
2.209586196e-11
2.379991867e-11
2.121177841e-11
2.121172831e-11
2.121167473e-11
2.121162296e-11
2.12115867e-11
2.121155312e-11
2.121155164e-11
2.121154921e-11
2.121156088e-11
2.121157323e-11
2.121156115e-11
2.121151152e-11
2.121150049e-11
2.121149576e-11
2.121150171e-11
2.121150384e-11
2.121150848e-11
2.12115049e-11
2.121149873e-11
2.121150268e-11
2.121150012e-11
2.121149281e-11
2.121148322e-11
2.121148322e-11
2.121148322e-11
2.121148322e-11
2.121148322e-11
2.121148322e-11
2.121148322e-11
2.121148322e-11
2.121148322e-11
2.121148322e-11
2.121148322e-11
2.121148322e-11
2.121148322e-11
2.12124364e-11
2.127385405e-11
2.15195848e-11
2.21792147e-11
2.39997724e-11
2.121178502e-11
2.121174721e-11
2.121169074e-11
2.121165935e-11
2.12116032e-11
2.121157317e-11
2.121156265e-11
2.121154784e-11
2.1211559e-11
2.121157885e-11
2.12115717e-11
2.121151763e-11
2.121150212e-11
2.121149973e-11
2.121150378e-11
2.121150789e-11
2.121151217e-11
2.12115068e-11
2.121150173e-11
2.121150153e-11
2.121149795e-11
2.121149065e-11
2.121148322e-11
2.121148322e-11
2.121148322e-11
2.121148322e-11
2.121148322e-11
2.121148322e-11
2.121148322e-11
2.121148322e-11
2.121148322e-11
2.121148322e-11
2.121148322e-11
2.121148322e-11
2.121148322e-11
2.121470193e-11
2.128644447e-11
2.155141062e-11
2.226797456e-11
2.421518954e-11
2.121179879e-11
2.121176094e-11
2.121170563e-11
2.121168343e-11
2.121162788e-11
2.121160144e-11
2.121157513e-11
2.121155402e-11
2.121156532e-11
2.121158292e-11
2.121157848e-11
2.121153586e-11
2.121150605e-11
2.121150589e-11
2.121150854e-11
2.121150882e-11
2.121151448e-11
2.12115113e-11
2.121150429e-11
2.121150274e-11
2.121149746e-11
2.121148512e-11
2.121148322e-11
2.121148322e-11
2.121148322e-11
2.121148322e-11
2.121148322e-11
2.121148322e-11
2.121148322e-11
2.121148322e-11
2.121148322e-11
2.121148322e-11
2.121148322e-11
2.121148322e-11
2.121148322e-11
2.121753205e-11
2.129988258e-11
2.1586224e-11
2.23627281e-11
2.444703184e-11
2.121182874e-11
2.121178018e-11
2.121172861e-11
2.121170213e-11
2.121164419e-11
2.121160634e-11
2.121158852e-11
2.121156131e-11
2.121157232e-11
2.12115975e-11
2.121158043e-11
2.121153613e-11
2.121151173e-11
2.121150877e-11
2.121151085e-11
2.121151056e-11
2.121151433e-11
2.121151245e-11
2.121150889e-11
2.121150567e-11
2.121149584e-11
2.121148322e-11
2.121148322e-11
2.121148322e-11
2.121148322e-11
2.121148322e-11
2.121148322e-11
2.121148322e-11
2.121148322e-11
2.121148322e-11
2.121148322e-11
2.121148322e-11
2.121148322e-11
2.121148322e-11
2.121148322e-11
2.122095964e-11
2.131431177e-11
2.162416306e-11
2.246405081e-11
2.469623947e-11
2.121187748e-11
2.121181732e-11
2.121175835e-11
2.121171264e-11
2.121167358e-11
2.121162231e-11
2.121159887e-11
2.121157227e-11
2.121159165e-11
2.121161003e-11
2.121158091e-11
2.121154636e-11
2.121151407e-11
2.121150999e-11
2.121151077e-11
2.12115124e-11
2.121151518e-11
2.121151292e-11
2.12115101e-11
2.12115082e-11
2.121149597e-11
2.121148322e-11
2.121148322e-11
2.121148322e-11
2.121148322e-11
2.121148322e-11
2.121148322e-11
2.121148322e-11
2.121148322e-11
2.121148322e-11
2.121148322e-11
2.121148322e-11
2.121148322e-11
2.121148322e-11
2.121148322e-11
2.122496533e-11
2.132986644e-11
2.166540115e-11
2.257254465e-11
2.496383986e-11
2.121192281e-11
2.121185919e-11
2.1211801e-11
2.121174197e-11
2.121169246e-11
2.12116421e-11
2.121161841e-11
2.121158696e-11
2.121159322e-11
2.121162141e-11
2.121160037e-11
2.121157546e-11
2.121153149e-11
2.121151405e-11
2.121151326e-11
2.121151374e-11
2.121151574e-11
2.121151434e-11
2.121151406e-11
2.121151035e-11
2.121149339e-11
2.121148322e-11
2.121148322e-11
2.121148322e-11
2.121148322e-11
2.121148322e-11
2.121148322e-11
2.121148322e-11
2.121148322e-11
2.121148322e-11
2.121148322e-11
2.121148322e-11
2.121148322e-11
2.121148322e-11
2.121148322e-11
2.122959446e-11
2.134668919e-11
2.171009677e-11
2.268879965e-11
2.525097622e-11
2.121194631e-11
2.121188736e-11
2.121181569e-11
2.121178396e-11
2.121173359e-11
2.121166684e-11
2.121164298e-11
2.121160625e-11
2.121160479e-11
2.121163385e-11
2.121162114e-11
2.12115941e-11
2.121153507e-11
2.121151692e-11
2.121151908e-11
2.121151655e-11
2.121151873e-11
2.121151805e-11
2.121151519e-11
2.121151145e-11
2.12114935e-11
2.121148322e-11
2.121148322e-11
2.121148322e-11
2.121148322e-11
2.121148322e-11
2.121148322e-11
2.121148322e-11
2.121148322e-11
2.121148322e-11
2.121148322e-11
2.121148322e-11
2.121148322e-11
2.121148322e-11
2.121148322e-11
2.123488176e-11
2.13649054e-11
2.175848451e-11
2.281342891e-11
2.555884215e-11
2.121196302e-11
2.121189652e-11
2.121183437e-11
2.121181103e-11
2.121175994e-11
2.121168991e-11
2.121166795e-11
2.121162516e-11
2.121162533e-11
2.121164414e-11
2.121164026e-11
2.12116051e-11
2.12115549e-11
2.121152142e-11
2.121152294e-11
2.121152023e-11
2.121151937e-11
2.121151883e-11
2.121151608e-11
2.121151135e-11
2.121149098e-11
2.121148322e-11
2.121148322e-11
2.121148322e-11
2.121148322e-11
2.121148322e-11
2.121148322e-11
2.121148322e-11
2.121148322e-11
2.121148322e-11
2.121148322e-11
2.121148322e-11
2.121148322e-11
2.121148322e-11
2.121148322e-11
2.124086485e-11
2.138465741e-11
2.181078384e-11
2.294708053e-11
2.588874842e-11
2.121197325e-11
2.121191621e-11
2.121185112e-11
2.121182944e-11
2.121177839e-11
2.121171088e-11
2.121168132e-11
2.121164604e-11
2.121164214e-11
2.121166569e-11
2.121165265e-11
2.121160415e-11
2.121156777e-11
2.121152752e-11
2.121152344e-11
2.121152257e-11
2.121152306e-11
2.121152105e-11
2.121151782e-11
2.121150866e-11
2.121148527e-11
2.121148322e-11
2.121148322e-11
2.121148322e-11
2.121148322e-11
2.121148322e-11
2.121148322e-11
2.121148322e-11
2.121148322e-11
2.121148322e-11
2.121148322e-11
2.121148322e-11
2.121148322e-11
2.121148322e-11
2.121148322e-11
2.124758033e-11
2.140606635e-11
2.186725931e-11
2.309042672e-11
2.624209723e-11
2.121199175e-11
2.121192487e-11
2.121186305e-11
2.121183689e-11
2.121178337e-11
2.121173575e-11
2.121171244e-11
2.121167437e-11
2.121166347e-11
2.121168208e-11
2.121165882e-11
2.121160877e-11
2.121157187e-11
2.121152939e-11
2.121152539e-11
2.121152449e-11
2.121152463e-11
2.121151979e-11
2.12115157e-11
2.121150215e-11
2.121148322e-11
2.121148322e-11
2.121148322e-11
2.121148322e-11
2.121148322e-11
2.121148322e-11
2.121148322e-11
2.121148322e-11
2.121148322e-11
2.121148322e-11
2.121148322e-11
2.121148322e-11
2.121148322e-11
2.121148322e-11
2.121148322e-11
2.12550751e-11
2.142928093e-11
2.192818765e-11
2.324417732e-11
2.66203976e-11
2.12120088e-11
2.121194206e-11
2.121187698e-11
2.121183397e-11
2.12118061e-11
2.12117645e-11
2.121173365e-11
2.121171374e-11
2.121169296e-11
2.121169857e-11
2.121165391e-11
2.121161763e-11
2.12115646e-11
2.121153423e-11
2.121153093e-11
2.121152738e-11
2.121152709e-11
2.121151925e-11
2.121151542e-11
2.121149511e-11
2.121148322e-11
2.121148322e-11
2.121148322e-11
2.121148322e-11
2.121148322e-11
2.121148322e-11
2.121148322e-11
2.121148322e-11
2.121148322e-11
2.121148322e-11
2.121148322e-11
2.121148322e-11
2.121148322e-11
2.121148322e-11
2.121148322e-11
2.126341888e-11
2.145444879e-11
2.199388851e-11
2.340905677e-11
2.702523993e-11
2.121202489e-11
2.121196154e-11
2.121190045e-11
2.121184597e-11
2.121181183e-11
2.121176866e-11
2.121174766e-11
2.121172998e-11
2.12117318e-11
2.12117163e-11
2.121166087e-11
2.121162546e-11
2.121156976e-11
2.121153488e-11
2.121153229e-11
2.121153128e-11
2.12115272e-11
2.121151959e-11
2.121151359e-11
2.121148879e-11
2.121148322e-11
2.121148322e-11
2.121148322e-11
2.121148322e-11
2.121148322e-11
2.121148322e-11
2.121148322e-11
2.121148322e-11
2.121148322e-11
2.121148322e-11
2.121148322e-11
2.121148322e-11
2.121148322e-11
2.121148322e-11
2.121148322e-11
2.127266867e-11
2.14817401e-11
2.206467469e-11
2.358585601e-11
2.74583371e-11
2.121204062e-11
2.121198739e-11
2.121193798e-11
2.121186171e-11
2.121181287e-11
2.121177674e-11
2.121177292e-11
2.121176116e-11
2.121175807e-11
2.1211736e-11
2.121168099e-11
2.121162552e-11
2.12115877e-11
2.121153815e-11
2.121153532e-11
2.121153209e-11
2.121152969e-11
2.121152186e-11
2.121151298e-11
2.121148322e-11
2.121148322e-11
2.121148322e-11
2.121148322e-11
2.121148322e-11
2.121148322e-11
2.121148322e-11
2.121148322e-11
2.121148322e-11
2.121148322e-11
2.121148322e-11
2.121148322e-11
2.121148322e-11
2.121148322e-11
2.121148322e-11
2.121148322e-11
2.128289655e-11
2.151130728e-11
2.214091648e-11
2.377539439e-11
2.79215239e-11
2.121207679e-11
2.121201983e-11
2.12119654e-11
2.121188619e-11
2.121182889e-11
2.121179282e-11
2.121177938e-11
2.121176925e-11
2.121177313e-11
2.121174644e-11
2.121168249e-11
2.121163033e-11
2.121159972e-11
2.121153964e-11
2.121153589e-11
2.121153331e-11
2.121153154e-11
2.121152076e-11
2.12115097e-11
2.121148322e-11
2.121148322e-11
2.121148322e-11
2.121148322e-11
2.121148322e-11
2.121148322e-11
2.121148322e-11
2.121148322e-11
2.121148322e-11
2.121148322e-11
2.121148322e-11
2.121148322e-11
2.121148322e-11
2.121148322e-11
2.121148322e-11
2.121269882e-11
2.129416614e-11
2.15433319e-11
2.222299505e-11
2.397855245e-11
2.84167263e-11
2.12121102e-11
2.121205689e-11
2.121199507e-11
2.121191576e-11
2.121185482e-11
2.121181621e-11
2.12118072e-11
2.121179256e-11
2.12117809e-11
2.121176114e-11
2.121169647e-11
2.121164271e-11
2.121161027e-11
2.121154394e-11
2.121153859e-11
2.12115367e-11
2.121153342e-11
2.121152165e-11
2.121150471e-11
2.121148322e-11
2.121148322e-11
2.121148322e-11
2.121148322e-11
2.121148322e-11
2.121148322e-11
2.121148322e-11
2.121148322e-11
2.121148322e-11
2.121148322e-11
2.121148322e-11
2.121148322e-11
2.121148322e-11
2.121148322e-11
2.121148322e-11
2.121608479e-11
2.130655883e-11
2.157800427e-11
2.231131515e-11
2.419625314e-11
2.894602507e-11
2.121214318e-11
2.121208402e-11
2.121201169e-11
2.121196013e-11
2.121188612e-11
2.121185165e-11
2.121181587e-11
2.121178879e-11
2.121177639e-11
2.121177359e-11
2.121172325e-11
2.121165896e-11
2.12116152e-11
2.121154777e-11
2.12115414e-11
2.121153805e-11
2.121153338e-11
2.121151903e-11
2.121149785e-11
2.121148322e-11
2.121148322e-11
2.121148322e-11
2.121148322e-11
2.121148322e-11
2.121148322e-11
2.121148322e-11
2.121148322e-11
2.121148322e-11
2.121148322e-11
2.121148322e-11
2.121148322e-11
2.121148322e-11
2.121148322e-11
2.121148322e-11
2.121998366e-11
2.132015279e-11
2.16155057e-11
2.240630753e-11
2.44294775e-11
2.951160889e-11
2.121217358e-11
2.121210406e-11
2.121203508e-11
2.121199285e-11
2.121191654e-11
2.121186354e-11
2.121182894e-11
2.121179459e-11
2.121178538e-11
2.121178217e-11
2.121173853e-11
2.121165714e-11
2.121161209e-11
2.121154773e-11
2.121154355e-11
2.121153705e-11
2.12115299e-11
2.121151554e-11
2.121149278e-11
2.121148322e-11
2.121148322e-11
2.121148322e-11
2.121148322e-11
2.121148322e-11
2.121148322e-11
2.121148322e-11
2.121148322e-11
2.121148322e-11
2.121148322e-11
2.121148322e-11
2.121148322e-11
2.121148322e-11
2.121148322e-11
2.121148322e-11
2.122443307e-11
2.133504824e-11
2.165606283e-11
2.250844001e-11
2.467927226e-11
3.011583128e-11
2.121218448e-11
2.121212505e-11
2.121206638e-11
2.121202083e-11
2.12119573e-11
2.121188575e-11
2.121184817e-11
2.121180979e-11
2.121180913e-11
2.121179114e-11
2.121174535e-11
2.121165858e-11
2.121159927e-11
2.121154665e-11
2.121154313e-11
2.121153631e-11
2.121152918e-11
2.121151179e-11
2.121148654e-11
2.121148322e-11
2.121148322e-11
2.121148322e-11
2.121148322e-11
2.121148322e-11
2.121148322e-11
2.121148322e-11
2.121148322e-11
2.121148322e-11
2.121148322e-11
2.121148322e-11
2.121148322e-11
2.121148322e-11
2.121148322e-11
2.121148322e-11
2.122947598e-11
2.135135067e-11
2.169989513e-11
2.261818921e-11
2.494675045e-11
3.076117195e-11
2.121220354e-11
2.121213164e-11
2.121207672e-11
2.121203447e-11
2.121197849e-11
2.121190954e-11
2.121186354e-11
2.121182903e-11
2.121181618e-11
2.121179238e-11
2.121174592e-11
2.121166325e-11
2.121160217e-11
2.121154701e-11
2.121154522e-11
2.121153728e-11
2.121152877e-11
2.12115074e-11
2.121148322e-11
2.121148322e-11
2.121148322e-11
2.121148322e-11
2.121148322e-11
2.121148322e-11
2.121148322e-11
2.121148322e-11
2.121148322e-11
2.121148322e-11
2.121148322e-11
2.121148322e-11
2.121148322e-11
2.121148322e-11
2.121148322e-11
2.121148322e-11
2.123514788e-11
2.136916238e-11
2.174722949e-11
2.273608762e-11
2.523307994e-11
3.14502593e-11
2.12122102e-11
2.121214375e-11
2.121208734e-11
2.121202665e-11
2.121198938e-11
2.12119364e-11
2.121189276e-11
2.121186342e-11
2.121184438e-11
2.121179836e-11
2.121174041e-11
2.12116746e-11
2.121160044e-11
2.121154761e-11
2.121154693e-11
2.121153978e-11
2.121152717e-11
2.121150367e-11
2.121148322e-11
2.121148322e-11
2.121148322e-11
2.121148322e-11
2.121148322e-11
2.121148322e-11
2.121148322e-11
2.121148322e-11
2.121148322e-11
2.121148322e-11
2.121148322e-11
2.121148322e-11
2.121148322e-11
2.121148322e-11
2.121148322e-11
2.121148322e-11
2.124150525e-11
2.138859207e-11
2.17983286e-11
2.286271496e-11
2.55395169e-11
3.21859078e-11
2.121222432e-11
2.121215393e-11
2.121208658e-11
2.121202842e-11
2.121198226e-11
2.121193612e-11
2.121190069e-11
2.121187029e-11
2.12118654e-11
2.121182168e-11
2.121174557e-11
2.121167908e-11
2.121161429e-11
2.121154804e-11
2.121154479e-11
2.121154054e-11
2.12115244e-11
2.121149869e-11
2.121148322e-11
2.121148322e-11
2.121148322e-11
2.121148322e-11
2.121148322e-11
2.121148322e-11
2.121148322e-11
2.121148322e-11
2.121148322e-11
2.121148322e-11
2.121148322e-11
2.121148322e-11
2.121148322e-11
2.121148322e-11
2.121148322e-11
2.121148322e-11
2.124860428e-11
2.14097712e-11
2.185345806e-11
2.299863397e-11
2.586737632e-11
3.297109073e-11
2.121223658e-11
2.121216905e-11
2.121210132e-11
2.121204429e-11
2.121199573e-11
2.121195026e-11
2.121191998e-11
2.121188204e-11
2.121188161e-11
2.121183682e-11
2.121176338e-11
2.121170278e-11
2.121162587e-11
2.121154904e-11
2.121154428e-11
2.121153878e-11
2.121152173e-11
2.121149482e-11
2.121148322e-11
2.121148322e-11
2.121148322e-11
2.121148322e-11
2.121148322e-11
2.121148322e-11
2.121148322e-11
2.121148322e-11
2.121148322e-11
2.121148322e-11
2.121148322e-11
2.121148322e-11
2.121148322e-11
2.121148322e-11
2.121148322e-11
2.121148322e-11
2.125650991e-11
2.143282541e-11
2.191290414e-11
2.314448239e-11
2.621807631e-11
3.380897007e-11
2.121226873e-11
2.121220061e-11
2.121213393e-11
2.121208014e-11
2.121203216e-11
2.121197976e-11
2.12119395e-11
2.121189878e-11
2.121189546e-11
2.121185026e-11
2.121177123e-11
2.121171231e-11
2.121162749e-11
2.121154947e-11
2.121154416e-11
2.121153966e-11
2.12115194e-11
2.121148815e-11
2.121148322e-11
2.121148322e-11
2.121148322e-11
2.121148322e-11
2.121148322e-11
2.121148322e-11
2.121148322e-11
2.121148322e-11
2.121148322e-11
2.121148322e-11
2.121148322e-11
2.121148322e-11
2.121148322e-11
2.121148322e-11
2.121148322e-11
2.121148322e-11
2.126527594e-11
2.145787956e-11
2.197697537e-11
2.330095629e-11
2.659310787e-11
3.470291561e-11
2.12122979e-11
2.121223815e-11
2.121218132e-11
2.121213789e-11
2.121206886e-11
2.121201797e-11
2.121197441e-11
2.12119184e-11
2.121190631e-11
2.121186445e-11
2.121178728e-11
2.121171012e-11
2.121161707e-11
2.121155026e-11
2.12115455e-11
2.12115395e-11
2.121151937e-11
2.121148515e-11
2.121148322e-11
2.121148322e-11
2.121148322e-11
2.121148322e-11
2.121148322e-11
2.121148322e-11
2.121148322e-11
2.121148322e-11
2.121148322e-11
2.121148322e-11
2.121148322e-11
2.121148322e-11
2.121148322e-11
2.121148322e-11
2.121148322e-11
2.121148322e-11
2.127496362e-11
2.148508075e-11
2.20460015e-11
2.346875757e-11
2.69940691e-11
3.565647607e-11
2.121233536e-11
2.121227469e-11
2.121222776e-11
2.121218444e-11
2.121212026e-11
2.121203985e-11
2.121199002e-11
2.121193649e-11
2.121190651e-11
2.121187035e-11
2.121181077e-11
2.12117247e-11
2.121161883e-11
2.121154994e-11
2.121154371e-11
2.121153772e-11
2.121151704e-11
2.121148322e-11
2.121148322e-11
2.121148322e-11
2.121148322e-11
2.121148322e-11
2.121148322e-11
2.121148322e-11
2.121148322e-11
2.121148322e-11
2.121148322e-11
2.121148322e-11
2.121148322e-11
2.121148322e-11
2.121148322e-11
2.121148322e-11
2.121148322e-11
2.121148322e-11
2.128565563e-11
2.151460657e-11
2.212034621e-11
2.364866023e-11
2.742263706e-11
3.667346631e-11
2.121238503e-11
2.121231608e-11
2.121225655e-11
2.121222175e-11
2.121215288e-11
2.121206328e-11
2.12120079e-11
2.121196567e-11
2.121192125e-11
2.121189125e-11
2.121182804e-11
2.121172531e-11
2.121163537e-11
2.121155057e-11
2.12115426e-11
2.121153291e-11
2.121151266e-11
2.121148322e-11
2.121148322e-11
2.121148322e-11
2.121148322e-11
2.121148322e-11
2.121148322e-11
2.121148322e-11
2.121148322e-11
2.121148322e-11
2.121148322e-11
2.121148322e-11
2.121148322e-11
2.121148322e-11
2.121148322e-11
2.121148322e-11
2.121148322e-11
2.121148322e-11
2.129740924e-11
2.154661449e-11
2.220036229e-11
2.384147218e-11
2.78806198e-11
3.775787505e-11
2.121243012e-11
2.121235553e-11
2.121228916e-11
2.121224984e-11
2.12121765e-11
2.12120918e-11
2.121202796e-11
2.121197885e-11
2.121194908e-11
2.121190905e-11
2.121183836e-11
2.121173185e-11
2.121165073e-11
2.121155237e-11
2.121154167e-11
2.121152864e-11
2.12115069e-11
2.121148322e-11
2.121148322e-11
2.121148322e-11
2.121148322e-11
2.121148322e-11
2.121148322e-11
2.121148322e-11
2.121148322e-11
2.121148322e-11
2.121148322e-11
2.121148322e-11
2.121148322e-11
2.121148322e-11
2.121148322e-11
2.121148322e-11
2.121148322e-11
2.121483446e-11
2.131032225e-11
2.158128554e-11
2.22864386e-11
2.404806365e-11
2.836992048e-11
3.891396377e-11
2.121246993e-11
2.121239589e-11
2.121232769e-11
2.121227566e-11
2.12122049e-11
2.121213005e-11
2.121206273e-11
2.121200392e-11
2.121196187e-11
2.121192156e-11
2.121184122e-11
2.121174617e-11
2.121165719e-11
2.121155602e-11
2.121154363e-11
2.121152651e-11
2.121150065e-11
2.121148322e-11
2.121148322e-11
2.121148322e-11
2.121148322e-11
2.121148322e-11
2.121148322e-11
2.121148322e-11
2.121148322e-11
2.121148322e-11
2.121148322e-11
2.121148322e-11
2.121148322e-11
2.121148322e-11
2.121148322e-11
2.121148322e-11
2.121148322e-11
2.121929501e-11
2.13244763e-11
2.161881957e-11
2.237900402e-11
2.426934991e-11
2.889256103e-11
4.014626671e-11
2.121252265e-11
2.121244763e-11
2.121237973e-11
2.1212286e-11
2.121220974e-11
2.121214182e-11
2.121209533e-11
2.121204013e-11
2.121199154e-11
2.121193304e-11
2.121184517e-11
2.121174152e-11
2.121165317e-11
2.12115565e-11
2.121154276e-11
2.121152243e-11
2.121149303e-11
2.121148322e-11
2.121148322e-11
2.121148322e-11
2.121148322e-11
2.121148322e-11
2.121148322e-11
2.121148322e-11
2.121148322e-11
2.121148322e-11
2.121148322e-11
2.121148322e-11
2.121148322e-11
2.121148322e-11
2.121148322e-11
2.121148322e-11
2.121148322e-11
2.122433235e-11
2.133998088e-11
2.165942123e-11
2.247851897e-11
2.45063027e-11
2.945067738e-11
4.145956278e-11
2.121258927e-11
2.121250843e-11
2.121241881e-11
2.121231245e-11
2.121223044e-11
2.121216177e-11
2.121211245e-11
2.121205421e-11
2.121200658e-11
2.121193951e-11
2.121184085e-11
2.121174074e-11
2.121163412e-11
2.121155248e-11
2.121153789e-11
2.121151638e-11
2.121148349e-11
2.121148322e-11
2.121148322e-11
2.121148322e-11
2.121148322e-11
2.121148322e-11
2.121148322e-11
2.121148322e-11
2.121148322e-11
2.121148322e-11
2.121148322e-11
2.121148322e-11
2.121148322e-11
2.121148322e-11
2.121148322e-11
2.121148322e-11
2.121148322e-11
2.12299963e-11
2.135692476e-11
2.170330018e-11
2.258543963e-11
2.475994094e-11
3.004656553e-11
4.285893541e-11
2.121264496e-11
2.121255027e-11
2.121245255e-11
2.121234672e-11
2.121226316e-11
2.121219289e-11
2.121215039e-11
2.121208291e-11
2.121200933e-11
2.121195178e-11
2.121185131e-11
2.121175482e-11
2.121162703e-11
2.121155084e-11
2.121153533e-11
2.121151013e-11
2.121148322e-11
2.121148322e-11
2.121148322e-11
2.121148322e-11
2.121148322e-11
2.121148322e-11
2.121148322e-11
2.121148322e-11
2.121148322e-11
2.121148322e-11
2.121148322e-11
2.121148322e-11
2.121148322e-11
2.121148322e-11
2.121148322e-11
2.121148322e-11
2.121148322e-11
2.123631842e-11
2.137541213e-11
2.175070081e-11
2.270027705e-11
2.503137764e-11
3.068264502e-11
4.434978564e-11
2.121268856e-11
2.121258912e-11
2.121249786e-11
2.121239119e-11
2.121230294e-11
2.121223441e-11
2.121218236e-11
2.121208934e-11
2.121201711e-11
2.121195862e-11
2.121185104e-11
2.121175894e-11
2.121162015e-11
2.121154495e-11
2.121152855e-11
2.121150221e-11
2.121148322e-11
2.121148322e-11
2.121148322e-11
2.121148322e-11
2.121148322e-11
2.121148322e-11
2.121148322e-11
2.121148322e-11
2.121148322e-11
2.121148322e-11
2.121148322e-11
2.121148322e-11
2.121148322e-11
2.121148322e-11
2.121148322e-11
2.121148322e-11
2.121148322e-11
2.124336178e-11
2.139556996e-11
2.180187176e-11
2.28235619e-11
2.532179579e-11
3.136147956e-11
4.593782299e-11
2.121272762e-11
2.121263337e-11
2.121253251e-11
2.12124486e-11
2.121234718e-11
2.121227982e-11
2.121220818e-11
2.121210721e-11
2.121203236e-11
2.121197046e-11
2.121186269e-11
2.121176129e-11
2.121161901e-11
2.12115409e-11
2.121152528e-11
2.121149449e-11
2.121148322e-11
2.121148322e-11
2.121148322e-11
2.121148322e-11
2.121148322e-11
2.121148322e-11
2.121148322e-11
2.121148322e-11
2.121148322e-11
2.121148322e-11
2.121148322e-11
2.121148322e-11
2.121148322e-11
2.121148322e-11
2.121148322e-11
2.121148322e-11
2.121148322e-11
2.125116748e-11
2.141752096e-11
2.185706112e-11
2.295586433e-11
2.563241101e-11
3.208579592e-11
4.762911751e-11
2.121279074e-11
2.121269541e-11
2.121258578e-11
2.121249195e-11
2.121239246e-11
2.121230418e-11
2.121222509e-11
2.121213034e-11
2.121205752e-11
2.121199143e-11
2.121188902e-11
2.121175727e-11
2.121163251e-11
2.1211539e-11
2.121151963e-11
2.121148356e-11
2.121148322e-11
2.121148322e-11
2.121148322e-11
2.121148322e-11
2.121148322e-11
2.121148322e-11
2.121148322e-11
2.121148322e-11
2.121148322e-11
2.121148322e-11
2.121148322e-11
2.121148322e-11
2.121148322e-11
2.121148322e-11
2.121148322e-11
2.121148322e-11
2.121148322e-11
2.125980708e-11
2.144139848e-11
2.191658274e-11
2.309782368e-11
2.59645616e-11
3.28584926e-11
4.9430122e-11
2.121284516e-11
2.121274713e-11
2.121265642e-11
2.121255919e-11
2.121244608e-11
2.121233701e-11
2.12122478e-11
2.121216262e-11
2.12120973e-11
2.12120109e-11
2.121190336e-11
2.121175809e-11
2.121162756e-11
2.121153323e-11
2.121151056e-11
2.121148322e-11
2.121148322e-11
2.121148322e-11
2.121148322e-11
2.121148322e-11
2.121148322e-11
2.121148322e-11
2.121148322e-11
2.121148322e-11
2.121148322e-11
2.121148322e-11
2.121148322e-11
2.121148322e-11
2.121148322e-11
2.121148322e-11
2.121148322e-11
2.121148322e-11
2.121148322e-11
2.126935268e-11
2.146733954e-11
2.198071202e-11
2.325006658e-11
2.631966276e-11
3.368263191e-11
5.134761421e-11
2.121289126e-11
2.121280244e-11
2.121269808e-11
2.121261379e-11
2.121249897e-11
2.121237884e-11
2.121228817e-11
2.121220429e-11
2.121212759e-11
2.121202114e-11
2.121191379e-11
2.12117613e-11
2.121163722e-11
2.121152974e-11
2.121150341e-11
2.121148322e-11
2.121148322e-11
2.121148322e-11
2.121148322e-11
2.121148322e-11
2.121148322e-11
2.121148322e-11
2.121148322e-11
2.121148322e-11
2.121148322e-11
2.121148322e-11
2.121148322e-11
2.121148322e-11
2.121148322e-11
2.121148322e-11
2.121148322e-11
2.121148322e-11
2.121148322e-11
2.12798769e-11
2.149548331e-11
2.204979302e-11
2.341327531e-11
2.669919675e-11
3.456148003e-11
5.338882863e-11
2.121295106e-11
2.121285724e-11
2.121274695e-11
2.121265804e-11
2.121253912e-11
2.121242531e-11
2.121232802e-11
2.121222524e-11
2.121214673e-11
2.121204413e-11
2.121191687e-11
2.121177222e-11
2.121163878e-11
2.121152896e-11
2.121149996e-11
2.121148322e-11
2.121148322e-11
2.121148322e-11
2.121148322e-11
2.121148322e-11
2.121148322e-11
2.121148322e-11
2.121148322e-11
2.121148322e-11
2.121148322e-11
2.121148322e-11
2.121148322e-11
2.121148322e-11
2.121148322e-11
2.121148322e-11
2.121148322e-11
2.121148322e-11
2.121148322e-11
2.129144867e-11
2.152599306e-11
2.212415178e-11
2.358818781e-11
2.710472005e-11
3.549848281e-11
5.556141721e-11
2.121302074e-11
2.121292256e-11
2.121280743e-11
2.121269502e-11
2.121255771e-11
2.12124396e-11
2.121235235e-11
2.121225469e-11
2.121215179e-11
2.121205806e-11
2.12119208e-11
2.121176094e-11
2.12116279e-11
2.12115251e-11
2.121149381e-11
2.121148322e-11
2.121148322e-11
2.121148322e-11
2.121148322e-11
2.121148322e-11
2.121148322e-11
2.121148322e-11
2.121148322e-11
2.121148322e-11
2.121148322e-11
2.121148322e-11
2.121148322e-11
2.121148322e-11
2.121148322e-11
2.121148322e-11
2.121148322e-11
2.121148322e-11
2.121148322e-11
2.130416235e-11
2.155905648e-11
2.220417078e-11
2.377560035e-11
2.753792536e-11
3.649730375e-11
5.787349578e-11
2.121310237e-11
2.121298333e-11
2.12128511e-11
2.121272241e-11
2.121258171e-11
2.121246004e-11
2.121236221e-11
2.121226531e-11
2.121217218e-11
2.121206655e-11
2.121191257e-11
2.121175158e-11
2.12116059e-11
2.121151587e-11
2.121148338e-11
2.121148322e-11
2.121148322e-11
2.121148322e-11
2.121148322e-11
2.121148322e-11
2.121148322e-11
2.121148322e-11
2.121148322e-11
2.121148322e-11
2.121148322e-11
2.121148322e-11
2.121148322e-11
2.121148322e-11
2.121148322e-11
2.121148322e-11
2.121148322e-11
2.121148322e-11
2.121599334e-11
2.131810754e-11
2.159486095e-11
2.229021501e-11
2.397632376e-11
2.800061198e-11
3.756183855e-11
6.033364218e-11
2.12131723e-11
2.121304526e-11
2.121291498e-11
2.121277822e-11
2.121261395e-11
2.121248566e-11
2.121239066e-11
2.12122896e-11
2.121217767e-11
2.121207598e-11
2.121191782e-11
2.121175048e-11
2.12115961e-11
2.121150861e-11
2.121148322e-11
2.121148322e-11
2.121148322e-11
2.121148322e-11
2.121148322e-11
2.121148322e-11
2.121148322e-11
2.121148322e-11
2.121148322e-11
2.121148322e-11
2.121148322e-11
2.121148322e-11
2.121148322e-11
2.121148322e-11
2.121148322e-11
2.121148322e-11
2.121148322e-11
2.121148322e-11
2.122118468e-11
2.133336427e-11
2.163359442e-11
2.238270303e-11
2.419124046e-11
2.849463748e-11
3.869619919e-11
6.295098373e-11
2.121321446e-11
2.12130868e-11
2.121295604e-11
2.121282063e-11
2.121264831e-11
2.121251127e-11
2.121240375e-11
2.121229526e-11
2.121219303e-11
2.121208843e-11
2.121193565e-11
2.121175604e-11
2.121157386e-11
2.121150012e-11
2.121148322e-11
2.121148322e-11
2.121148322e-11
2.121148322e-11
2.121148322e-11
2.121148322e-11
2.121148322e-11
2.121148322e-11
2.121148322e-11
2.121148322e-11
2.121148322e-11
2.121148322e-11
2.121148322e-11
2.121148322e-11
2.121148322e-11