/*--------------------------------*- C++ -*----------------------------------*\
| =========                 |                                                 |
| \\      /  F ield         | OpenFOAM: The Open Source CFD Toolbox           |
|  \\    /   O peration     | Version:  v2006                                 |
|   \\  /    A nd           | Website:  www.openfoam.com                      |
|    \\/     M anipulation  |                                                 |
\*---------------------------------------------------------------------------*/
FoamFile
{
    version     2.0;
    format      ascii;
    class       volScalarField;
    location    "0.12";
    object      HCO;
}
// * * * * * * * * * * * * * * * * * * * * * * * * * * * * * * * * * * * * * //

dimensions      [0 0 0 0 0 0 0];


internalField   nonuniform List<scalar> 
168000
(
1.188879033e-23
1.940158253e-23
9.736243356e-25
3.502214339e-26
8.911545785e-28
8.911545785e-28
5.912428934e-24
2.005789433e-23
3.6747601e-23
7.433247583e-23
2.723619021e-23
2.93474537e-23
1.097946132e-23
2.120175038e-25
2.048014703e-23
5.370597092e-23
4.13582497e-23
9.71270322e-24
5.195503856e-23
4.159278196e-23
2.186002317e-23
3.378912743e-24
1.26764925e-24
9.392843488e-24
8.911545785e-28
8.911545785e-28
8.911545785e-28
8.911545785e-28
8.911545785e-28
8.911545785e-28
8.911545785e-28
8.911545785e-28
8.911545785e-28
8.911545785e-28
8.911545785e-28
8.911545785e-28
3.778650683e-22
1.244223101e-20
3.815134713e-20
1.243182538e-19
4.467233082e-23
3.333686788e-23
2.492453338e-24
8.029693916e-25
1.374151098e-25
8.911545785e-28
7.682113595e-23
1.276494339e-22
1.73958751e-22
1.932224453e-22
1.399586395e-22
1.411059391e-22
1.011304124e-22
4.26484137e-23
8.825170514e-23
1.32718422e-22
1.327588934e-22
5.932739529e-23
1.199206575e-22
1.304535691e-22
1.080507701e-22
3.293660164e-23
8.046586504e-23
8.911545785e-28
8.911545785e-28
8.911545785e-28
8.911545785e-28
8.911545785e-28
8.911545785e-28
8.911545785e-28
8.911545785e-28
8.911545785e-28
8.911545785e-28
8.911545785e-28
8.911545785e-28
8.911545785e-28
1.09796067e-21
1.352974671e-20
4.253154758e-20
1.336028896e-19
4.425102443e-23
2.170003016e-23
4.728033105e-24
2.441256854e-24
1.451458179e-24
1.788079777e-23
8.493998978e-23
1.388625363e-22
2.761931448e-22
2.926439345e-22
1.983660358e-22
2.082611836e-22
1.169648886e-22
6.523893307e-23
1.401887871e-22
2.23686088e-22
2.043711972e-22
1.285768378e-22
1.61301422e-22
1.952927642e-22
1.714354867e-22
7.959552482e-23
1.308953162e-22
8.911545785e-28
8.911545785e-28
8.911545785e-28
8.911545785e-28
8.911545785e-28
8.911545785e-28
8.911545785e-28
8.911545785e-28
8.911545785e-28
8.911545785e-28
8.911545785e-28
8.911545785e-28
8.911545785e-28
1.804915841e-21
1.482133158e-20
4.709308597e-20
1.437324722e-19
4.242205132e-23
7.083783469e-23
6.980678366e-24
4.676836621e-24
6.866275703e-23
1.099045686e-22
1.643215413e-22
1.736174411e-22
3.250423185e-22
3.888239261e-22
2.880693726e-22
2.418941505e-22
1.509562309e-22
1.034528023e-22
2.261172112e-22
2.928331376e-22
2.776320404e-22
2.398404239e-22
1.765025191e-22
2.653867122e-22
2.45329709e-22
1.57078895e-22
1.371779102e-22
8.911545785e-28
8.911545785e-28
8.911545785e-28
8.911545785e-28
8.911545785e-28
8.911545785e-28
8.911545785e-28
8.911545785e-28
8.911545785e-28
8.911545785e-28
8.911545785e-28
8.911545785e-28
8.911545785e-28
2.517075988e-21
1.630483501e-20
5.188106641e-20
1.547348865e-19
6.488967387e-23
1.072802677e-22
5.609703275e-23
8.602092004e-23
5.958675292e-23
1.006813155e-22
1.905377685e-22
2.235266313e-22
3.52328814e-22
4.667680647e-22
4.272040656e-22
3.288591851e-22
2.037378182e-22
1.581345267e-22
2.63486575e-22
3.173237941e-22
3.544820315e-22
3.287246169e-22
2.09649356e-22
3.084564874e-22
2.907218741e-22
1.750246347e-22
7.857206831e-23
8.911545785e-28
8.911545785e-28
8.911545785e-28
8.911545785e-28
8.911545785e-28
8.911545785e-28
8.911545785e-28
8.911545785e-28
8.911545785e-28
8.911545785e-28
8.911545785e-28
8.911545785e-28
8.911545785e-28
3.249782991e-21
1.797670737e-20
5.693787958e-20
1.666480863e-19
6.738319181e-23
1.323067681e-22
1.372704612e-22
9.628759725e-23
7.207781167e-23
1.077767128e-22
2.0043973e-22
3.039789243e-22
4.275668257e-22
5.265894681e-22
5.140325763e-22
3.644434856e-22
2.972667909e-22
2.157720201e-22
3.181682995e-22
3.549042842e-22
4.347100443e-22
3.730611503e-22
2.668645966e-22
3.348472811e-22
2.909330004e-22
1.651016963e-22
8.911545785e-28
8.911545785e-28
8.911545785e-28
8.911545785e-28
8.911545785e-28
8.911545785e-28
8.911545785e-28
8.911545785e-28
8.911545785e-28
8.911545785e-28
8.911545785e-28
8.911545785e-28
8.911545785e-28
6.136840903e-23
4.015545855e-21
1.983612951e-20
6.230427789e-20
1.795150254e-19
4.929897242e-23
1.257408743e-22
1.40194528e-22
1.770855849e-22
1.105798385e-22
1.43773014e-22
2.308058375e-22
2.895882016e-22
4.179808125e-22
5.732249854e-22
5.729753434e-22
4.195240569e-22
3.253465953e-22
2.841769572e-22
3.538486525e-22
4.245759795e-22
4.982590754e-22
4.057857344e-22
3.185905522e-22
3.152125306e-22
2.535636366e-22
1.279434588e-22
8.911545785e-28
8.911545785e-28
8.911545785e-28
8.911545785e-28
8.911545785e-28
8.911545785e-28
8.911545785e-28
8.911545785e-28
8.911545785e-28
8.911545785e-28
8.911545785e-28
8.911545785e-28
8.911545785e-28
2.072271897e-22
4.826139774e-21
2.188513223e-20
6.801879521e-20
1.93383965e-19
3.630323556e-23
8.939544013e-23
1.100229545e-22
2.097657861e-22
1.672772471e-22
2.257309821e-22
2.86507107e-22
3.005028944e-22
4.268013073e-22
6.115583131e-22
6.169515456e-22
5.151389314e-22
3.929070271e-22
3.901623846e-22
4.35765676e-22
4.40621582e-22
5.37950829e-22
4.832691046e-22
3.627159592e-22
3.359029128e-22
2.451185826e-22
3.272547529e-23
8.911545785e-28
8.911545785e-28
8.911545785e-28
8.911545785e-28
8.911545785e-28
8.911545785e-28
8.911545785e-28
8.911545785e-28
8.911545785e-28
8.911545785e-28
8.911545785e-28
8.911545785e-28
8.911545785e-28
3.894354735e-22
5.691309144e-21
2.412648013e-20
7.41191975e-20
2.08310385e-19
3.823163642e-23
7.506906786e-23
1.056131802e-22
2.134938869e-22
1.843126483e-22
2.100608204e-22
2.669664533e-22
3.123303546e-22
4.609057676e-22
6.579295518e-22
6.54937223e-22
5.425000293e-22
4.906585268e-22
4.397770766e-22
4.754574297e-22
4.706015236e-22
5.354173128e-22
5.031149814e-22
4.418883401e-22
3.863621103e-22
2.172499045e-22
8.911545785e-28
8.911545785e-28
8.911545785e-28
8.911545785e-28
8.911545785e-28
8.911545785e-28
8.911545785e-28
8.911545785e-28
8.911545785e-28
8.911545785e-28
8.911545785e-28
8.911545785e-28
8.911545785e-28
8.911545785e-28
6.101093816e-22
6.620286397e-21
2.656906434e-20
8.064253393e-20
2.243548167e-19
6.808234078e-23
1.052245222e-22
1.357130534e-22
1.853545898e-22
2.539336202e-22
2.304401123e-22
3.088591826e-22
3.372242426e-22
5.345059649e-22
6.963867226e-22
6.677988648e-22
6.003700992e-22
5.309836595e-22
4.606785852e-22
4.741906716e-22
5.02270476e-22
5.499850309e-22
5.111377827e-22
4.625787224e-22
4.298541382e-22
2.19361168e-22
8.911545785e-28
8.911545785e-28
8.911545785e-28
8.911545785e-28
8.911545785e-28
8.911545785e-28
8.911545785e-28
8.911545785e-28
8.911545785e-28
8.911545785e-28
8.911545785e-28
8.911545785e-28
8.911545785e-28
8.911545785e-28
8.68003133e-22
7.62172374e-21
2.92240457e-20
8.762756025e-20
2.415834061e-19
8.930027074e-23
1.668143967e-22
2.152316021e-22
2.219481833e-22
2.606174899e-22
2.57375046e-22
3.359881771e-22
3.674070144e-22
5.251418032e-22
7.467586368e-22
7.52765754e-22
7.330729935e-22
6.353805133e-22
5.305614068e-22
5.170493205e-22
5.252832481e-22
5.59696843e-22
5.356284392e-22
5.307725332e-22
4.670123757e-22
1.750246347e-22
8.911545785e-28
8.911545785e-28
8.911545785e-28
8.911545785e-28
8.911545785e-28
8.911545785e-28
8.911545785e-28
8.911545785e-28
8.911545785e-28
8.911545785e-28
8.911545785e-28
8.911545785e-28
8.911545785e-28
8.911545785e-28
1.166034927e-21
8.704802408e-21
3.210162937e-20
9.511226424e-20
2.600697565e-19
8.47135011e-23
1.745178114e-22
1.999817374e-22
3.264542436e-22
3.64016722e-22
3.105003721e-22
4.135017668e-22
4.130298002e-22
5.515477066e-22
8.062431151e-22
8.647397504e-22
8.312384497e-22
6.83357391e-22
5.799649725e-22
6.1712321e-22
5.736311821e-22
6.112116722e-22
5.993885967e-22
5.501961573e-22
4.858026208e-22
1.769247718e-22
8.911545785e-28
8.911545785e-28
8.911545785e-28
8.911545785e-28
8.911545785e-28
8.911545785e-28
8.911545785e-28
8.911545785e-28
8.911545785e-28
8.911545785e-28
8.911545785e-28
8.911545785e-28
8.911545785e-28
8.911545785e-28
1.506440344e-21
9.87759438e-21
3.521691831e-20
1.031361184e-19
2.798907138e-19
8.59997536e-23
1.50287522e-22
2.032875855e-22
3.742609396e-22
4.220832816e-22
3.622565471e-22
4.660107794e-22
4.613630976e-22
6.00616776e-22
8.651688167e-22
9.48422816e-22
9.024094795e-22
7.927466747e-22
6.574483427e-22
6.8362801e-22
6.369690868e-22
6.221902424e-22
6.12900683e-22
5.656083808e-22
4.8411361e-22
1.336438702e-22
8.911545785e-28
8.911545785e-28
8.911545785e-28
8.911545785e-28
8.911545785e-28
8.911545785e-28
8.911545785e-28
8.911545785e-28
8.911545785e-28
8.911545785e-28
8.911545785e-28
8.911545785e-28
8.911545785e-28
8.911545785e-28
1.891642684e-21
1.114926383e-20
3.858404274e-20
1.117408479e-19
3.011306671e-19
7.572086871e-23
1.574448408e-22
2.098349312e-22
3.865940242e-22
4.443051736e-22
4.004153084e-22
4.780196196e-22
5.161325784e-22
6.580689778e-22
9.134616427e-22
9.980184868e-22
9.132856567e-22
8.688760036e-22
7.623781383e-22
6.922841903e-22
6.772942195e-22
6.857392735e-22
6.511145522e-22
5.955883224e-22
4.378769395e-22
3.525899148e-23
8.911545785e-28
8.911545785e-28
8.911545785e-28
8.911545785e-28
8.911545785e-28
8.911545785e-28
8.911545785e-28
8.911545785e-28
8.911545785e-28
8.911545785e-28
8.911545785e-28
8.911545785e-28
8.911545785e-28
8.911545785e-28
2.323996985e-21
1.252760968e-20
4.222003405e-20
1.209697307e-19
3.238798927e-19
8.048753576e-23
1.291860853e-22
1.925142744e-22
3.603612047e-22
4.071854518e-22
4.466075959e-22
5.727816926e-22
6.037738925e-22
7.252778477e-22
9.546912466e-22
1.027021784e-21
9.609085438e-22
9.213036002e-22
7.946804697e-22
7.258532799e-22
7.1022993e-22
7.127634462e-22
6.293685383e-22
5.59063464e-22
3.25768848e-22
8.911545785e-28
8.911545785e-28
8.911545785e-28
8.911545785e-28
8.911545785e-28
8.911545785e-28
8.911545785e-28
8.911545785e-28
8.911545785e-28
8.911545785e-28
8.911545785e-28
8.911545785e-28
8.911545785e-28
8.911545785e-28
8.911545785e-28
2.806523839e-21
1.402220568e-20
4.614270859e-20
1.308684683e-19
3.482355444e-19
8.305761185e-23
1.387062654e-22
1.776354659e-22
2.873968153e-22
4.393580729e-22
5.233386018e-22
6.286238707e-22
7.314589951e-22
8.237207366e-22
1.011281878e-21
1.010720199e-21
1.018059907e-21
9.233592825e-22
8.778642513e-22
8.210712634e-22
7.600557484e-22
7.549887161e-22
6.200789789e-22
5.542075579e-22
2.045823236e-22
8.911545785e-28
8.911545785e-28
8.911545785e-28
8.911545785e-28
8.911545785e-28
8.911545785e-28
8.911545785e-28
8.911545785e-28
8.911545785e-28
8.911545785e-28
8.911545785e-28
8.911545785e-28
8.911545785e-28
8.911545785e-28
8.911545785e-28
3.343711472e-21
1.564255731e-20
5.037264736e-20
1.414837008e-19
3.743000154e-19
7.820413472e-23
1.376467221e-22
1.997593497e-22
2.57459774e-22
3.926118665e-22
4.859565571e-22
6.288949628e-22
7.791993848e-22
9.650437244e-22
1.079940841e-21
1.039563566e-21
1.057265531e-21
9.531388229e-22
8.890539478e-22
8.445062881e-22
8.271939275e-22
7.568888532e-22
6.259905167e-22
5.227497319e-22
9.585225371e-23
8.911545785e-28
8.911545785e-28
8.911545785e-28
8.911545785e-28
8.911545785e-28
8.911545785e-28
8.911545785e-28
8.911545785e-28
8.911545785e-28
8.911545785e-28
8.911545785e-28
8.911545785e-28
8.911545785e-28
8.911545785e-28
8.911545785e-28
3.939228964e-21
1.739962061e-20
5.492998764e-20
1.528663514e-19
4.021835826e-19
7.164458131e-23
1.508798933e-22
2.640148796e-22
2.557390611e-22
3.468252393e-22
4.795354834e-22
7.00143024e-22
8.794336774e-22
1.062648448e-21
1.155458241e-21
1.122259262e-21
1.058321163e-21
1.025598061e-21
9.454246831e-22
8.966544964e-22
8.411282666e-22
7.997475021e-22
6.650488913e-22
5.121934144e-22
8.911545785e-28
8.911545785e-28
8.911545785e-28
8.911545785e-28
8.911545785e-28
8.911545785e-28
8.911545785e-28
8.911545785e-28
8.911545785e-28
8.911545785e-28
8.911545785e-28
8.911545785e-28
8.911545785e-28
8.911545785e-28
8.911545785e-28
8.911545785e-28
4.597718132e-21
1.930320825e-20
5.983856993e-20
1.650691697e-19
4.320043737e-19
8.974876826e-23
1.819949268e-22
2.813447789e-22
2.817144157e-22
3.543770203e-22
5.018149124e-22
6.976138924e-22
8.868957463e-22
1.117253615e-21
1.194201141e-21
1.13434466e-21
1.081978039e-21
1.09157626e-21
9.709709713e-22
9.065774348e-22
8.620297751e-22
8.316275808e-22
6.460475199e-22
4.558226792e-22
8.911545785e-28
8.911545785e-28
8.911545785e-28
8.911545785e-28
8.911545785e-28
8.911545785e-28
8.911545785e-28
8.911545785e-28
8.911545785e-28
8.911545785e-28
8.911545785e-28
8.911545785e-28
8.911545785e-28
8.911545785e-28
8.911545785e-28
7.826324849e-23
5.323274692e-21
2.136501009e-20
6.51229344e-20
1.781488472e-19
4.638863863e-19
9.652673474e-23
2.289722272e-22
3.238499102e-22
3.26947124e-22
3.915932678e-22
5.407606421e-22
7.629270099e-22
9.472910361e-22
1.141942717e-21
1.256355659e-21
1.188670438e-21
1.135990297e-21
1.163979917e-21
1.04507632e-21
9.530252317e-22
9.205117739e-22
8.639299123e-22
6.614597433e-22
3.69894255e-22
8.911545785e-28
8.911545785e-28
8.911545785e-28
8.911545785e-28
8.911545785e-28
8.911545785e-28
8.911545785e-28
8.911545785e-28
8.911545785e-28
8.911545785e-28
8.911545785e-28
8.911545785e-28
8.911545785e-28
8.911545785e-28
8.911545785e-28
2.96257874e-22
6.121137752e-21
2.359727915e-20
7.080914007e-20
1.92164806e-19
4.979635847e-19
1.051707074e-22
2.414462204e-22
3.009419601e-22
4.316067738e-22
4.577616157e-22
6.233905049e-22
7.575956989e-22
9.049804388e-22
1.100636555e-21
1.29796266e-21
1.299559056e-21
1.234002164e-21
1.217092089e-21
1.110947741e-21
1.001373166e-21
9.437356723e-22
8.632965332e-22
6.162787046e-22
2.518746258e-22
8.911545785e-28
8.911545785e-28
8.911545785e-28
8.911545785e-28
8.911545785e-28
8.911545785e-28
8.911545785e-28
8.911545785e-28
8.911545785e-28
8.911545785e-28
8.911545785e-28
8.911545785e-28
8.911545785e-28
8.911545785e-28
8.911545785e-28
5.472742312e-22
6.996341632e-21
2.601168823e-20
7.692491837e-20
2.071802055e-19
5.343768786e-19
1.19327371e-22
2.271710446e-22
3.125436573e-22
4.947106195e-22
5.221897564e-22
6.281527873e-22
7.960870007e-22
9.04933627e-22
1.114466545e-21
1.331958387e-21
1.367219925e-21
1.238932673e-21
1.240870379e-21
1.110314362e-21
1.038320277e-21
9.264233117e-22
8.0333665e-22
5.563188214e-22
1.644683172e-22
8.911545785e-28
8.911545785e-28
8.911545785e-28
8.911545785e-28
8.911545785e-28
8.911545785e-28
8.911545785e-28
8.911545785e-28
8.911545785e-28
8.911545785e-28
8.911545785e-28
8.911545785e-28
8.911545785e-28
8.911545785e-28
8.911545785e-28
8.337356203e-22
7.95533709e-21
2.862282833e-20
8.350038989e-20
2.232624374e-19
5.732777925e-19
1.069884191e-22
2.476634545e-22
3.423236708e-22
5.400520612e-22
6.282995e-22
6.512469753e-22
7.908049305e-22
9.301005629e-22
1.182462383e-21
1.372710157e-21
1.402785205e-21
1.259217868e-21
1.215645906e-21
1.091735243e-21
1.031141981e-21
9.137557307e-22
7.910913218e-22
4.917141586e-22
5.72161318e-23
8.911545785e-28
8.911545785e-28
8.911545785e-28
8.911545785e-28
8.911545785e-28
8.911545785e-28
8.911545785e-28
8.911545785e-28
8.911545785e-28
8.911545785e-28
8.911545785e-28
8.911545785e-28
8.911545785e-28
8.911545785e-28
8.911545785e-28
1.158406651e-21
9.004916192e-21
3.144482968e-20
9.056623838e-20
2.404831595e-19
6.148259742e-19
1.16839184e-22
2.291569824e-22
3.793775596e-22
5.430336649e-22
6.612142335e-22
6.925321603e-22
8.145110474e-22
9.748788433e-22
1.194695031e-21
1.394033918e-21
1.412497017e-21
1.289596656e-21
1.251799708e-21
1.097857907e-21
1.06703346e-21
9.304347123e-22
7.839130259e-22
4.161309255e-22
8.911545785e-28
8.911545785e-28
8.911545785e-28
8.911545785e-28
8.911545785e-28
8.911545785e-28
8.911545785e-28
8.911545785e-28
8.911545785e-28
8.911545785e-28
8.911545785e-28
8.911545785e-28
8.911545785e-28
8.911545785e-28
8.911545785e-28
8.911545785e-28
1.523574101e-21
1.015166622e-20
3.449230035e-20
9.815674844e-20
2.589175625e-19
6.591906451e-19
1.042271842e-22
2.240475229e-22
3.665992895e-22
4.583954048e-22
6.396198532e-22
7.504217246e-22
8.765485363e-22
1.066906999e-21
1.284641669e-21
1.401570589e-21
1.376805939e-21
1.343962905e-21
1.249374926e-21
1.108203098e-21
1.096591149e-21
9.735044875e-22
7.564666005e-22
3.519485154e-22
8.911545785e-28
8.911545785e-28
8.911545785e-28
8.911545785e-28
8.911545785e-28
8.911545785e-28
8.911545785e-28
8.911545785e-28
8.911545785e-28
8.911545785e-28
8.911545785e-28
8.911545785e-28
8.911545785e-28
8.911545785e-28
8.911545785e-28
8.911545785e-28
1.932872918e-21
1.140258403e-20
3.778215223e-20
1.063092423e-19
2.786465198e-19
7.065530066e-19
1.063984135e-22
1.855801001e-22
2.76316199e-22
3.888880241e-22
5.442994767e-22
6.955054679e-22
8.539219302e-22
1.053256433e-21
1.332689238e-21
1.439249561e-21
1.383869161e-21
1.357502782e-21
1.306006028e-21
1.115592521e-21
1.059644038e-21
9.865943212e-22
7.087520456e-22
2.662312176e-22
8.911545785e-28
8.911545785e-28
8.911545785e-28
8.911545785e-28
8.911545785e-28
8.911545785e-28
8.911545785e-28
8.911545785e-28
8.911545785e-28
8.911545785e-28
8.911545785e-28
8.911545785e-28
8.911545785e-28
8.911545785e-28
8.911545785e-28
8.911545785e-28
2.38992099e-21
1.276613409e-20
4.133148495e-20
1.1505995e-19
2.997546934e-19
7.571044824e-19
9.015045396e-23
1.686753556e-22
2.482388235e-22
3.665622564e-22
5.079369771e-22
6.753826316e-22
8.768283978e-22
1.060112913e-21
1.361707644e-21
1.477244008e-21
1.440333993e-21
1.433698417e-21
1.350711662e-21
1.132904881e-21
1.050987858e-21
9.561921269e-22
6.627265014e-22
1.997264175e-22
8.911545785e-28
8.911545785e-28
8.911545785e-28
8.911545785e-28
8.911545785e-28
8.911545785e-28
8.911545785e-28
8.911545785e-28
8.911545785e-28
8.911545785e-28
8.911545785e-28
8.911545785e-28
8.911545785e-28
8.911545785e-28
8.911545785e-28
8.911545785e-28
2.89889936e-21
1.425040547e-20
4.515872925e-20
1.244499311e-19
3.223333834e-19
8.110486468e-19
1.025264389e-22
1.799615778e-22
2.732653239e-22
4.018934765e-22
5.487745478e-22
7.058876921e-22
8.94701964e-22
1.075493435e-21
1.381950412e-21
1.494936194e-21
1.448201249e-21
1.465862269e-21
1.364908324e-21
1.140294303e-21
1.048876594e-21
9.71393224e-22
6.226124951e-22
8.487368355e-23
8.911545785e-28
8.911545785e-28
8.911545785e-28
8.911545785e-28
8.911545785e-28
8.911545785e-28
8.911545785e-28
8.911545785e-28
8.911545785e-28
8.911545785e-28
8.911545785e-28
8.911545785e-28
8.911545785e-28
8.911545785e-28
8.911545785e-28
8.911545785e-28
3.463272326e-21
1.5863436e-20
4.928374936e-20
1.345239996e-19
3.464785835e-19
8.686024533e-19
1.046147696e-22
2.170842017e-22
3.297413542e-22
5.231896807e-22
6.1676209e-22
7.907994733e-22
9.682533937e-22
1.095056012e-21
1.382438971e-21
1.520879373e-21
1.483519315e-21
1.446370383e-21
1.321959963e-21
1.15380639e-21
1.071889366e-21
9.686485815e-22
6.221902424e-22
3.314772799e-23
8.911545785e-28
8.911545785e-28
8.911545785e-28
8.911545785e-28
8.911545785e-28
8.911545785e-28
8.911545785e-28
8.911545785e-28
8.911545785e-28
8.911545785e-28
8.911545785e-28
8.911545785e-28
8.911545785e-28
8.911545785e-28
8.911545785e-28
8.911545785e-28
4.086982015e-21
1.761469704e-20
5.372777476e-20
1.45327345e-19
3.722931815e-19
9.299943748e-19
1.084988888e-22
2.278501629e-22
4.200210063e-22
6.107417558e-22
7.241878325e-22
7.901046458e-22
9.55165989e-22
1.115571827e-21
1.335756642e-21
1.536193588e-21
1.556125802e-21
1.48369732e-21
1.325018125e-21
1.148317105e-21
1.041064919e-21
9.380352609e-22
5.82076236e-22
8.911545785e-28
8.911545785e-28
8.911545785e-28
8.911545785e-28
8.911545785e-28
8.911545785e-28
8.911545785e-28
8.911545785e-28
8.911545785e-28
8.911545785e-28
8.911545785e-28
8.911545785e-28
8.911545785e-28
8.911545785e-28
8.911545785e-28
8.911545785e-28
8.911545785e-28
4.775352863e-21
1.951562246e-20
5.85142193e-20
1.569097984e-19
3.998851507e-19
9.95470018e-19
1.316788775e-22
2.357734733e-22
3.928481019e-22
6.43852979e-22
7.584697613e-22
7.979231343e-22
9.584206406e-22
1.172348223e-21
1.348695315e-21
1.545952685e-21
1.603301075e-21
1.475953907e-21
1.391497563e-21
1.159084549e-21
1.022063548e-21
8.55273732e-22
5.067041293e-22
8.911545785e-28
8.911545785e-28
8.911545785e-28
8.911545785e-28
8.911545785e-28
8.911545785e-28
8.911545785e-28
8.911545785e-28
8.911545785e-28
8.911545785e-28
8.911545785e-28
8.911545785e-28
8.911545785e-28
8.911545785e-28
8.911545785e-28
8.911545785e-28
8.911545785e-28
5.532071016e-21
2.157634917e-20
6.366579716e-20
1.693233756e-19
4.293708948e-19
1.065286184e-18
1.305856764e-22
2.330551387e-22
3.905305699e-22
6.410342072e-22
7.286502227e-22
8.115380868e-22
9.626563216e-22
1.158262723e-21
1.404964131e-21
1.561401469e-21
1.626471821e-21
1.497618978e-21
1.437708872e-21
1.190120122e-21
1.006017945e-21
7.818017624e-22
4.074747452e-22
8.911545785e-28
8.911545785e-28
8.911545785e-28
8.911545785e-28
8.911545785e-28
8.911545785e-28
8.911545785e-28
8.911545785e-28
8.911545785e-28
8.911545785e-28
8.911545785e-28
8.911545785e-28
8.911545785e-28
8.911545785e-28
8.911545785e-28
8.911545785e-28
2.157599369e-22
6.363433641e-21
2.38085329e-20
6.920754342e-20
1.826241025e-19
4.608729442e-19
1.139717236e-18
1.203179897e-22
2.276604236e-22
4.083660936e-22
6.218733791e-22
7.447816259e-22
8.69950341e-22
9.930804392e-22
1.180700126e-21
1.402422318e-21
1.599436387e-21
1.639275926e-21
1.548600865e-21
1.462523773e-21
1.253035774e-21
1.039798161e-21
7.450657776e-22
3.000114334e-22
8.911545785e-28
8.911545785e-28
8.911545785e-28
8.911545785e-28
8.911545785e-28
8.911545785e-28
8.911545785e-28
8.911545785e-28
8.911545785e-28
8.911545785e-28
8.911545785e-28
8.911545785e-28
8.911545785e-28
8.911545785e-28
8.911545785e-28
8.911545785e-28
5.029380767e-22
7.274696911e-21
2.622504104e-20
7.516707005e-20
1.968709062e-19
4.945214744e-19
1.219055095e-18
1.323360724e-22
2.682210349e-22
4.586214515e-22
5.360902482e-22
6.599068777e-22
8.225410092e-22
1.054073021e-21
1.253914631e-21
1.467643768e-21
1.61069239e-21
1.634481941e-21
1.514016615e-21
1.452378983e-21
1.261269702e-21
1.02480819e-21
6.747607034e-22
1.689019706e-22
8.911545785e-28
8.911545785e-28
8.911545785e-28
8.911545785e-28
8.911545785e-28
8.911545785e-28
8.911545785e-28
8.911545785e-28
8.911545785e-28
8.911545785e-28
8.911545785e-28
8.911545785e-28
8.911545785e-28
8.911545785e-28
8.911545785e-28
8.911545785e-28
8.272507324e-22
8.272908875e-21
2.883904815e-20
8.157401981e-20
2.12126349e-19
5.304539992e-19
1.303607435e-18
1.654414284e-22
3.238783946e-22
4.676579305e-22
4.959362436e-22
6.162276025e-22
7.977436469e-22
1.030565823e-21
1.232736163e-21
1.467349743e-21
1.617418686e-21
1.573837483e-21
1.487043639e-21
1.369962675e-21
1.192020259e-21
9.409910298e-22
5.706754132e-22
4.645670838e-24
8.911545785e-28
8.911545785e-28
8.911545785e-28
8.911545785e-28
8.911545785e-28
8.911545785e-28
8.911545785e-28
8.911545785e-28
8.911545785e-28
8.911545785e-28
8.911545785e-28
8.911545785e-28
8.911545785e-28
8.911545785e-28
8.911545785e-28
8.911545785e-28
1.191906217e-21
9.363786474e-21
3.166405303e-20
8.845776242e-20
2.284560305e-19
5.688183399e-19
1.393701538e-18
1.738640228e-22
3.213136494e-22
4.393313861e-22
4.813158464e-22
6.111824934e-22
8.016404469e-22
1.079072204e-21
1.258562313e-21
1.410104756e-21
1.601381853e-21
1.5766143e-21
1.515714396e-21
1.311664012e-21
1.163729328e-21
8.968656228e-22
4.632121014e-22
8.911545785e-28
8.911545785e-28
8.911545785e-28
8.911545785e-28
8.911545785e-28
8.911545785e-28
8.911545785e-28
8.911545785e-28
8.911545785e-28
8.911545785e-28
8.911545785e-28
8.911545785e-28
8.911545785e-28
8.911545785e-28
8.911545785e-28
8.911545785e-28
8.911545785e-28
1.598935324e-21
1.055403645e-20
3.471579006e-20
9.585120015e-20
2.459316087e-19
6.097702703e-19
1.489685132e-18
1.653131375e-22
2.809060913e-22
4.056501248e-22
4.967992339e-22
6.322531743e-22
8.34391339e-22
1.102164437e-21
1.205550578e-21
1.362228315e-21
1.564592716e-21
1.530953472e-21
1.504831878e-21
1.261371085e-21
1.062388681e-21
7.801127516e-22
3.268244798e-22
8.911545785e-28
8.911545785e-28
8.911545785e-28
8.911545785e-28
8.911545785e-28
8.911545785e-28
8.911545785e-28
8.911545785e-28
8.911545785e-28
8.911545785e-28
8.911545785e-28
8.911545785e-28
8.911545785e-28
8.911545785e-28
8.911545785e-28
8.911545785e-28
8.911545785e-28
2.052399641e-21
1.185183317e-20
3.801026669e-20
1.037884981e-19
2.64629247e-19
6.534748479e-19
1.591925806e-18
1.558387597e-22
2.789171883e-22
4.019912323e-22
5.804232801e-22
6.801134957e-22
9.025197899e-22
1.105719927e-21
1.185877785e-21
1.347434834e-21
1.563882779e-21
1.522448925e-21
1.472591468e-21
1.228064318e-21
9.927169853e-22
7.239531427e-22
1.940260061e-22
8.911545785e-28
8.911545785e-28
8.911545785e-28
8.911545785e-28
8.911545785e-28
8.911545785e-28
8.911545785e-28
8.911545785e-28
8.911545785e-28
8.911545785e-28
8.911545785e-28
8.911545785e-28
8.911545785e-28
8.911545785e-28
8.911545785e-28
8.911545785e-28
8.911545785e-28
2.55494432e-21
1.326507795e-20
4.156345622e-20
1.123063642e-19
2.846272077e-19
7.001076254e-19
1.70081436e-18
1.786223305e-22
3.378097053e-22
4.506429068e-22
6.038270759e-22
7.322475406e-22
8.899955465e-22
1.073995866e-21
1.188629241e-21
1.366933534e-21
1.565653206e-21
1.562004628e-21
1.403342025e-21
1.228723532e-21
9.599924012e-22
6.266238957e-22
5.912428934e-24
8.911545785e-28
8.911545785e-28
8.911545785e-28
8.911545785e-28
8.911545785e-28
8.911545785e-28
8.911545785e-28
8.911545785e-28
8.911545785e-28
8.911545785e-28
8.911545785e-28
8.911545785e-28
8.911545785e-28
8.911545785e-28
8.911545785e-28
8.911545785e-28
8.911545785e-28
3.111177045e-21
1.480235476e-20
4.539556418e-20
1.214459604e-19
3.060116545e-19
7.49855214e-19
1.816766237e-18
1.926429433e-22
3.73531476e-22
5.529977054e-22
7.248931325e-22
8.097381975e-22
9.14194607e-22
1.078613329e-21
1.235088236e-21
1.45615317e-21
1.56901025e-21
1.577020434e-21
1.363010552e-21
1.17077252e-21
8.60763017e-22
4.706015236e-22
8.911545785e-28
8.911545785e-28
8.911545785e-28
8.911545785e-28
8.911545785e-28
8.911545785e-28
8.911545785e-28
8.911545785e-28
8.911545785e-28
8.911545785e-28
8.911545785e-28
8.911545785e-28
8.911545785e-28
8.911545785e-28
8.911545785e-28
8.911545785e-28
8.911545785e-28
8.911545785e-28
3.725739629e-21
1.647248643e-20
4.952432163e-20
1.312476295e-19
3.288737e-19
8.029147714e-19
1.940217802e-18
1.771014826e-22
3.93708884e-22
5.47266065e-22
7.919298649e-22
9.155773221e-22
9.795676903e-22
1.155250711e-21
1.334105011e-21
1.509425745e-21
1.572614508e-21
1.579374999e-21
1.345548987e-21
1.177914729e-21
8.005920075e-22
3.47514862e-22
8.911545785e-28
8.911545785e-28
8.911545785e-28
8.911545785e-28
8.911545785e-28
8.911545785e-28
8.911545785e-28
8.911545785e-28
8.911545785e-28
8.911545785e-28
8.911545785e-28
8.911545785e-28
8.911545785e-28
8.911545785e-28
8.911545785e-28
8.911545785e-28
8.911545785e-28
8.911545785e-28
4.403308019e-21
1.828443236e-20
5.397187959e-20
1.417552981e-19
3.533087746e-19
8.594965785e-19
2.071634823e-18
1.927301634e-22
4.096466994e-22
5.65767143e-22
8.172849944e-22
9.476095077e-22
1.056808705e-21
1.213976484e-21
1.340292026e-21
1.529798696e-21
1.609220782e-21
1.568635346e-21
1.347093178e-21
1.159295139e-21
7.872910475e-22
2.881883579e-22
8.911545785e-28
8.911545785e-28
8.911545785e-28
8.911545785e-28
8.911545785e-28
8.911545785e-28
8.911545785e-28
8.911545785e-28
8.911545785e-28
8.911545785e-28
8.911545785e-28
8.911545785e-28
8.911545785e-28
8.911545785e-28
8.911545785e-28
8.911545785e-28
8.911545785e-28
8.911545785e-28
5.148319243e-21
2.02487049e-20
5.87592286e-20
1.530164766e-19
3.794170868e-19
9.198224869e-19
2.211509946e-18
2.102570256e-22
4.430889807e-22
5.976354872e-22
8.083074717e-22
8.810773902e-22
1.002619924e-21
1.22353518e-21
1.378996883e-21
1.494156859e-21
1.60801399e-21
1.531869615e-21
1.284738258e-21
1.099279674e-21
7.207862475e-22
1.822029306e-22
8.911545785e-28
8.911545785e-28
8.911545785e-28
8.911545785e-28
8.911545785e-28
8.911545785e-28
8.911545785e-28
8.911545785e-28
8.911545785e-28
8.911545785e-28
8.911545785e-28
8.911545785e-28
8.911545785e-28
8.911545785e-28
8.911545785e-28
8.911545785e-28
8.911545785e-28
8.911545785e-28
5.966848617e-21
2.237738641e-20
6.391099419e-20
1.650824296e-19
4.073076168e-19
9.841283586e-19
2.360365684e-18
2.42646104e-22
4.753966431e-22
6.130676783e-22
7.614827514e-22
8.443418786e-22
9.77223314e-22
1.166117582e-21
1.343502295e-21
1.504092951e-21
1.595099196e-21
1.453725075e-21
1.219141841e-21
9.706096308e-22
5.620192329e-22
2.745533695e-24
8.911545785e-28
8.911545785e-28
8.911545785e-28
8.911545785e-28
8.911545785e-28
8.911545785e-28
8.911545785e-28
8.911545785e-28
8.911545785e-28
8.911545785e-28
8.911545785e-28
8.911545785e-28
8.911545785e-28
8.911545785e-28
8.911545785e-28
8.911545785e-28
8.911545785e-28
2.903702784e-22
6.864664277e-21
2.46825422e-20
6.945067552e-20
1.780053606e-19
4.370962052e-19
1.052665005e-18
2.518754292e-18
2.599789053e-22
5.096727046e-22
6.990014334e-22
8.357489762e-22
8.447348581e-22
9.591010521e-22
1.164793761e-21
1.352638738e-21
1.462379646e-21
1.580141401e-21
1.457849594e-21
1.177424151e-21
9.064569669e-22
4.370324341e-22
8.911545785e-28
8.911545785e-28
8.911545785e-28
8.911545785e-28
8.911545785e-28
8.911545785e-28
8.911545785e-28
8.911545785e-28
8.911545785e-28
8.911545785e-28
8.911545785e-28
8.911545785e-28
8.911545785e-28
8.911545785e-28
8.911545785e-28
8.911545785e-28
8.911545785e-28
8.911545785e-28
6.245979864e-22
7.846920004e-21
2.71762717e-20
7.540521903e-20
1.918420805e-19
4.689024471e-19
1.125697164e-18
2.687263403e-18
2.538591433e-22
5.15501817e-22
7.283572385e-22
8.748677898e-22
8.633529657e-22
9.590673943e-22
1.153858091e-21
1.313670075e-21
1.467574907e-21
1.576315765e-21
1.464676328e-21
1.159482796e-21
7.828198248e-22
2.909330004e-22
8.911545785e-28
8.911545785e-28
8.911545785e-28
8.911545785e-28
8.911545785e-28
8.911545785e-28
8.911545785e-28
8.911545785e-28
8.911545785e-28
8.911545785e-28
8.911545785e-28
8.911545785e-28
8.911545785e-28
8.911545785e-28
8.911545785e-28