/*--------------------------------*- C++ -*----------------------------------*\
| =========                 |                                                 |
| \\      /  F ield         | OpenFOAM: The Open Source CFD Toolbox           |
|  \\    /   O peration     | Version:  v2006                                 |
|   \\  /    A nd           | Website:  www.openfoam.com                      |
|    \\/     M anipulation  |                                                 |
\*---------------------------------------------------------------------------*/
FoamFile
{
    version     2.0;
    format      ascii;
    class       volScalarField;
    location    "0.12";
    object      HO2;
}
// * * * * * * * * * * * * * * * * * * * * * * * * * * * * * * * * * * * * * //

dimensions      [0 0 0 0 0 0 0];


internalField   nonuniform List<scalar> 
168000
(
2.278956654e-11
2.278955875e-11
2.278955101e-11
2.278954416e-11
2.278954391e-11
2.278954391e-11
2.278954429e-11
2.27895452e-11
2.278954788e-11
2.278955338e-11
2.278954566e-11
2.27895458e-11
2.278954462e-11
2.278954392e-11
2.278954523e-11
2.278954946e-11
2.278954793e-11
2.278954453e-11
2.278954737e-11
2.278954658e-11
2.278954766e-11
2.278954413e-11
2.278954399e-11
2.278954526e-11
2.278954391e-11
2.278954391e-11
2.278954391e-11
2.278954391e-11
2.278954391e-11
2.278954391e-11
2.278954391e-11
2.278954391e-11
2.278954391e-11
2.278954391e-11
2.278954391e-11
2.278954391e-11
2.279230376e-11
2.288041956e-11
2.306819399e-11
2.369754046e-11
2.278960423e-11
2.278958411e-11
2.278956211e-11
2.278954977e-11
2.278954491e-11
2.278954391e-11
2.278955169e-11
2.278955916e-11
2.278956572e-11
2.278956733e-11
2.278955736e-11
2.278955656e-11
2.278955041e-11
2.278954665e-11
2.278954958e-11
2.278955491e-11
2.278955368e-11
2.278954772e-11
2.278955162e-11
2.278955366e-11
2.278955357e-11
2.278954603e-11
2.278955538e-11
2.278954391e-11
2.278954391e-11
2.278954391e-11
2.278954391e-11
2.278954391e-11
2.278954391e-11
2.278954391e-11
2.278954391e-11
2.278954391e-11
2.278954391e-11
2.278954391e-11
2.278954391e-11
2.278954391e-11
2.27975632e-11
2.288836256e-11
2.310018613e-11
2.376535365e-11
2.278962867e-11
2.278960152e-11
2.278957844e-11
2.278956173e-11
2.27895545e-11
2.278955223e-11
2.278955444e-11
2.278955852e-11
2.278957723e-11
2.278957817e-11
2.27895621e-11
2.278956101e-11
2.278955143e-11
2.27895481e-11
2.278955292e-11
2.278955903e-11
2.278955705e-11
2.278955218e-11
2.278955428e-11
2.278955647e-11
2.278955493e-11
2.278954903e-11
2.278956147e-11
2.278954391e-11
2.278954391e-11
2.278954391e-11
2.278954391e-11
2.278954391e-11
2.278954391e-11
2.278954391e-11
2.278954391e-11
2.278954391e-11
2.278954391e-11
2.278954391e-11
2.278954391e-11
2.278954391e-11
2.280272666e-11
2.289779605e-11
2.313350272e-11
2.383933816e-11
2.278964893e-11
2.278962568e-11
2.278959489e-11
2.278957806e-11
2.278957464e-11
2.278956864e-11
2.278956411e-11
2.278956323e-11
2.278958247e-11
2.278958979e-11
2.27895738e-11
2.278956057e-11
2.278955362e-11
2.278955056e-11
2.278955845e-11
2.278956274e-11
2.278956176e-11
2.278955933e-11
2.278955526e-11
2.278956097e-11
2.278955968e-11
2.278955401e-11
2.27895615e-11
2.278954391e-11
2.278954391e-11
2.278954391e-11
2.278954391e-11
2.278954391e-11
2.278954391e-11
2.278954391e-11
2.278954391e-11
2.278954391e-11
2.278954391e-11
2.278954391e-11
2.278954391e-11
2.278954391e-11
2.280792814e-11
2.290863127e-11
2.316847321e-11
2.391969768e-11
2.278967089e-11
2.27896473e-11
2.278961584e-11
2.278960207e-11
2.278958172e-11
2.278957312e-11
2.27895737e-11
2.278957162e-11
2.27895846e-11
2.278959813e-11
2.27895904e-11
2.278957061e-11
2.278955701e-11
2.278955408e-11
2.278956085e-11
2.278956431e-11
2.27895667e-11
2.278956504e-11
2.278955739e-11
2.278956374e-11
2.27895626e-11
2.278955516e-11
2.278955378e-11
2.278954391e-11
2.278954391e-11
2.278954391e-11
2.278954391e-11
2.278954391e-11
2.278954391e-11
2.278954391e-11
2.278954391e-11
2.278954391e-11
2.278954391e-11
2.278954391e-11
2.278954391e-11
2.278954391e-11
2.281327969e-11
2.292084231e-11
2.32054072e-11
2.400670939e-11
2.278968451e-11
2.278966348e-11
2.27896386e-11
2.278961286e-11
2.2789595e-11
2.278958061e-11
2.278958336e-11
2.278958606e-11
2.278959611e-11
2.278960556e-11
2.278959944e-11
2.278957068e-11
2.278956302e-11
2.278955778e-11
2.278956437e-11
2.278956673e-11
2.278957186e-11
2.27895679e-11
2.278956107e-11
2.278956544e-11
2.278956261e-11
2.278955452e-11
2.278954391e-11
2.278954391e-11
2.278954391e-11
2.278954391e-11
2.278954391e-11
2.278954391e-11
2.278954391e-11
2.278954391e-11
2.278954391e-11
2.278954391e-11
2.278954391e-11
2.278954391e-11
2.278954391e-11
2.278999213e-11
2.281887268e-11
2.293442317e-11
2.324460233e-11
2.410068703e-11
2.278968693e-11
2.278967208e-11
2.27896462e-11
2.278963288e-11
2.278960414e-11
2.278959133e-11
2.278958964e-11
2.278958489e-11
2.278959487e-11
2.278960992e-11
2.278960657e-11
2.278957558e-11
2.278956483e-11
2.278956218e-11
2.278956666e-11
2.278957121e-11
2.278957594e-11
2.278957e-11
2.278956439e-11
2.278956418e-11
2.278956021e-11
2.278955214e-11
2.278954391e-11
2.278954391e-11
2.278954391e-11
2.278954391e-11
2.278954391e-11
2.278954391e-11
2.278954391e-11
2.278954391e-11
2.278954391e-11
2.278954391e-11
2.278954391e-11
2.278954391e-11
2.278954391e-11
2.279105745e-11
2.28247931e-11
2.294938869e-11
2.328634007e-11
2.420198309e-11
2.278969289e-11
2.278967716e-11
2.278965204e-11
2.278964536e-11
2.27896178e-11
2.278960759e-11
2.278959754e-11
2.278958819e-11
2.278959816e-11
2.278961325e-11
2.278961137e-11
2.278958765e-11
2.278956917e-11
2.278956899e-11
2.278957193e-11
2.278957224e-11
2.27895785e-11
2.278957498e-11
2.278956723e-11
2.278956551e-11
2.278955967e-11
2.278954601e-11
2.278954391e-11
2.278954391e-11
2.278954391e-11
2.278954391e-11
2.278954391e-11
2.278954391e-11
2.278954391e-11
2.278954391e-11
2.278954391e-11
2.278954391e-11
2.278954391e-11
2.278954391e-11
2.278954391e-11
2.279238827e-11
2.283111213e-11
2.296575906e-11
2.333089623e-11
2.431100279e-11
2.278970698e-11
2.278968563e-11
2.278966263e-11
2.278965425e-11
2.278962606e-11
2.27896093e-11
2.278960308e-11
2.278959204e-11
2.27896027e-11
2.278962179e-11
2.278961369e-11
2.27895888e-11
2.278957546e-11
2.278957218e-11
2.278957448e-11
2.278957417e-11
2.278957833e-11
2.278957626e-11
2.278957232e-11
2.278956875e-11
2.278955788e-11
2.278954391e-11
2.278954391e-11
2.278954391e-11
2.278954391e-11
2.278954391e-11
2.278954391e-11
2.278954391e-11
2.278954391e-11
2.278954391e-11
2.278954391e-11
2.278954391e-11
2.278954391e-11
2.278954391e-11
2.278954391e-11
2.279400002e-11
2.28378972e-11
2.298359923e-11
2.337854142e-11
2.442818822e-11
2.278973089e-11
2.278970412e-11
2.278967766e-11
2.278965812e-11
2.278964239e-11
2.278961753e-11
2.278960948e-11
2.278959808e-11
2.278961447e-11
2.278962908e-11
2.27896144e-11
2.278959573e-11
2.278957805e-11
2.278957353e-11
2.27895744e-11
2.27895762e-11
2.278957927e-11
2.278957677e-11
2.278957365e-11
2.278957155e-11
2.278955801e-11
2.278954391e-11
2.278954391e-11
2.278954391e-11
2.278954391e-11
2.278954391e-11
2.278954391e-11
2.278954391e-11
2.278954391e-11
2.278954391e-11
2.278954391e-11
2.278954391e-11
2.278954391e-11
2.278954391e-11
2.278954391e-11
2.279588363e-11
2.28452115e-11
2.30029907e-11
2.342955871e-11
2.455402252e-11
2.278975288e-11
2.278972599e-11
2.278970057e-11
2.27896732e-11
2.278965147e-11
2.278962779e-11
2.278961962e-11
2.278960608e-11
2.278961486e-11
2.278963627e-11
2.278962665e-11
2.278961427e-11
2.278959007e-11
2.278957802e-11
2.278957715e-11
2.278957768e-11
2.278957989e-11
2.278957835e-11
2.278957803e-11
2.278957394e-11
2.278955516e-11
2.278954391e-11
2.278954391e-11
2.278954391e-11
2.278954391e-11
2.278954391e-11
2.278954391e-11
2.278954391e-11
2.278954391e-11
2.278954391e-11
2.278954391e-11
2.278954391e-11
2.278954391e-11
2.278954391e-11
2.278954391e-11
2.27980604e-11
2.28531221e-11
2.302400801e-11
2.348422554e-11
2.468904325e-11
2.278976371e-11
2.278973946e-11
2.278970688e-11
2.278969672e-11
2.278967455e-11
2.278964134e-11
2.2789634e-11
2.278961679e-11
2.278962125e-11
2.27896443e-11
2.278964052e-11
2.278962663e-11
2.278959353e-11
2.27895812e-11
2.278958359e-11
2.278958079e-11
2.278958321e-11
2.278958245e-11
2.278957928e-11
2.278957514e-11
2.278955528e-11
2.278954391e-11
2.278954391e-11
2.278954391e-11
2.278954391e-11
2.278954391e-11
2.278954391e-11
2.278954391e-11
2.278954391e-11
2.278954391e-11
2.278954391e-11
2.278954391e-11
2.278954391e-11
2.278954391e-11
2.278954391e-11
2.280054665e-11
2.286168795e-11
2.304676148e-11
2.354283022e-11
2.48338117e-11
2.278977157e-11
2.278974284e-11
2.278971574e-11
2.278971116e-11
2.278968903e-11
2.278965405e-11
2.278964763e-11
2.278962744e-11
2.278963268e-11
2.27896513e-11
2.278965258e-11
2.278963442e-11
2.278960686e-11
2.278958618e-11
2.278958786e-11
2.278958486e-11
2.278958391e-11
2.278958332e-11
2.278958027e-11
2.278957504e-11
2.27895525e-11
2.278954391e-11
2.278954391e-11
2.278954391e-11
2.278954391e-11
2.278954391e-11
2.278954391e-11
2.278954391e-11
2.278954391e-11
2.278954391e-11
2.278954391e-11
2.278954391e-11
2.278954391e-11
2.278954391e-11
2.278954391e-11
2.28033601e-11
2.287097598e-11
2.307135431e-11
2.360567751e-11
2.498894423e-11
2.278977598e-11
2.278975232e-11
2.278972382e-11
2.278972023e-11
2.278969849e-11
2.278966528e-11
2.278965433e-11
2.278963924e-11
2.278964268e-11
2.278966318e-11
2.278966021e-11
2.278963438e-11
2.278961571e-11
2.278959293e-11
2.278958842e-11
2.278958746e-11
2.2789588e-11
2.278958577e-11
2.27895822e-11
2.278957206e-11
2.278954618e-11
2.278954391e-11
2.278954391e-11
2.278954391e-11
2.278954391e-11
2.278954391e-11
2.278954391e-11
2.278954391e-11
2.278954391e-11
2.278954391e-11
2.278954391e-11
2.278954391e-11
2.278954391e-11
2.278954391e-11
2.278954391e-11
2.280651793e-11
2.288104315e-11
2.309791089e-11
2.367308349e-11
2.515510018e-11
2.278978481e-11
2.278975533e-11
2.278972876e-11
2.278972275e-11
2.278969944e-11
2.278967863e-11
2.278967241e-11
2.278965574e-11
2.278965515e-11
2.278967238e-11
2.278966418e-11
2.278963831e-11
2.278961957e-11
2.2789595e-11
2.278959058e-11
2.278958957e-11
2.278958974e-11
2.278958437e-11
2.278957985e-11
2.278956485e-11
2.278954391e-11
2.278954391e-11
2.278954391e-11
2.278954391e-11
2.278954391e-11
2.278954391e-11
2.278954391e-11
2.278954391e-11
2.278954391e-11
2.278954391e-11
2.278954391e-11
2.278954391e-11
2.278954391e-11
2.278954391e-11
2.278954391e-11
2.281004221e-11
2.289195939e-11
2.312656135e-11
2.374538196e-11
2.533298917e-11
2.278979288e-11
2.278976372e-11
2.278973472e-11
2.278971867e-11
2.278971127e-11
2.278969493e-11
2.27896844e-11
2.27896789e-11
2.27896726e-11
2.278968219e-11
2.278966128e-11
2.278964457e-11
2.278961625e-11
2.278960035e-11
2.27895967e-11
2.278959278e-11
2.278959245e-11
2.278958378e-11
2.278957954e-11
2.278955706e-11
2.278954391e-11
2.278954391e-11
2.278954391e-11
2.278954391e-11
2.278954391e-11
2.278954391e-11
2.278954391e-11
2.278954391e-11
2.278954391e-11
2.278954391e-11
2.278954391e-11
2.278954391e-11
2.278954391e-11
2.278954391e-11
2.278954391e-11
2.281396573e-11
2.290379413e-11
2.315745601e-11
2.382291357e-11
2.552335904e-11
2.278980023e-11
2.278977279e-11
2.278974652e-11
2.278972317e-11
2.278971222e-11
2.278969549e-11
2.278969096e-11
2.278968827e-11
2.278969602e-11
2.278969303e-11
2.27896656e-11
2.278964969e-11
2.278961977e-11
2.278960107e-11
2.278959821e-11
2.278959709e-11
2.278959257e-11
2.278958416e-11
2.278957752e-11
2.278955007e-11
2.278954391e-11
2.278954391e-11
2.278954391e-11
2.278954391e-11
2.278954391e-11
2.278954391e-11
2.278954391e-11
2.278954391e-11
2.278954391e-11
2.278954391e-11
2.278954391e-11
2.278954391e-11
2.278954391e-11
2.278954391e-11
2.278954391e-11
2.281831527e-11
2.291662738e-11
2.319074194e-11
2.390605026e-11
2.572701524e-11
2.278980734e-11
2.278978538e-11
2.278976646e-11
2.278973047e-11
2.2789711e-11
2.278969903e-11
2.278970543e-11
2.278970658e-11
2.278971193e-11
2.278970505e-11
2.278967808e-11
2.278964976e-11
2.278963085e-11
2.278960469e-11
2.278960156e-11
2.278959799e-11
2.278959533e-11
2.278958667e-11
2.278957684e-11
2.278954391e-11
2.278954391e-11
2.278954391e-11
2.278954391e-11
2.278954391e-11
2.278954391e-11
2.278954391e-11
2.278954391e-11
2.278954391e-11
2.278954391e-11
2.278954391e-11
2.278954391e-11
2.278954391e-11
2.278954391e-11
2.278954391e-11
2.278954391e-11
2.282312475e-11
2.293053081e-11
2.322659328e-11
2.399517729e-11
2.594482054e-11
2.278982494e-11
2.278980171e-11
2.278977993e-11
2.278974289e-11
2.278971878e-11
2.278970738e-11
2.278970835e-11
2.278971064e-11
2.2789721e-11
2.278971137e-11
2.278967923e-11
2.278965288e-11
2.278963892e-11
2.278960634e-11
2.27896022e-11
2.278959933e-11
2.278959738e-11
2.278958545e-11
2.278957322e-11
2.278954391e-11
2.278954391e-11
2.278954391e-11
2.278954391e-11
2.278954391e-11
2.278954391e-11
2.278954391e-11
2.278954391e-11
2.278954391e-11
2.278954391e-11
2.278954391e-11
2.278954391e-11
2.278954391e-11
2.278954391e-11
2.278954391e-11
2.279011552e-11
2.282842408e-11
2.294558982e-11
2.326518926e-11
2.409070873e-11
2.617768062e-11
2.278984082e-11
2.27898208e-11
2.278979539e-11
2.27897584e-11
2.278973229e-11
2.278971977e-11
2.27897238e-11
2.278972379e-11
2.278972555e-11
2.278972056e-11
2.278968779e-11
2.278966068e-11
2.278964654e-11
2.27896111e-11
2.278960518e-11
2.278960309e-11
2.278959945e-11
2.278958644e-11
2.278956769e-11
2.278954391e-11
2.278954391e-11
2.278954391e-11
2.278954391e-11
2.278954391e-11
2.278954391e-11
2.278954391e-11
2.278954391e-11
2.278954391e-11
2.278954391e-11
2.278954391e-11
2.278954391e-11
2.278954391e-11
2.278954391e-11
2.278954391e-11
2.279170771e-11
2.283425151e-11
2.296189388e-11
2.330672021e-11
2.419307859e-11
2.64265739e-11
2.278985657e-11
2.278983395e-11
2.278980232e-11
2.278978305e-11
2.278974939e-11
2.278973941e-11
2.278972765e-11
2.278972045e-11
2.278972191e-11
2.278972793e-11
2.278970443e-11
2.278967192e-11
2.278965082e-11
2.278961534e-11
2.278960829e-11
2.278960459e-11
2.278959941e-11
2.278958353e-11
2.27895601e-11
2.278954391e-11
2.278954391e-11
2.278954391e-11
2.278954391e-11
2.278954391e-11
2.278954391e-11
2.278954391e-11
2.278954391e-11
2.278954391e-11
2.278954391e-11
2.278954391e-11
2.278954391e-11
2.278954391e-11
2.278954391e-11
2.278954391e-11
2.279354109e-11
2.284064383e-11
2.297952826e-11
2.335138867e-11
2.430274817e-11
2.669252958e-11
2.278987132e-11
2.278984279e-11
2.278981369e-11
2.278980069e-11
2.278976601e-11
2.278974515e-11
2.278973519e-11
2.278972317e-11
2.278972663e-11
2.27897332e-11
2.278971409e-11
2.278967125e-11
2.278965025e-11
2.27896153e-11
2.278961067e-11
2.278960347e-11
2.278959556e-11
2.278957968e-11
2.278955448e-11
2.278954391e-11
2.278954391e-11
2.278954391e-11
2.278954391e-11
2.278954391e-11
2.278954391e-11
2.278954391e-11
2.278954391e-11
2.278954391e-11
2.278954391e-11
2.278954391e-11
2.278954391e-11
2.278954391e-11
2.278954391e-11
2.278954391e-11
2.279563335e-11
2.284764815e-11
2.299859952e-11
2.339941465e-11
2.442020969e-11
2.697665435e-11
2.278987596e-11
2.278985338e-11
2.278982944e-11
2.278981547e-11
2.278978902e-11
2.27897564e-11
2.2789744e-11
2.278973121e-11
2.278974027e-11
2.278973891e-11
2.27897186e-11
2.278967268e-11
2.278964332e-11
2.27896141e-11
2.278961021e-11
2.278960266e-11
2.278959477e-11
2.278957552e-11
2.278954759e-11
2.278954391e-11
2.278954391e-11
2.278954391e-11
2.278954391e-11
2.278954391e-11
2.278954391e-11
2.278954391e-11
2.278954391e-11
2.278954391e-11
2.278954391e-11
2.278954391e-11
2.278954391e-11
2.278954391e-11
2.278954391e-11
2.278954391e-11
2.279800468e-11
2.285531407e-11
2.301921088e-11
2.345102224e-11
2.454598653e-11
2.728011426e-11
2.278988524e-11
2.278985577e-11
2.278983565e-11
2.278982196e-11
2.278980016e-11
2.278976906e-11
2.278975207e-11
2.278974187e-11
2.278974402e-11
2.278974028e-11
2.278971923e-11
2.278967599e-11
2.278964601e-11
2.278961449e-11
2.278961251e-11
2.278960373e-11
2.278959431e-11
2.278957066e-11
2.278954391e-11
2.278954391e-11
2.278954391e-11
2.278954391e-11
2.278954391e-11
2.278954391e-11
2.278954391e-11
2.278954391e-11
2.278954391e-11
2.278954391e-11
2.278954391e-11
2.278954391e-11
2.278954391e-11
2.278954391e-11
2.278954391e-11
2.278954391e-11
2.280067179e-11
2.286368972e-11
2.304146901e-11
2.350646187e-11
2.468062785e-11
2.760414526e-11
2.278988789e-11
2.278986125e-11
2.278984015e-11
2.278981516e-11
2.278980445e-11
2.278978378e-11
2.278976804e-11
2.278976138e-11
2.278976055e-11
2.278974336e-11
2.278971533e-11
2.278968332e-11
2.278964512e-11
2.278961516e-11
2.278961441e-11
2.27896065e-11
2.278959255e-11
2.278956654e-11
2.278954391e-11
2.278954391e-11
2.278954391e-11
2.278954391e-11
2.278954391e-11
2.278954391e-11
2.278954391e-11
2.278954391e-11
2.278954391e-11
2.278954391e-11
2.278954391e-11
2.278954391e-11
2.278954391e-11
2.278954391e-11
2.278954391e-11
2.278954391e-11
2.280366123e-11
2.287282618e-11
2.306549746e-11
2.356600611e-11
2.482472435e-11
2.795007082e-11
2.278989458e-11
2.278986458e-11
2.278983644e-11
2.278981341e-11
2.278979758e-11
2.27897816e-11
2.278977091e-11
2.278976408e-11
2.278977216e-11
2.278975567e-11
2.278971801e-11
2.278968592e-11
2.27896537e-11
2.278961563e-11
2.278961204e-11
2.278960734e-11
2.278958948e-11
2.278956103e-11
2.278954391e-11
2.278954391e-11
2.278954391e-11
2.278954391e-11
2.278954391e-11
2.278954391e-11
2.278954391e-11
2.278954391e-11
2.278954391e-11
2.278954391e-11
2.278954391e-11
2.278954391e-11
2.278954391e-11
2.278954391e-11
2.278954391e-11
2.278954391e-11
2.280699943e-11
2.288278529e-11
2.30914211e-11
2.362991959e-11
2.497889438e-11
2.831928905e-11
2.278989971e-11
2.278987103e-11
2.27898423e-11
2.278982001e-11
2.278980253e-11
2.278978748e-11
2.278978078e-11
2.278976984e-11
2.278978083e-11
2.278976416e-11
2.278972843e-11
2.278969984e-11
2.278966077e-11
2.278961675e-11
2.278961148e-11
2.278960539e-11
2.278958652e-11
2.278955675e-11
2.278954391e-11
2.278954391e-11
2.278954391e-11
2.278954391e-11
2.278954391e-11
2.278954391e-11
2.278954391e-11
2.278954391e-11
2.278954391e-11
2.278954391e-11
2.278954391e-11
2.278954391e-11
2.278954391e-11
2.278954391e-11
2.278954391e-11
2.278954391e-11
2.281071691e-11
2.289362612e-11
2.311937455e-11
2.36985022e-11
2.514380478e-11
2.871328682e-11
2.278991521e-11
2.278988621e-11
2.278985848e-11
2.278983809e-11
2.27898211e-11
2.278980241e-11
2.278979058e-11
2.278977824e-11
2.278978806e-11
2.278977111e-11
2.27897324e-11
2.278970549e-11
2.278966206e-11
2.278961722e-11
2.278961135e-11
2.278960636e-11
2.278958394e-11
2.278954937e-11
2.278954391e-11
2.278954391e-11
2.278954391e-11
2.278954391e-11
2.278954391e-11
2.278954391e-11
2.278954391e-11
2.278954391e-11
2.278954391e-11
2.278954391e-11
2.278954391e-11
2.278954391e-11
2.278954391e-11
2.278954391e-11
2.278954391e-11
2.278954391e-11
2.281483898e-11
2.290540738e-11
2.314950291e-11
2.377208126e-11
2.532015666e-11
2.913364872e-11
2.278992893e-11
2.278990515e-11
2.278988275e-11
2.278986961e-11
2.278984079e-11
2.278982344e-11
2.278980964e-11
2.278978814e-11
2.278979315e-11
2.27897787e-11
2.278974122e-11
2.278970374e-11
2.278965559e-11
2.278961809e-11
2.278961282e-11
2.278960619e-11
2.278958391e-11
2.278954604e-11
2.278954391e-11
2.278954391e-11
2.278954391e-11
2.278954391e-11
2.278954391e-11
2.278954391e-11
2.278954391e-11
2.278954391e-11
2.278954391e-11
2.278954391e-11
2.278954391e-11
2.278954391e-11
2.278954391e-11
2.278954391e-11
2.278954391e-11
2.278954391e-11
2.281939443e-11
2.291819825e-11
2.318196121e-11
2.385098681e-11
2.550870151e-11
2.958204348e-11
2.27899466e-11
2.278992265e-11
2.278990782e-11
2.278989464e-11
2.278986882e-11
2.278983365e-11
2.278981646e-11
2.278979737e-11
2.278979151e-11
2.278978204e-11
2.27897549e-11
2.278971195e-11
2.278965653e-11
2.278961774e-11
2.278961084e-11
2.278960422e-11
2.278958133e-11
2.278954391e-11
2.278954391e-11
2.278954391e-11
2.278954391e-11
2.278954391e-11
2.278954391e-11
2.278954391e-11
2.278954391e-11
2.278954391e-11
2.278954391e-11
2.278954391e-11
2.278954391e-11
2.278954391e-11
2.278954391e-11
2.278954391e-11
2.278954391e-11
2.278954391e-11
2.282442216e-11
2.293208225e-11
2.321692048e-11
2.393558281e-11
2.571022793e-11
3.006026495e-11
2.27899707e-11
2.278994231e-11
2.278992028e-11
2.278991332e-11
2.278988535e-11
2.27898449e-11
2.278982495e-11
2.278981313e-11
2.278979889e-11
2.278979218e-11
2.278976473e-11
2.278971194e-11
2.278966673e-11
2.278961843e-11
2.278960962e-11
2.27895989e-11
2.278957649e-11
2.278954391e-11
2.278954391e-11
2.278954391e-11
2.278954391e-11
2.278954391e-11
2.278954391e-11
2.278954391e-11
2.278954391e-11
2.278954391e-11
2.278954391e-11
2.278954391e-11
2.278954391e-11
2.278954391e-11
2.278954391e-11
2.278954391e-11
2.278954391e-11
2.278954391e-11
2.282994908e-11
2.29471334e-11
2.325454661e-11
2.402624919e-11
2.592558612e-11
3.057018877e-11
2.278999176e-11
2.278996066e-11
2.278993546e-11
2.278992636e-11
2.27898953e-11
2.278985874e-11
2.278983449e-11
2.278981877e-11
2.2789814e-11
2.278980108e-11
2.278977042e-11
2.278971581e-11
2.278967563e-11
2.278962043e-11
2.278960859e-11
2.278959417e-11
2.278957011e-11
2.278954391e-11
2.278954391e-11
2.278954391e-11
2.278954391e-11
2.278954391e-11
2.278954391e-11
2.278954391e-11
2.278954391e-11
2.278954391e-11
2.278954391e-11
2.278954391e-11
2.278954391e-11
2.278954391e-11
2.278954391e-11
2.278954391e-11
2.278954391e-11
2.279111977e-11
2.28360212e-11
2.296343684e-11
2.329502245e-11
2.412339513e-11
2.615567102e-11
3.111381882e-11
2.279001e-11
2.278997934e-11
2.278995415e-11
2.278993773e-11
2.278990918e-11
2.278987881e-11
2.278985188e-11
2.278983133e-11
2.278981989e-11
2.278980834e-11
2.278977223e-11
2.27897244e-11
2.278967957e-11
2.278962447e-11
2.278961076e-11
2.278959181e-11
2.27895632e-11
2.278954391e-11
2.278954391e-11
2.278954391e-11
2.278954391e-11
2.278954391e-11
2.278954391e-11
2.278954391e-11
2.278954391e-11
2.278954391e-11
2.278954391e-11
2.278954391e-11
2.278954391e-11
2.278954391e-11
2.278954391e-11
2.278954391e-11
2.278954391e-11
2.279321727e-11
2.284267689e-11
2.298108655e-11
2.333854969e-11
2.422745104e-11
2.640143339e-11
3.169328724e-11
2.279003511e-11
2.279000506e-11
2.278998036e-11
2.278993938e-11
2.27899083e-11
2.278988256e-11
2.27898694e-11
2.278985099e-11
2.278983619e-11
2.278981413e-11
2.27897739e-11
2.278972094e-11
2.278967732e-11
2.2789625e-11
2.27896098e-11
2.278958729e-11
2.278955477e-11
2.278954391e-11
2.278954391e-11
2.278954391e-11
2.278954391e-11
2.278954391e-11
2.278954391e-11
2.278954391e-11
2.278954391e-11
2.278954391e-11
2.278954391e-11
2.278954391e-11
2.278954391e-11
2.278954391e-11
2.278954391e-11
2.278954391e-11
2.278954391e-11
2.279558598e-11
2.284996763e-11
2.300017875e-11
2.338534481e-11
2.433887385e-11
2.666387762e-11
3.231084123e-11
2.279006751e-11
2.279003557e-11
2.278999897e-11
2.278995026e-11
2.278991636e-11
2.278989097e-11
2.278987653e-11
2.278985679e-11
2.278984321e-11
2.27898174e-11
2.278976963e-11
2.278971957e-11
2.278966535e-11
2.278962055e-11
2.278960441e-11
2.27895806e-11
2.278954421e-11
2.278954391e-11
2.278954391e-11
2.278954391e-11
2.278954391e-11
2.278954391e-11
2.278954391e-11
2.278954391e-11
2.278954391e-11
2.278954391e-11
2.278954391e-11
2.278954391e-11
2.278954391e-11
2.278954391e-11
2.278954391e-11
2.278954391e-11
2.278954391e-11
2.279824936e-11
2.285793519e-11
2.302081204e-11
2.343562234e-11
2.44581427e-11
2.694408337e-11
3.296887118e-11
2.279009387e-11
2.279005505e-11
2.279001371e-11
2.278996575e-11
2.278993148e-11
2.278990567e-11
2.278989608e-11
2.278987118e-11
2.278984237e-11
2.278982255e-11
2.278977463e-11
2.278972722e-11
2.278965987e-11
2.278961873e-11
2.278960157e-11
2.278957369e-11
2.278954391e-11
2.278954391e-11
2.278954391e-11
2.278954391e-11
2.278954391e-11
2.278954391e-11
2.278954391e-11
2.278954391e-11
2.278954391e-11
2.278954391e-11
2.278954391e-11
2.278954391e-11
2.278954391e-11
2.278954391e-11
2.278954391e-11
2.278954391e-11
2.278954391e-11
2.280122222e-11
2.286662855e-11
2.304310134e-11
2.348962259e-11
2.458578095e-11
2.724318837e-11
3.366991684e-11
2.279011395e-11
2.279007172e-11
2.279003366e-11
2.278998713e-11
2.278995087e-11
2.278992631e-11
2.27899119e-11
2.278987222e-11
2.278984424e-11
2.278982439e-11
2.27897728e-11
2.278972875e-11
2.278965478e-11
2.278961221e-11
2.278959407e-11
2.278956492e-11
2.278954391e-11
2.278954391e-11
2.278954391e-11
2.278954391e-11
2.278954391e-11
2.278954391e-11
2.278954391e-11
2.278954391e-11
2.278954391e-11
2.278954391e-11
2.278954391e-11
2.278954391e-11
2.278954391e-11
2.278954391e-11
2.278954391e-11
2.278954391e-11
2.278954391e-11
2.280453423e-11
2.287610741e-11
2.306716356e-11
2.354759508e-11
2.472234489e-11
2.756239818e-11
3.441666301e-11
2.279013188e-11
2.279009235e-11
2.279004973e-11
2.27900171e-11
2.278997335e-11
2.278995009e-11
2.278992411e-11
2.278987985e-11
2.278985082e-11
2.27898299e-11
2.278977794e-11
2.278972865e-11
2.278965301e-11
2.278960773e-11
2.278959046e-11
2.278955638e-11
2.278954391e-11
2.278954391e-11
2.278954391e-11
2.278954391e-11
2.278954391e-11
2.278954391e-11
2.278954391e-11
2.278954391e-11
2.278954391e-11
2.278954391e-11
2.278954391e-11
2.278954391e-11
2.278954391e-11
2.278954391e-11
2.278954391e-11
2.278954391e-11
2.278954391e-11
2.280820472e-11
2.288642947e-11
2.309311537e-11
2.360980793e-11
2.486840614e-11
2.790299499e-11
3.521196401e-11
2.279016225e-11
2.279012356e-11
2.279007646e-11
2.279003825e-11
2.278999647e-11
2.278996102e-11
2.278993084e-11
2.278989077e-11
2.278986332e-11
2.278983977e-11
2.278979173e-11
2.27897242e-11
2.278965935e-11
2.278960563e-11
2.27895842e-11
2.278954429e-11
2.278954391e-11
2.278954391e-11
2.278954391e-11
2.278954391e-11
2.278954391e-11
2.278954391e-11
2.278954391e-11
2.278954391e-11
2.278954391e-11
2.278954391e-11
2.278954391e-11
2.278954391e-11
2.278954391e-11
2.278954391e-11
2.278954391e-11
2.278954391e-11
2.278954391e-11
2.281226734e-11
2.289765745e-11
2.312110435e-11
2.367656178e-11
2.502459402e-11
2.826634179e-11
3.605885416e-11
2.279018823e-11
2.279014909e-11
2.279011331e-11
2.27900742e-11
2.279002443e-11
2.278997728e-11
2.278994164e-11
2.27899076e-11
2.278988524e-11
2.278984901e-11
2.278979899e-11
2.278972309e-11
2.278965489e-11
2.278959925e-11
2.278957417e-11
2.278954391e-11
2.278954391e-11
2.278954391e-11
2.278954391e-11
2.278954391e-11
2.278954391e-11
2.278954391e-11
2.278954391e-11
2.278954391e-11
2.278954391e-11
2.278954391e-11
2.278954391e-11
2.278954391e-11
2.278954391e-11
2.278954391e-11
2.278954391e-11
2.278954391e-11
2.278954391e-11
2.281675599e-11
2.290985577e-11
2.315126e-11
2.374815128e-11
2.519157399e-11
2.865387856e-11
3.696052059e-11
2.279020922e-11
2.279017571e-11
2.279013258e-11
2.279010223e-11
2.27900531e-11
2.278999927e-11
2.278996337e-11
2.278993076e-11
2.278990139e-11
2.278985393e-11
2.278980396e-11
2.278972394e-11
2.278965967e-11
2.278959538e-11
2.278956625e-11
2.278954391e-11
2.278954391e-11
2.278954391e-11
2.278954391e-11
2.278954391e-11
2.278954391e-11
2.278954391e-11
2.278954391e-11
2.278954391e-11
2.278954391e-11
2.278954391e-11
2.278954391e-11
2.278954391e-11
2.278954391e-11
2.278954391e-11
2.278954391e-11
2.278954391e-11
2.278954391e-11
2.282170482e-11
2.292308987e-11
2.31837441e-11
2.382489727e-11
2.537004306e-11
2.906714117e-11
3.792036516e-11
2.279023778e-11
2.279020194e-11
2.279015613e-11
2.279012387e-11
2.279007307e-11
2.279002388e-11
2.27899842e-11
2.27899408e-11
2.27899111e-11
2.278986605e-11
2.2789805e-11
2.278972911e-11
2.278965971e-11
2.278959453e-11
2.278956244e-11
2.278954391e-11
2.278954391e-11
2.278954391e-11
2.278954391e-11
2.278954391e-11
2.278954391e-11
2.278954391e-11
2.278954391e-11
2.278954391e-11
2.278954391e-11
2.278954391e-11
2.278954391e-11
2.278954391e-11
2.278954391e-11
2.278954391e-11
2.278954391e-11
2.278954391e-11
2.278954391e-11
2.282714623e-11
2.293743654e-11
2.321870998e-11
2.390714674e-11
2.556073314e-11
2.950774997e-11
3.894198609e-11
2.279027103e-11
2.279023374e-11
2.279018561e-11
2.279014084e-11
2.27900793e-11
2.279002855e-11
2.278999593e-11
2.278995601e-11
2.278991215e-11
2.278987252e-11
2.278980548e-11
2.278972152e-11
2.278965239e-11
2.278959025e-11
2.278955562e-11
2.278954391e-11
2.278954391e-11
2.278954391e-11
2.278954391e-11
2.278954391e-11
2.278954391e-11
2.278954391e-11
2.278954391e-11
2.278954391e-11
2.278954391e-11
2.278954391e-11
2.278954391e-11
2.278954391e-11
2.278954391e-11
2.278954391e-11
2.278954391e-11
2.278954391e-11
2.278954391e-11
2.283312462e-11
2.295298402e-11
2.325633748e-11
2.399527414e-11
2.576444019e-11
2.997742766e-11
4.002919969e-11
2.279031042e-11
2.279026337e-11
2.279020661e-11
2.279015191e-11
2.279008917e-11
2.279003717e-11
2.278999842e-11
2.278995966e-11
2.278992205e-11
2.278987601e-11
2.278979873e-11
2.27897147e-11
2.278963732e-11
2.278958004e-11
2.278954409e-11
2.278954391e-11
2.278954391e-11
2.278954391e-11
2.278954391e-11
2.278954391e-11
2.278954391e-11
2.278954391e-11
2.278954391e-11
2.278954391e-11
2.278954391e-11
2.278954391e-11
2.278954391e-11
2.278954391e-11
2.278954391e-11
2.278954391e-11
2.278954391e-11
2.278954391e-11
2.279166471e-11
2.283968209e-11
2.296982043e-11
2.329679824e-11
2.408966073e-11
2.59820103e-11
3.047800611e-11
4.118603954e-11
2.279034378e-11
2.279029362e-11
2.279023969e-11
2.279018078e-11
2.279010426e-11
2.279004849e-11
2.279001167e-11
2.278997137e-11
2.278992307e-11
2.278987987e-11
2.278980134e-11
2.278971264e-11
2.278963036e-11
2.278957201e-11
2.278954391e-11
2.278954391e-11
2.278954391e-11
2.278954391e-11
2.278954391e-11
2.278954391e-11
2.278954391e-11
2.278954391e-11
2.278954391e-11
2.278954391e-11
2.278954391e-11
2.278954391e-11
2.278954391e-11
2.278954391e-11
2.278954391e-11
2.278954391e-11
2.278954391e-11
2.278954391e-11
2.279410585e-11
2.284685629e-11
2.298803415e-11
2.334028908e-11
2.419072147e-11
2.621431696e-11
3.101141892e-11
4.24167976e-11
2.279036328e-11
2.279031326e-11
2.279025999e-11
2.279020207e-11
2.279012103e-11
2.279006047e-11
2.27900174e-11
2.278997257e-11
2.278993045e-11
2.278988555e-11
2.278980993e-11
2.278971458e-11
2.278961537e-11
2.278956261e-11
2.278954391e-11
2.278954391e-11
2.278954391e-11
2.278954391e-11
2.278954391e-11
2.278954391e-11
2.278954391e-11
2.278954391e-11
2.278954391e-11
2.278954391e-11
2.278954391e-11
2.278954391e-11
2.278954391e-11
2.278954391e-11
2.278954391e-11