/*--------------------------------*- C++ -*----------------------------------*\
| =========                 |                                                 |
| \\      /  F ield         | OpenFOAM: The Open Source CFD Toolbox           |
|  \\    /   O peration     | Version:  v2006                                 |
|   \\  /    A nd           | Website:  www.openfoam.com                      |
|    \\/     M anipulation  |                                                 |
\*---------------------------------------------------------------------------*/
FoamFile
{
    version     2.0;
    format      ascii;
    class       volScalarField;
    location    "0.12";
    object      O;
}
// * * * * * * * * * * * * * * * * * * * * * * * * * * * * * * * * * * * * * //

dimensions      [0 0 0 0 0 0 0];


internalField   nonuniform List<scalar> 
168000
(
2.478272567e-25
4.847530645e-25
1.234899696e-27
1.013143727e-28
6.009308825e-29
6.009308825e-29
1.628061464e-25
5.522342024e-25
1.005866146e-24
2.029356604e-24
7.498544099e-25
8.079780004e-25
3.023027634e-25
5.872452133e-27
5.638589205e-25
1.470937312e-24
1.133696824e-24
2.674286092e-25
1.429921029e-24
1.145094825e-24
5.933123179e-25
9.305783781e-26
3.493424736e-26
2.559275549e-25
6.009308825e-29
6.009308825e-29
6.009308825e-29
6.009308825e-29
6.009308825e-29
6.009308825e-29
6.009308825e-29
6.009308825e-29
6.009308825e-29
6.009308825e-29
6.009308825e-29
6.009308825e-29
4.564209335e-25
1.502701141e-23
4.607688211e-23
1.501439102e-22
1.020994516e-24
7.794519239e-25
3.069246855e-27
1.028793273e-27
2.249782262e-28
6.009308825e-29
2.104608112e-24
3.488650327e-24
4.750529948e-24
5.279516453e-24
3.836959046e-24
3.871688926e-24
2.784180076e-24
1.17415662e-24
2.429626174e-24
3.644821427e-24
3.65042768e-24
1.633332985e-24
3.301480031e-24
3.586512341e-24
2.96481664e-24
9.067881041e-25
2.192370596e-24
6.009308825e-29
6.009308825e-29
6.009308825e-29
6.009308825e-29
6.009308825e-29
6.009308825e-29
6.009308825e-29
6.009308825e-29
6.009308825e-29
6.009308825e-29
6.009308825e-29
6.009308825e-29
6.009308825e-29
1.326107593e-24
1.63404452e-23
5.136701565e-23
1.613573156e-22
9.2045296e-25
3.930536323e-25
5.769240988e-27
3.007414928e-27
1.811997679e-27
4.66244234e-25
2.320036388e-24
3.802290998e-24
7.547099075e-24
8.00044247e-24
5.441335028e-24
5.720039713e-24
3.220107004e-24
1.796079038e-24
3.859466499e-24
6.155471986e-24
5.626423649e-24
3.539786752e-24
4.440702404e-24
5.37649221e-24
4.719695638e-24
2.191319453e-24
3.570373734e-24
6.009308825e-29
6.009308825e-29
6.009308825e-29
6.009308825e-29
6.009308825e-29
6.009308825e-29
6.009308825e-29
6.009308825e-29
6.009308825e-29
6.009308825e-29
6.009308825e-29
6.009308825e-29
6.009308825e-29
2.179924059e-24
1.790034105e-23
5.687615788e-23
1.735911951e-22
7.95981817e-25
1.669464072e-24
8.489845764e-27
5.707409062e-27
1.794656746e-24
2.961498169e-24
4.488808906e-24
4.750117735e-24
8.884292036e-24
1.062853563e-23
7.889327497e-24
6.655396696e-24
4.15589681e-24
2.848116025e-24
6.22509663e-24
8.061802089e-24
7.643312237e-24
6.602899968e-24
4.859192255e-24
7.306195413e-24
6.754021304e-24
4.324455223e-24
3.744682674e-24
6.009308825e-29
6.009308825e-29
6.009308825e-29
6.009308825e-29
6.009308825e-29
6.009308825e-29
6.009308825e-29
6.009308825e-29
6.009308825e-29
6.009308825e-29
6.009308825e-29
6.009308825e-29
6.009308825e-29
3.04002677e-24
1.969202417e-23
6.265878272e-23
1.868792265e-22
1.339952575e-24
2.60265678e-24
1.295989127e-24
2.176850151e-24
1.516941371e-24
2.68916233e-24
5.181798714e-24
6.10526304e-24
9.634148185e-24
1.276222788e-23
1.169188817e-23
9.033393528e-24
5.608986572e-24
4.353517018e-24
7.253884181e-24
8.736035738e-24
9.75901093e-24
9.049903126e-24
5.771732625e-24
8.491916658e-24
8.003678498e-24
4.818505742e-24
2.145624396e-24
6.009308825e-29
6.009308825e-29
6.009308825e-29
6.009308825e-29
6.009308825e-29
6.009308825e-29
6.009308825e-29
6.009308825e-29
6.009308825e-29
6.009308825e-29
6.009308825e-29
6.009308825e-29
6.009308825e-29
3.924944695e-24
2.171120757e-23
6.876608701e-23
2.01267248e-22
1.359636212e-24
3.238635972e-24
3.466925763e-24
2.422659303e-24
1.815453358e-24
2.858895549e-24
5.421610011e-24
8.28644348e-24
1.168121154e-23
1.439609848e-23
1.406972012e-23
1.002112357e-23
8.183861629e-24
5.940291037e-24
8.759285174e-24
9.770635648e-24
1.196770737e-23
1.027049853e-23
7.346881926e-24
9.218461539e-24
8.009490857e-24
4.545324866e-24
6.009308825e-29
6.009308825e-29
6.009308825e-29
6.009308825e-29
6.009308825e-29
6.009308825e-29
6.009308825e-29
6.009308825e-29
6.009308825e-29
6.009308825e-29
6.009308825e-29
6.009308825e-29
6.009308825e-29
7.417596258e-26
4.849785433e-24
2.395690193e-23
7.524728896e-23
2.168071363e-22
8.487463246e-25
3.025083264e-24
3.520473632e-24
4.593142504e-24
2.851166242e-24
3.819336315e-24
6.241874009e-24
7.891161844e-24
1.141955233e-23
1.567504419e-23
1.568030006e-23
1.153256364e-23
8.956905382e-24
7.823495368e-24
9.741573853e-24
1.168871413e-23
1.371722744e-23
1.117141418e-23
8.770909892e-24
8.677912148e-24
6.980703306e-24
3.522349674e-24
6.009308825e-29
6.009308825e-29
6.009308825e-29
6.009308825e-29
6.009308825e-29
6.009308825e-29
6.009308825e-29
6.009308825e-29
6.009308825e-29
6.009308825e-29
6.009308825e-29
6.009308825e-29
6.009308825e-29
2.503351218e-25
5.828770329e-24
2.643155991e-23
8.214892739e-23
2.335571786e-22
4.662642129e-25
1.997532351e-24
2.661542964e-24
5.455102937e-24
4.375673774e-24
6.035679459e-24
7.759621093e-24
8.18221262e-24
1.165250013e-23
1.672722545e-23
1.688378816e-23
1.414330217e-23
1.081686028e-23
1.074129961e-23
1.199676916e-23
1.213045342e-23
1.480995094e-23
1.330454995e-23
9.985692933e-24
9.247523334e-24
6.748208945e-24
9.009757451e-25
6.009308825e-29
6.009308825e-29
6.009308825e-29
6.009308825e-29
6.009308825e-29
6.009308825e-29
6.009308825e-29
6.009308825e-29
6.009308825e-29
6.009308825e-29
6.009308825e-29
6.009308825e-29
6.009308825e-29
4.70394949e-25
6.873668058e-24
2.913852044e-23
8.951661368e-23
2.515843798e-22
4.685932155e-25
1.568984191e-24
2.500610647e-24
5.526293991e-24
4.818608479e-24
5.594393605e-24
7.196955851e-24
8.496595274e-24
1.258286918e-23
1.798362249e-23
1.792999217e-23
1.489880579e-23
1.350798251e-23
1.210720398e-23
1.308949266e-23
1.29558084e-23
1.474020263e-23
1.38509117e-23
1.216532757e-23
1.063667715e-23
5.980977551e-24
6.009308825e-29
6.009308825e-29
6.009308825e-29
6.009308825e-29
6.009308825e-29
6.009308825e-29
6.009308825e-29
6.009308825e-29
6.009308825e-29
6.009308825e-29
6.009308825e-29
6.009308825e-29
6.009308825e-29
6.009308825e-29
7.369111637e-25
7.995628979e-24
3.208852167e-23
9.73950935e-23
2.709618461e-22
1.210431509e-24
2.338977411e-24
3.281651488e-24
4.730948891e-24
6.692166714e-24
6.130284834e-24
8.336796543e-24
9.165758547e-24
1.45834955e-23
1.902483857e-23
1.828452546e-23
1.648030333e-23
1.461814309e-23
1.268262753e-23
1.305461851e-23
1.382766226e-23
1.514125541e-23
1.407178134e-23
1.273493876e-23
1.183402311e-23
6.039101141e-24
6.009308825e-29
6.009308825e-29
6.009308825e-29
6.009308825e-29
6.009308825e-29
6.009308825e-29
6.009308825e-29
6.009308825e-29
6.009308825e-29
6.009308825e-29
6.009308825e-29
6.009308825e-29
6.009308825e-29
6.009308825e-29
1.048379189e-24
9.205102687e-24
3.529504294e-23
1.058311736e-22
2.917694643e-22
1.719548723e-24
3.969426487e-24
5.406130472e-24
5.69211103e-24
6.844730794e-24
6.840814772e-24
9.053118229e-24
9.974686376e-24
1.432210423e-23
2.039721484e-23
2.059897795e-23
2.009726011e-23
1.747289764e-23
1.460651837e-23
1.423452739e-23
1.44612094e-23
1.540862392e-23
1.474601499e-23
1.461233073e-23
1.28569983e-23
4.818505742e-24
6.009308825e-29
6.009308825e-29
6.009308825e-29
6.009308825e-29
6.009308825e-29
6.009308825e-29
6.009308825e-29
6.009308825e-29
6.009308825e-29
6.009308825e-29
6.009308825e-29
6.009308825e-29
6.009308825e-29
6.009308825e-29
1.408323445e-24
1.051317771e-23
3.877040944e-23
1.148707334e-22
3.14096128e-22
1.552845268e-24
4.134336658e-24
4.959794853e-24
8.508095855e-24
9.631591992e-24
8.26653281e-24
1.115294625e-23
1.120239261e-23
1.503199523e-23
2.201956378e-23
2.365739178e-23
2.277776755e-23
1.879236498e-23
1.596661039e-23
1.698958558e-23
1.579223962e-23
1.682683953e-23
1.650134742e-23
1.514706776e-23
1.337429826e-23
4.870816973e-24
6.009308825e-29
6.009308825e-29
6.009308825e-29
6.009308825e-29
6.009308825e-29
6.009308825e-29
6.009308825e-29
6.009308825e-29
6.009308825e-29
6.009308825e-29
6.009308825e-29
6.009308825e-29
6.009308825e-29
6.009308825e-29
1.819443926e-24
1.192960287e-23
4.253286157e-23
1.245614452e-22
3.38034647e-22
1.559956098e-24
3.449302716e-24
5.019361189e-24
9.782898665e-24
1.119109734e-23
9.657253031e-24
1.256124783e-23
1.250561828e-23
1.635278165e-23
2.363012311e-23
2.59369495e-23
2.472544371e-23
2.178096867e-23
1.809974616e-23
1.882047868e-23
1.753594733e-23
1.71290822e-23
1.68733384e-23
1.557136998e-23
1.332779938e-23
3.679283369e-24
6.009308825e-29
6.009308825e-29
6.009308825e-29
6.009308825e-29
6.009308825e-29
6.009308825e-29
6.009308825e-29
6.009308825e-29
6.009308825e-29
6.009308825e-29
6.009308825e-29
6.009308825e-29
6.009308825e-29
6.009308825e-29
2.284667343e-24
1.34654461e-23
4.659946494e-23
1.34953702e-22
3.636869408e-22
1.258558464e-24
3.613553346e-24
5.171760384e-24
1.009233461e-23
1.177367294e-23
1.067587922e-23
1.287029217e-23
1.398333839e-23
1.791154502e-23
2.492774254e-23
2.728615878e-23
2.502756272e-23
2.386245275e-23
2.098848861e-23
1.90587854e-23
1.864610791e-23
1.887860227e-23
1.792537539e-23
1.639672496e-23
1.205489275e-23
9.707240536e-25
6.009308825e-29
6.009308825e-29
6.009308825e-29
6.009308825e-29
6.009308825e-29
6.009308825e-29
6.009308825e-29
6.009308825e-29
6.009308825e-29
6.009308825e-29
6.009308825e-29
6.009308825e-29
6.009308825e-29
6.009308825e-29
2.806837964e-24
1.513012645e-23
5.099078899e-23
1.460997724e-22
3.911620399e-22
1.358790702e-24
2.818063972e-24
4.672907427e-24
9.354865771e-24
1.073962952e-23
1.190983063e-23
1.543554174e-23
1.635659462e-23
1.97321737e-23
2.603899548e-23
2.807699e-23
2.633548778e-23
2.530400023e-23
2.187777954e-23
1.998295049e-23
1.955283592e-23
1.962258423e-23
1.732670241e-23
1.539118684e-23
8.9685301e-24
6.009308825e-29
6.009308825e-29
6.009308825e-29
6.009308825e-29
6.009308825e-29
6.009308825e-29
6.009308825e-29
6.009308825e-29
6.009308825e-29
6.009308825e-29
6.009308825e-29
6.009308825e-29
6.009308825e-29
6.009308825e-29
6.009308825e-29
3.389603873e-24
1.69352065e-23
5.572835122e-23
1.580548518e-22
4.205772806e-22
1.400796296e-24
3.051856804e-24
4.238134695e-24
7.343892594e-24
1.158986218e-23
1.398092663e-23
1.694234425e-23
1.981744214e-23
2.240190146e-23
2.75744888e-23
2.763494155e-23
2.789944518e-23
2.537317144e-23
2.4167849e-23
2.260432442e-23
2.092455266e-23
2.078505604e-23
1.707095861e-23
1.525750259e-23
5.632236008e-24
6.009308825e-29
6.009308825e-29
6.009308825e-29
6.009308825e-29
6.009308825e-29
6.009308825e-29
6.009308825e-29
6.009308825e-29
6.009308825e-29
6.009308825e-29
6.009308825e-29
6.009308825e-29
6.009308825e-29
6.009308825e-29
6.009308825e-29
4.038385669e-24
1.889216637e-23
6.083700805e-23
1.70875269e-22
4.520563267e-22
1.239328103e-24
2.989446042e-24
4.809477175e-24
6.496359927e-24
1.028855329e-23
1.294100902e-23
1.692599954e-23
2.110883699e-23
2.624044927e-23
2.94413278e-23
2.842002223e-23
2.896935207e-23
2.618716965e-23
2.447590403e-23
2.324949627e-23
2.277288283e-23
2.083736727e-23
1.723370466e-23
1.439146109e-23
2.6388711e-24
6.009308825e-29
6.009308825e-29
6.009308825e-29
6.009308825e-29
6.009308825e-29
6.009308825e-29
6.009308825e-29
6.009308825e-29
6.009308825e-29
6.009308825e-29
6.009308825e-29
6.009308825e-29
6.009308825e-29
6.009308825e-29
6.009308825e-29
4.757614641e-24
2.10142381e-23
6.634108006e-23
1.846225261e-22
4.857323642e-22
1.031340426e-24
3.311083801e-24
6.520948897e-24
6.422035898e-24
9.021747569e-24
1.274986071e-23
1.885153924e-23
2.382518729e-23
2.889249262e-23
3.149428597e-23
3.06706006e-23
2.899841387e-23
2.815863112e-23
2.60278039e-23
2.468514896e-23
2.315649853e-23
2.201727616e-23
1.830899109e-23
1.410084314e-23
6.009308825e-29
6.009308825e-29
6.009308825e-29
6.009308825e-29
6.009308825e-29
6.009308825e-29
6.009308825e-29
6.009308825e-29
6.009308825e-29
6.009308825e-29
6.009308825e-29
6.009308825e-29
6.009308825e-29
6.009308825e-29
6.009308825e-29
6.009308825e-29
5.552896882e-24
2.331327279e-23
7.226936031e-23
1.993603307e-22
5.2174806e-22
1.47000857e-24
4.115580184e-24
6.953124531e-24
7.098062673e-24
9.203146727e-24
1.333806317e-23
1.877068148e-23
2.401759284e-23
3.037557166e-23
3.254696188e-23
3.10019669e-23
2.964385366e-23
2.996110135e-23
2.673109934e-23
2.495832983e-23
2.373192207e-23
2.289494237e-23
1.778587877e-23
1.254894327e-23
6.009308825e-29
6.009308825e-29
6.009308825e-29
6.009308825e-29
6.009308825e-29
6.009308825e-29
6.009308825e-29
6.009308825e-29
6.009308825e-29
6.009308825e-29
6.009308825e-29
6.009308825e-29
6.009308825e-29
6.009308825e-29
6.009308825e-29
9.458049839e-26
6.429178948e-24
2.580338876e-23
7.86514869e-23
2.151571514e-22
5.60253171e-22
1.6004568e-24
5.350479685e-24
8.077032723e-24
8.297510922e-24
1.018729036e-23
1.437431193e-23
2.052788948e-23
2.564659917e-23
3.10444876e-23
3.423922401e-23
3.247915113e-23
3.111510187e-23
3.194361044e-23
2.877123737e-23
2.623704882e-23
2.534194553e-23
2.378423331e-23
1.821018098e-23
1.018331314e-23
6.009308825e-29
6.009308825e-29
6.009308825e-29
6.009308825e-29
6.009308825e-29
6.009308825e-29
6.009308825e-29
6.009308825e-29
6.009308825e-29
6.009308825e-29
6.009308825e-29
6.009308825e-29
6.009308825e-29
6.009308825e-29
6.009308825e-29
3.578608423e-25
7.392788304e-24
2.849938443e-23
8.551893229e-23
2.320847543e-22
6.014094907e-22
1.783175039e-24
5.648971061e-24
7.415825316e-24
1.111368124e-23
1.196220338e-23
1.659702392e-23
2.036584419e-23
2.448402431e-23
2.99109127e-23
3.536760487e-23
3.54973525e-23
3.379542382e-23
3.340265684e-23
3.058469339e-23
2.756807904e-23
2.598130503e-23
2.376679623e-23
1.696633615e-23
6.934204434e-24
6.009308825e-29
6.009308825e-29
6.009308825e-29
6.009308825e-29
6.009308825e-29
6.009308825e-29
6.009308825e-29
6.009308825e-29
6.009308825e-29
6.009308825e-29
6.009308825e-29
6.009308825e-29
6.009308825e-29
6.009308825e-29
6.009308825e-29
6.61022779e-25
8.449805091e-24
3.141535748e-23
9.290518875e-23
2.502194194e-22
6.453872012e-22
2.122600256e-24
5.220484732e-24
7.696591065e-24
1.280153254e-23
1.369055569e-23
1.670836561e-23
2.140710149e-23
2.447285303e-23
3.027773025e-23
3.629228523e-23
3.734075657e-23
3.393475555e-23
3.406491539e-23
3.056725631e-23
2.858524188e-23
2.550469158e-23
2.211608626e-23
1.531562618e-23
4.527887789e-24
6.009308825e-29
6.009308825e-29
6.009308825e-29
6.009308825e-29
6.009308825e-29
6.009308825e-29
6.009308825e-29
6.009308825e-29
6.009308825e-29
6.009308825e-29
6.009308825e-29
6.009308825e-29
6.009308825e-29
6.009308825e-29
6.009308825e-29
1.00699302e-24
9.608020132e-24
3.456893002e-23
1.008466341e-22
2.696425383e-22
6.923693045e-22
1.763140863e-24
5.750955204e-24
8.466130851e-24
1.400666948e-23
1.655293634e-23
1.730866683e-23
2.122844355e-23
2.514234607e-23
3.211598151e-23
3.740296107e-23
3.831179152e-23
3.449276263e-23
3.338979548e-23
3.005576872e-23
2.838762167e-23
2.515595004e-23
2.177896944e-23
1.353704431e-23
1.575209394e-24
6.009308825e-29
6.009308825e-29
6.009308825e-29
6.009308825e-29
6.009308825e-29
6.009308825e-29
6.009308825e-29
6.009308825e-29
6.009308825e-29
6.009308825e-29
6.009308825e-29
6.009308825e-29
6.009308825e-29
6.009308825e-29
6.009308825e-29
1.399110488e-24
1.087563646e-23
3.797716765e-23
1.093803262e-22
2.90440655e-22
7.42548613e-22
2.002890329e-24
5.228440598e-24
9.472307896e-24
1.406584422e-23
1.742629477e-23
1.840887216e-23
2.185727069e-23
2.634680286e-23
3.244196827e-23
3.799000933e-23
3.857916004e-23
3.532415669e-23
3.438377071e-23
3.022432713e-23
2.937572271e-23
2.561512641e-23
2.158134923e-23
1.145621977e-23
6.009308825e-29
6.009308825e-29
6.009308825e-29
6.009308825e-29
6.009308825e-29
6.009308825e-29
6.009308825e-29
6.009308825e-29
6.009308825e-29
6.009308825e-29
6.009308825e-29
6.009308825e-29
6.009308825e-29
6.009308825e-29
6.009308825e-29
6.009308825e-29
1.840137011e-24
1.226060979e-23
4.165771309e-23
1.18547672e-22
3.127045799e-22
7.961295019e-22
1.643101166e-24
5.066663245e-24
9.101203175e-24
1.174067388e-23
1.68111328e-23
1.996260637e-23
2.352160461e-23
2.883094735e-23
3.487913984e-23
3.818806236e-23
3.760241578e-23
3.680694718e-23
3.431971109e-23
3.050913272e-23
3.018945297e-23
2.680084765e-23
2.082574255e-23
9.689262621e-24
6.009308825e-29
6.009308825e-29
6.009308825e-29
6.009308825e-29
6.009308825e-29
6.009308825e-29
6.009308825e-29
6.009308825e-29
6.009308825e-29
6.009308825e-29
6.009308825e-29
6.009308825e-29
6.009308825e-29
6.009308825e-29
6.009308825e-29
6.009308825e-29
2.334462654e-24
1.377139047e-23
4.563099148e-23
1.283937468e-22
3.365319869e-22
8.533308151e-22
1.679067685e-24
3.986533163e-24
6.608051525e-24
9.81723647e-24
1.418963521e-23
1.844580737e-23
2.288296649e-23
2.8442117e-23
3.617090568e-23
3.918943697e-23
3.778878226e-23
3.717341434e-23
3.586081067e-23
3.071256529e-23
2.917229014e-23
2.716121391e-23
1.951214941e-23
7.329444849e-24
6.009308825e-29
6.009308825e-29
6.009308825e-29
6.009308825e-29
6.009308825e-29
6.009308825e-29
6.009308825e-29
6.009308825e-29
6.009308825e-29
6.009308825e-29
6.009308825e-29
6.009308825e-29
6.009308825e-29
6.009308825e-29
6.009308825e-29
6.009308825e-29
2.886456875e-24
1.54182014e-23
4.991765468e-23
1.38962307e-22
3.620251254e-22
9.143837419e-22
1.209297134e-24
3.493739893e-24
5.807223836e-24
9.173404308e-24
1.316206368e-23
1.786576689e-23
2.348304099e-23
2.861156167e-23
3.694508302e-23
4.021342209e-23
3.931856628e-23
3.923830638e-23
3.707629447e-23
3.118917873e-23
2.893398342e-23
2.632423421e-23
1.824505514e-23
5.49855175e-24
6.009308825e-29
6.009308825e-29
6.009308825e-29
6.009308825e-29
6.009308825e-29
6.009308825e-29
6.009308825e-29
6.009308825e-29
6.009308825e-29
6.009308825e-29
6.009308825e-29
6.009308825e-29
6.009308825e-29
6.009308825e-29
6.009308825e-29
6.009308825e-29
3.501169279e-24
1.721081201e-23
5.453996219e-23
1.503029419e-22
3.892942623e-22
9.795341469e-22
1.496555394e-24
3.751895136e-24
6.443203028e-24
1.008858284e-23
1.422838416e-23
1.865841183e-23
2.39436601e-23
2.900803872e-23
3.748080936e-23
4.067937951e-23
3.952257594e-23
4.011075795e-23
3.746578436e-23
3.13926113e-23
2.887585983e-23
2.674272406e-23
1.714070692e-23
2.336628429e-24
6.009308825e-29
6.009308825e-29
6.009308825e-29
6.009308825e-29
6.009308825e-29
6.009308825e-29
6.009308825e-29
6.009308825e-29
6.009308825e-29
6.009308825e-29
6.009308825e-29
6.009308825e-29
6.009308825e-29
6.009308825e-29
6.009308825e-29
6.009308825e-29
4.182783829e-24
1.915892991e-23
5.95219048e-23
1.62469775e-22
4.184553325e-22
1.049044053e-21
1.504634923e-24
4.713696205e-24
7.922984204e-24
1.334164879e-23
1.60443959e-23
2.093945352e-23
2.591644065e-23
2.951515671e-23
3.747584204e-23
4.137203955e-23
4.047108283e-23
3.957593847e-23
3.629688187e-23
3.176460227e-23
2.950940697e-23
2.666716339e-23
1.71290822e-23
9.126004632e-25
6.009308825e-29
6.009308825e-29
6.009308825e-29
6.009308825e-29
6.009308825e-29
6.009308825e-29
6.009308825e-29
6.009308825e-29
6.009308825e-29
6.009308825e-29
6.009308825e-29
6.009308825e-29
6.009308825e-29
6.009308825e-29
6.009308825e-29
6.009308825e-29
4.936061581e-24
2.127399402e-23
6.488912215e-23
1.755173833e-22
4.496325976e-22
1.123189396e-21
1.548227537e-24
4.948993614e-24
1.033832847e-23
1.5681453e-23
1.892503805e-23
2.088304062e-23
2.552829046e-23
3.005121282e-23
3.618572505e-23
4.178510864e-23
4.243716477e-23
4.058244529e-23
3.637837856e-23
3.161348094e-23
2.866080254e-23
2.582437133e-23
1.602473398e-23
6.009308825e-29
6.009308825e-29
6.009308825e-29
6.009308825e-29
6.009308825e-29
6.009308825e-29
6.009308825e-29
6.009308825e-29
6.009308825e-29
6.009308825e-29
6.009308825e-29
6.009308825e-29
6.009308825e-29
6.009308825e-29
6.009308825e-29
6.009308825e-29
6.009308825e-29
5.767433057e-24
2.356981346e-23
7.066989203e-23
1.895059498e-22
4.829564611e-22
1.202266803e-21
2.104173394e-24
5.09749724e-24
9.538593144e-24
1.653281925e-23
1.981671982e-23
2.105920451e-23
2.558779496e-23
3.157025837e-23
3.651812188e-23
4.201919002e-23
4.371120498e-23
4.036747045e-23
3.818701154e-23
3.190991125e-23
2.813769023e-23
2.354592659e-23
1.39497218e-23
6.009308825e-29
6.009308825e-29
6.009308825e-29
6.009308825e-29
6.009308825e-29
6.009308825e-29
6.009308825e-29
6.009308825e-29
6.009308825e-29
6.009308825e-29
6.009308825e-29
6.009308825e-29
6.009308825e-29
6.009308825e-29
6.009308825e-29
6.009308825e-29
6.009308825e-29
6.681350156e-24
2.605863095e-23
7.689164721e-23
2.044982959e-22
5.185675081e-22
1.286586425e-21
1.997262992e-24
4.95527986e-24
9.419089324e-24
1.640715269e-23
1.895265695e-23
2.138686074e-23
2.567071379e-23
3.115867325e-23
3.802543966e-23
4.241574952e-23
4.433382816e-23
4.095493092e-23
3.943765804e-23
3.276432803e-23
2.769595094e-23
2.152322564e-23
1.121791305e-23
6.009308825e-29
6.009308825e-29
6.009308825e-29
6.009308825e-29
6.009308825e-29
6.009308825e-29
6.009308825e-29
6.009308825e-29
6.009308825e-29
6.009308825e-29
6.009308825e-29
6.009308825e-29
6.009308825e-29
6.009308825e-29
6.009308825e-29
6.009308825e-29
2.606404429e-25
7.685418203e-24
2.875452357e-23
8.358462351e-23
2.205620862e-22
5.566137232e-22
1.376479617e-21
1.645862519e-24
4.737584255e-24
9.846318245e-24
1.583383143e-23
1.935004087e-23
2.293566885e-23
2.645214623e-23
3.173595175e-23
3.793345184e-23
4.344534089e-23
4.468273459e-23
4.233915863e-23
4.011228329e-23
3.449641103e-23
2.862592839e-23
2.051187516e-23
8.259422296e-24
6.009308825e-29
6.009308825e-29
6.009308825e-29
6.009308825e-29
6.009308825e-29
6.009308825e-29
6.009308825e-29
6.009308825e-29
6.009308825e-29
6.009308825e-29
6.009308825e-29
6.009308825e-29
6.009308825e-29
6.009308825e-29
6.009308825e-29
6.009308825e-29
6.074763305e-25
8.785985277e-24
3.167303173e-23
9.078216894e-23
2.377684892e-22
5.972523242e-22
1.472298946e-21
1.888229536e-24
5.770225997e-24
1.114630789e-23
1.344614727e-23
1.699679805e-23
2.160577221e-23
2.808187393e-23
3.369721064e-23
3.968499175e-23
4.373680388e-23
4.454356774e-23
4.1391538e-23
3.983883448e-23
3.472309303e-23
2.82132509e-23
1.85763596e-23
4.649947329e-24
6.009308825e-29
6.009308825e-29
6.009308825e-29
6.009308825e-29
6.009308825e-29
6.009308825e-29
6.009308825e-29
6.009308825e-29
6.009308825e-29
6.009308825e-29
6.009308825e-29
6.009308825e-29
6.009308825e-29
6.009308825e-29
6.009308825e-29
6.009308825e-29
9.991609756e-25
9.991563573e-24
3.483006685e-23
9.852008419e-23
2.561930637e-22
6.406493917e-22
1.574416002e-21
2.689572333e-24
7.204559443e-24
1.132950018e-23
1.229173438e-23
1.575476695e-23
2.088670915e-23
2.740327067e-23
3.308810835e-23
3.965129241e-23
4.391164869e-23
4.287535886e-23
4.064761788e-23
3.759415091e-23
3.281663926e-23
2.590574436e-23
1.571086659e-23
1.279319921e-25
6.009308825e-29
6.009308825e-29
6.009308825e-29
6.009308825e-29
6.009308825e-29
6.009308825e-29
6.009308825e-29
6.009308825e-29
6.009308825e-29
6.009308825e-29
6.009308825e-29
6.009308825e-29
6.009308825e-29
6.009308825e-29
6.009308825e-29
6.009308825e-29
1.439569179e-24
1.130905766e-23
3.824193196e-23
1.068338402e-22
2.759150369e-22
6.869834551e-22
1.683226054e-21
2.827564215e-24
7.062527559e-24
1.048946994e-23
1.182948688e-23
1.555972307e-23
2.094143183e-23
2.867891852e-23
3.375284018e-23
3.806499243e-23
4.34476905e-23
4.293428627e-23
4.141581797e-23
3.599546363e-23
3.203778315e-23
2.469096132e-23
1.275237584e-23
6.009308825e-29
6.009308825e-29
6.009308825e-29
6.009308825e-29
6.009308825e-29
6.009308825e-29
6.009308825e-29
6.009308825e-29
6.009308825e-29
6.009308825e-29
6.009308825e-29
6.009308825e-29
6.009308825e-29
6.009308825e-29
6.009308825e-29
6.009308825e-29
6.009308825e-29
1.931153607e-24
1.274656751e-23
4.192763006e-23
1.157631742e-22
2.970209529e-22
7.364426484e-22
1.799149065e-21
2.517138804e-24
5.880021573e-24
9.481808772e-24
1.218162918e-23
1.607421982e-23
2.177569077e-23
2.926254526e-23
3.227724297e-23
3.672897428e-23
4.241960371e-23
4.167318985e-23
4.110813393e-23
3.461762537e-23
2.924785081e-23
2.147672677e-23
8.997591895e-24
6.009308825e-29
6.009308825e-29
6.009308825e-29
6.009308825e-29
6.009308825e-29
6.009308825e-29
6.009308825e-29
6.009308825e-29
6.009308825e-29
6.009308825e-29
6.009308825e-29
6.009308825e-29
6.009308825e-29
6.009308825e-29
6.009308825e-29
6.009308825e-29
6.009308825e-29
2.478819593e-24
1.431396563e-23
4.590649393e-23
1.253493488e-22
3.196027969e-22
7.892263177e-22
1.922628989e-21
2.188925935e-24
5.749799903e-24
9.321783324e-24
1.439442713e-23
1.732130053e-23
2.358075795e-23
2.931685572e-23
3.170330339e-23
3.62943046e-23
4.237984468e-23
4.141839415e-23
4.021336041e-23
3.369933448e-23
2.732977232e-23
1.993063926e-23
5.341618056e-24
6.009308825e-29
6.009308825e-29
6.009308825e-29
6.009308825e-29
6.009308825e-29
6.009308825e-29
6.009308825e-29
6.009308825e-29
6.009308825e-29
6.009308825e-29
6.009308825e-29
6.009308825e-29
6.009308825e-29
6.009308825e-29
6.009308825e-29
6.009308825e-29
6.009308825e-29
3.085761785e-24
1.602079475e-23
5.019781514e-23
1.356366974e-22
3.437550895e-22
8.455464846e-22
2.05413781e-21
2.71104878e-24
7.271401178e-24
1.057537715e-23
1.496731541e-23
1.868469025e-23
2.31932879e-23
2.841159106e-23
3.173997067e-23
3.679023069e-23
4.239309764e-23
4.246649434e-23
3.830690664e-23
3.369457326e-23
2.642885667e-23
1.725114174e-23
1.628061464e-25
6.009308825e-29
6.009308825e-29
6.009308825e-29
6.009308825e-29
6.009308825e-29
6.009308825e-29
6.009308825e-29
6.009308825e-29
6.009308825e-29
6.009308825e-29
6.009308825e-29
6.009308825e-29
6.009308825e-29
6.009308825e-29
6.009308825e-29
6.009308825e-29
6.009308825e-29
3.757545058e-24
1.787742201e-23
5.482599669e-23
1.46674933e-22
3.695818937e-22
9.056285266e-22
2.194177272e-21
3.005850693e-24
8.170379272e-24
1.328317372e-23
1.819787391e-23
2.073447421e-23
2.380603827e-23
2.850052835e-23
3.296868682e-23
3.918762261e-23
4.24527258e-23
4.285697354e-23
3.719118103e-23
3.210186322e-23
2.369704792e-23
1.29558084e-23
6.009308825e-29
6.009308825e-29
6.009308825e-29
6.009308825e-29
6.009308825e-29
6.009308825e-29
6.009308825e-29
6.009308825e-29
6.009308825e-29
6.009308825e-29
6.009308825e-29
6.009308825e-29
6.009308825e-29
6.009308825e-29
6.009308825e-29
6.009308825e-29
6.009308825e-29
6.009308825e-29
4.499775507e-24
1.989450312e-23
5.981245303e-23
1.58512779e-22
3.971932497e-22
9.697105584e-22
2.34327439e-21
2.498031791e-24
8.633780818e-24
1.305395645e-23
1.995716358e-23
2.356874115e-23
2.55410892e-23
3.054928179e-23
3.563355031e-23
4.060796111e-23
4.253488203e-23
4.290427623e-23
3.670327265e-23
3.228276772e-23
2.204052559e-23
9.567203081e-24
6.009308825e-29
6.009308825e-29
6.009308825e-29
6.009308825e-29
6.009308825e-29
6.009308825e-29
6.009308825e-29
6.009308825e-29
6.009308825e-29
6.009308825e-29
6.009308825e-29
6.009308825e-29
6.009308825e-29
6.009308825e-29
6.009308825e-29
6.009308825e-29
6.009308825e-29
6.009308825e-29
5.318100446e-24
2.208285867e-23
6.518393678e-23
1.712032873e-22
4.267044123e-22
1.038046544e-21
2.50199169e-21
2.828120071e-24
8.980914573e-24
1.348198918e-23
2.058242493e-23
2.438545996e-23
2.759612903e-23
3.210402592e-23
3.57688422e-23
4.113828731e-23
4.350717424e-23
4.260232211e-23
3.672736712e-23
3.176567387e-23
2.167434697e-23
7.93393019e-24
6.009308825e-29
6.009308825e-29
6.009308825e-29
6.009308825e-29
6.009308825e-29
6.009308825e-29
6.009308825e-29
6.009308825e-29
6.009308825e-29
6.009308825e-29
6.009308825e-29
6.009308825e-29
6.009308825e-29
6.009308825e-29
6.009308825e-29
6.009308825e-29
6.009308825e-29
6.009308825e-29
6.217878644e-24
2.445518482e-23
7.096579902e-23
1.848038379e-22
4.582364071e-22
1.110904423e-21
2.67092416e-21
3.193845099e-24
9.793779036e-24
1.42596085e-23
2.027148425e-23
2.251563225e-23
2.607465126e-23
3.232675052e-23
3.678812793e-23
4.01449304e-23
4.345014301e-23
4.157982096e-23
3.502374821e-23
3.012601152e-23
1.984345387e-23
5.016125949e-24
6.009308825e-29
6.009308825e-29
6.009308825e-29
6.009308825e-29
6.009308825e-29
6.009308825e-29
6.009308825e-29
6.009308825e-29
6.009308825e-29
6.009308825e-29
6.009308825e-29
6.009308825e-29
6.009308825e-29
6.009308825e-29
6.009308825e-29
6.009308825e-29
6.009308825e-29
6.009308825e-29
7.206447488e-24
2.702607389e-23
7.718778092e-23
1.993763452e-22
4.919208538e-22
1.188569053e-21
2.850702857e-21
3.949863831e-24
1.058304368e-23
1.461168897e-23
1.893117892e-23
2.145982336e-23
2.533819235e-23
3.072356996e-23
3.578939148e-23
4.038478292e-23
4.30788734e-23
3.943477192e-23
3.322729644e-23
2.660840071e-23
1.547255987e-23
7.562076068e-26
6.009308825e-29
6.009308825e-29
6.009308825e-29
6.009308825e-29
6.009308825e-29
6.009308825e-29
6.009308825e-29
6.009308825e-29
6.009308825e-29
6.009308825e-29
6.009308825e-29
6.009308825e-29
6.009308825e-29
6.009308825e-29
6.009308825e-29
6.009308825e-29
6.009308825e-29
3.507501708e-25
8.290773376e-24
2.981009761e-23
8.387826333e-23
2.149838571e-22
5.278976573e-22
1.27134335e-21
3.041994762e-21
4.30979711e-24
1.1424702e-23
1.687729281e-23
2.088815064e-23
2.141583899e-23
2.479391227e-23
3.063861052e-23
3.600049137e-23
3.922292943e-23
4.264956265e-23
3.953978599e-23
3.20765524e-23
2.485259424e-23
1.203164332e-23
6.009308825e-29
6.009308825e-29
6.009308825e-29
6.009308825e-29
6.009308825e-29
6.009308825e-29
6.009308825e-29
6.009308825e-29
6.009308825e-29
6.009308825e-29
6.009308825e-29
6.009308825e-29
6.009308825e-29
6.009308825e-29
6.009308825e-29
6.009308825e-29
6.009308825e-29
6.009308825e-29
7.54409599e-25
9.477080722e-24
3.282186893e-23
9.106979045e-23
2.316949864e-22
5.66311257e-22
1.359547047e-21
3.245509582e-21
4.068996344e-24
1.151510265e-23
1.76185334e-23
2.189682157e-23
2.187179994e-23
2.474941263e-23
3.031419017e-23
3.491419855e-23
3.934035142e-23
4.252268006e-23
3.969807999e-23
3.157139243e-23
2.147443883e-23
8.009490857e-24
6.009308825e-29
6.009308825e-29
6.009308825e-29
6.009308825e-29
6.009308825e-29
6.009308825e-29
6.009308825e-29
6.009308825e-29
6.009308825e-29
6.009308825e-29
6.009308825e-29
6.009308825e-29
6.009308825e-29
6.009308825e-29