/*--------------------------------*- C++ -*----------------------------------*\
| =========                 |                                                 |
| \\      /  F ield         | OpenFOAM: The Open Source CFD Toolbox           |
|  \\    /   O peration     | Version:  v2006                                 |
|   \\  /    A nd           | Website:  www.openfoam.com                      |
|    \\/     M anipulation  |                                                 |
\*---------------------------------------------------------------------------*/
FoamFile
{
    version     2.0;
    format      ascii;
    class       volScalarField;
    location    "0.12";
    object      OH;
}
// * * * * * * * * * * * * * * * * * * * * * * * * * * * * * * * * * * * * * //

dimensions      [0 0 0 0 0 0 0];


internalField   nonuniform List<scalar> 
168000
(
6.684092176e-18
6.683943413e-18
6.6820418e-18
6.68139954e-18
6.681376185e-18
6.681376185e-18
6.681808906e-18
6.682844344e-18
6.684201587e-18
6.687213481e-18
6.683369791e-18
6.683524334e-18
6.682179809e-18
6.681391639e-18
6.682875253e-18
6.685484641e-18
6.684518227e-18
6.682087083e-18
6.685189622e-18
6.684420683e-18
6.683174396e-18
6.681623454e-18
6.681468911e-18
6.682126239e-18
6.681376185e-18
6.681376185e-18
6.681376185e-18
6.681376185e-18
6.681376185e-18
6.681376185e-18
6.681376185e-18
6.681376185e-18
6.681376185e-18
6.681376185e-18
6.681376185e-18
6.681376185e-18
6.939938454e-18
1.519525881e-17
3.278731386e-17
9.174900499e-17
6.689495252e-18
6.687028265e-18
6.683081094e-18
6.681925026e-18
6.681469605e-18
6.681376185e-18
6.687239226e-18
6.691314384e-18
6.695006615e-18
6.696447989e-18
6.691996416e-18
6.6920074e-18
6.688778798e-18
6.684497955e-18
6.687836085e-18
6.691299584e-18
6.691198264e-18
6.685718845e-18
6.690154231e-18
6.691039944e-18
6.689514785e-18
6.683787057e-18
6.687798009e-18
6.681376185e-18
6.681376185e-18
6.681376185e-18
6.681376185e-18
6.681376185e-18
6.681376185e-18
6.681376185e-18
6.681376185e-18
6.681376185e-18
6.681376185e-18
6.681376185e-18
6.681376185e-18
6.681376185e-18
7.432680461e-18
1.593941648e-17
3.578456693e-17
9.810223097e-17
6.691529211e-18
6.687709413e-18
6.684610841e-18
6.683046061e-18
6.682368769e-18
6.683289822e-18
6.688021229e-18
6.692020465e-18
6.702907235e-18
6.704100993e-18
6.696355224e-18
6.696933546e-18
6.689937871e-18
6.686151566e-18
6.691637845e-18
6.697812361e-18
6.696335954e-18
6.690787858e-18
6.693183275e-18
6.695671419e-18
6.693925082e-18
6.687202459e-18
6.691729261e-18
6.681376185e-18
6.681376185e-18
6.681376185e-18
6.681376185e-18
6.681376185e-18
6.681376185e-18
6.681376185e-18
6.681376185e-18
6.681376185e-18
6.681376185e-18
6.681376185e-18
6.681376185e-18
6.681376185e-18
7.916430825e-18
1.682321319e-17
3.890590467e-17
1.050336312e-16
6.693115997e-18
6.693079073e-18
6.686152265e-18
6.684575808e-18
6.68862341e-18
6.690912304e-18
6.694217751e-18
6.694773066e-18
6.706660242e-18
6.711600148e-18
6.703422005e-18
6.699176463e-18
6.692426014e-18
6.688948795e-18
6.697927747e-18
6.702811308e-18
6.701698598e-18
6.698932277e-18
6.694295985e-18
6.700802248e-18
6.699334089e-18
6.692874189e-18
6.692157858e-18
6.681376185e-18
6.681376185e-18
6.681376185e-18
6.681376185e-18
6.681376185e-18
6.681376185e-18
6.681376185e-18
6.681376185e-18
6.681376185e-18
6.681376185e-18
6.681376185e-18
6.681376185e-18
6.681376185e-18
8.403742813e-18
1.78383346e-17
4.21821906e-17
1.125622868e-16
6.696491706e-18
6.697373446e-18
6.691249221e-18
6.692115238e-18
6.688605606e-18
6.690664727e-18
6.696804171e-18
6.698864372e-18
6.70868888e-18
6.71758717e-18
6.714253124e-18
6.705917663e-18
6.696289591e-18
6.692951461e-18
6.70066316e-18
6.704604008e-18
6.707323966e-18
6.70543854e-18
6.696722312e-18
6.703954927e-18
6.702656765e-18
6.694187805e-18
6.687534245e-18
6.681376185e-18
6.681376185e-18
6.681376185e-18
6.681376185e-18
6.681376185e-18
6.681376185e-18
6.681376185e-18
6.681376185e-18
6.681376185e-18
6.681376185e-18
6.681376185e-18
6.681376185e-18
6.681376185e-18
8.905114461e-18
1.898235177e-17
4.564243152e-17
1.207141682e-16
6.697810911e-18
6.700435905e-18
6.698671876e-18
6.693721871e-18
6.690573198e-18
6.691778517e-18
6.698290252e-18
6.705535547e-18
6.714759379e-18
6.722268476e-18
6.720900904e-18
6.708334701e-18
6.703135849e-18
6.697170486e-18
6.704665825e-18
6.707354875e-18
6.713196602e-18
6.708683945e-18
6.700910429e-18
6.705886715e-18
6.70267222e-18
6.693461453e-18
6.681376185e-18
6.681376185e-18
6.681376185e-18
6.681376185e-18
6.681376185e-18
6.681376185e-18
6.681376185e-18
6.681376185e-18
6.681376185e-18
6.681376185e-18
6.681376185e-18
6.681376185e-18
6.681376185e-18
6.723368323e-18
9.429105345e-18
2.025470421e-17
4.931451321e-17
1.295186677e-16
6.696789579e-18
6.70071655e-18
6.699511613e-18
6.700887622e-18
6.693954648e-18
6.695122545e-18
6.70087802e-18
6.704461299e-18
6.714005548e-18
6.725796876e-18
6.725497039e-18
6.712481273e-18
6.705191272e-18
6.702177682e-18
6.707277603e-18
6.712454796e-18
6.717848349e-18
6.711079362e-18
6.704696734e-18
6.704449465e-18
6.699936807e-18
6.690741495e-18
6.681376185e-18
6.681376185e-18
6.681376185e-18
6.681376185e-18
6.681376185e-18
6.681376185e-18
6.681376185e-18
6.681376185e-18
6.681376185e-18
6.681376185e-18
6.681376185e-18
6.681376185e-18
6.681376185e-18
6.823175554e-18
9.98377291e-18
2.165678153e-17
5.322480335e-17
1.390088092e-16
6.696411855e-18
6.698681786e-18
6.697960055e-18
6.704155766e-18
6.69894955e-18
6.702049929e-18
6.705320306e-18
6.705479241e-18
6.714880624e-18
6.728675848e-18
6.72888292e-18
6.719980774e-18
6.71013665e-18
6.709935744e-18
6.713273874e-18
6.713629323e-18
6.720753758e-18
6.716751093e-18
6.707926684e-18
6.705963987e-18
6.699318635e-18
6.683771603e-18
6.681376185e-18
6.681376185e-18
6.681376185e-18
6.681376185e-18
6.681376185e-18
6.681376185e-18
6.681376185e-18
6.681376185e-18
6.681376185e-18
6.681376185e-18
6.681376185e-18
6.681376185e-18
6.681376185e-18
6.94785577e-18
1.057578498e-17
2.319047548e-17
5.739914416e-17
1.492225559e-16
6.697731407e-18
6.698425654e-18
6.698554951e-18
6.70515864e-18
6.70080137e-18
6.701132306e-18
6.704463498e-18
6.70660571e-18
6.717575185e-18
6.732539463e-18
6.731653017e-18
6.721931447e-18
6.717291994e-18
6.713567506e-18
6.716179284e-18
6.715823835e-18
6.720568307e-18
6.718203798e-18
6.713722049e-18
6.709657566e-18
6.697278667e-18
6.681376185e-18
6.681376185e-18
6.681376185e-18
6.681376185e-18
6.681376185e-18
6.681376185e-18
6.681376185e-18
6.681376185e-18
6.681376185e-18
6.681376185e-18
6.681376185e-18
6.681376185e-18
6.681376185e-18
6.681376185e-18
7.098856976e-18
1.121145907e-17
2.486187e-17
6.186288741e-17
1.60201328e-16
6.701772692e-18
6.702030402e-18
6.701863638e-18
6.703578563e-18
6.706898693e-18
6.70320804e-18
6.707842866e-18
6.708803344e-18
6.723557081e-18
6.735761205e-18
6.732584053e-18
6.726438632e-18
6.720243766e-18
6.715097482e-18
6.716086558e-18
6.718141981e-18
6.721634654e-18
6.718791061e-18
6.715236571e-18
6.712841153e-18
6.69743321e-18
6.681376185e-18
6.681376185e-18
6.681376185e-18
6.681376185e-18
6.681376185e-18
6.681376185e-18
6.681376185e-18
6.681376185e-18
6.681376185e-18
6.681376185e-18
6.681376185e-18
6.681376185e-18
6.681376185e-18
6.681376185e-18
7.275326718e-18
1.189671565e-17
2.667860217e-17
6.664255261e-17
1.719903872e-16
6.705067352e-18
6.708050839e-18
6.709186014e-18
6.707331301e-18
6.708117927e-18
6.70589921e-18
6.710537813e-18
6.711523688e-18
6.722955057e-18
6.7397821e-18
6.739377127e-18
6.736997085e-18
6.728333962e-18
6.720212858e-18
6.719223782e-18
6.7198265e-18
6.722345552e-18
6.720583761e-18
6.720228312e-18
6.715561111e-18
6.694187805e-18
6.681376185e-18
6.681376185e-18
6.681376185e-18
6.681376185e-18
6.681376185e-18
6.681376185e-18
6.681376185e-18
6.681376185e-18
6.681376185e-18
6.681376185e-18
6.681376185e-18
6.681376185e-18
6.681376185e-18
6.681376185e-18
7.47926184e-18
1.263783718e-17
2.864765509e-17
7.176413376e-17
1.846400984e-16
6.705670148e-18
6.709709692e-18
6.708685003e-18
6.71639932e-18
6.717073642e-18
6.710643066e-18
6.717004304e-18
6.715520226e-18
6.725284226e-18
6.744490885e-18
6.748136675e-18
6.744693716e-18
6.731877122e-18
6.723829165e-18
6.726549123e-18
6.723365536e-18
6.726116403e-18
6.725250962e-18
6.721650108e-18
6.716936545e-18
6.694326894e-18
6.681376185e-18
6.681376185e-18
6.681376185e-18
6.681376185e-18
6.681376185e-18
6.681376185e-18
6.681376185e-18
6.681376185e-18
6.681376185e-18
6.681376185e-18
6.681376185e-18
6.681376185e-18
6.681376185e-18
6.681376185e-18
7.712192089e-18
1.344034711e-17
3.077936332e-17
7.725464084e-17
1.982030452e-16
6.706421282e-18
6.708353183e-18
6.709656968e-18
6.720858139e-18
6.722231335e-18
6.715224133e-18
6.721713475e-18
6.719694316e-18
6.729574743e-18
6.749075342e-18
6.754825346e-18
6.750174523e-18
6.740416185e-18
6.729500896e-18
6.73141723e-18
6.728001828e-18
6.726920027e-18
6.726240037e-18
6.722778273e-18
6.71681291e-18
6.691158761e-18
6.681376185e-18
6.681376185e-18
6.681376185e-18
6.681376185e-18
6.681376185e-18
6.681376185e-18
6.681376185e-18
6.681376185e-18
6.681376185e-18
6.681376185e-18
6.681376185e-18
6.681376185e-18
6.681376185e-18
6.681376185e-18
7.975775665e-18
1.431051623e-17
3.30833958e-17
8.314262522e-17
2.127369726e-16
6.706096434e-18
6.709638358e-18
6.710782782e-18
6.722459607e-18
6.7245358e-18
6.718757736e-18
6.723093072e-18
6.724402099e-18
6.734312048e-18
6.753350752e-18
6.758831133e-18
6.750908082e-18
6.746322506e-18
6.737181686e-18
6.732050857e-18
6.730953601e-18
6.731571773e-18
6.729037267e-18
6.724972784e-18
6.713428417e-18
6.683957054e-18
6.681376185e-18
6.681376185e-18
6.681376185e-18
6.681376185e-18
6.681376185e-18
6.681376185e-18
6.681376185e-18
6.681376185e-18
6.681376185e-18
6.681376185e-18
6.681376185e-18
6.681376185e-18
6.681376185e-18
6.681376185e-18
8.271624057e-18
1.525368113e-17
3.557140662e-17
8.945770095e-17
2.283036543e-16
6.707164902e-18
6.707976538e-18
6.710025907e-18
6.720893944e-18
6.722100225e-18
6.723014955e-18
6.731041134e-18
6.731735073e-18
6.739919958e-18
6.75692143e-18
6.761131436e-18
6.754467043e-18
6.750201884e-18
6.739546195e-18
6.734508091e-18
6.733364473e-18
6.733549924e-18
6.727445473e-18
6.722299189e-18
6.70522218e-18
6.681376185e-18
6.681376185e-18
6.681376185e-18
6.681376185e-18
6.681376185e-18
6.681376185e-18
6.681376185e-18
6.681376185e-18
6.681376185e-18
6.681376185e-18
6.681376185e-18
6.681376185e-18
6.681376185e-18
6.681376185e-18
6.681376185e-18
8.601804174e-18
1.627639288e-17
3.825558705e-17
9.623114024e-17
2.449695702e-16
6.708020439e-18
6.709330391e-18
6.709520772e-18
6.715605141e-18
6.725279073e-18
6.729591014e-18
6.735837867e-18
6.742343358e-18
6.748064456e-18
6.76158524e-18
6.759781747e-18
6.758869478e-18
6.750060367e-18
6.745635192e-18
6.741477984e-18
6.737011689e-18
6.736640786e-18
6.726765484e-18
6.72194374e-18
6.696351408e-18
6.681376185e-18
6.681376185e-18
6.681376185e-18
6.681376185e-18
6.681376185e-18
6.681376185e-18
6.681376185e-18
6.681376185e-18
6.681376185e-18
6.681376185e-18
6.681376185e-18
6.681376185e-18
6.681376185e-18
6.681376185e-18
6.681376185e-18
8.969387189e-18
1.738515582e-17
4.115002011e-17
1.034948576e-16
2.628047849e-16
6.708311721e-18
6.710024525e-18
6.7120162e-18
6.71395604e-18
6.722190987e-18
6.727104953e-18
6.736410409e-18
6.746369764e-18
6.759618883e-18
6.7671533e-18
6.762101627e-18
6.761958297e-18
6.752375777e-18
6.74645427e-18
6.743193412e-18
6.741926159e-18
6.736779874e-18
6.727198204e-18
6.719641048e-18
6.68839244e-18
6.681376185e-18
6.681376185e-18
6.681376185e-18
6.681376185e-18
6.681376185e-18
6.681376185e-18
6.681376185e-18
6.681376185e-18
6.681376185e-18
6.681376185e-18
6.681376185e-18
6.681376185e-18
6.681376185e-18
6.681376185e-18
6.681376185e-18
9.376883754e-18
1.858746686e-17
4.42684852e-17
1.112836986e-16
2.818847583e-16
6.708467691e-18
6.71198387e-18
6.718054481e-18
6.714455782e-18
6.718985432e-18
6.726968639e-18
6.742459981e-18
6.754707961e-18
6.767576889e-18
6.773285963e-18
6.768759736e-18
6.762035569e-18
6.758222014e-18
6.75058057e-18
6.747010625e-18
6.742946143e-18
6.739917099e-18
6.730057251e-18
6.718868333e-18
6.681376185e-18
6.681376185e-18
6.681376185e-18
6.681376185e-18
6.681376185e-18
6.681376185e-18
6.681376185e-18
6.681376185e-18
6.681376185e-18
6.681376185e-18
6.681376185e-18
6.681376185e-18
6.681376185e-18
6.681376185e-18
6.681376185e-18
6.681376185e-18
9.827470138e-18
1.989004056e-17
4.762729573e-17
1.196337581e-16
3.022903216e-16
6.711179866e-18
6.71547115e-18
6.720365845e-18
6.71726442e-18
6.720153486e-18
6.729183462e-18
6.742535557e-18
6.7555566e-18
6.772043223e-18
6.776445193e-18
6.769675664e-18
6.763902804e-18
6.763374851e-18
6.752450541e-18
6.747736978e-18
6.744476119e-18
6.742250699e-18
6.728666363e-18
6.714742033e-18
6.681376185e-18
6.681376185e-18
6.681376185e-18
6.681376185e-18
6.681376185e-18
6.681376185e-18
6.681376185e-18
6.681376185e-18
6.681376185e-18
6.681376185e-18
6.681376185e-18
6.681376185e-18
6.681376185e-18
6.681376185e-18
6.681376185e-18
6.734929006e-18
1.032394893e-17
2.130087598e-17
5.124324387e-17
1.285838288e-16
3.241063233e-16
6.712979543e-18
6.720265532e-18
6.724551305e-18
6.721639108e-18
6.723816235e-18
6.732868525e-18
6.748265407e-18
6.760759615e-18
6.774100727e-18
6.78143285e-18
6.774079834e-18
6.768221454e-18
6.768925028e-18
6.757875003e-18
6.751136925e-18
6.748756962e-18
6.744615208e-18
6.729794528e-18
6.70845213e-18
6.681376185e-18
6.681376185e-18
6.681376185e-18
6.681376185e-18
6.681376185e-18
6.681376185e-18
6.681376185e-18
6.681376185e-18
6.681376185e-18
6.681376185e-18
6.681376185e-18
6.681376185e-18
6.681376185e-18
6.681376185e-18
6.681376185e-18
6.884096851e-18
1.086990511e-17
2.282835751e-17
5.513416111e-17
1.381745716e-16
3.474244314e-16
6.714894954e-18
6.722221448e-18
6.723583581e-18
6.730812224e-18
6.729744254e-18
6.740126655e-18
6.74822972e-18
6.757610366e-18
6.770993718e-18
6.784874729e-18
6.782999783e-18
6.775812988e-18
6.772885801e-18
6.762696747e-18
6.754675962e-18
6.750456936e-18
6.744568845e-18
6.726487306e-18
6.699813173e-18
6.681376185e-18
6.681376185e-18
6.681376185e-18
6.681376185e-18
6.681376185e-18
6.681376185e-18
6.681376185e-18
6.681376185e-18
6.681376185e-18
6.681376185e-18
6.681376185e-18
6.681376185e-18
6.681376185e-18
6.681376185e-18
6.681376185e-18
7.055860577e-18
1.146878353e-17
2.448047255e-17
5.931902331e-17
1.484492046e-16
3.723410667e-16
6.717099179e-18
6.722000348e-18
6.725329649e-18
6.736578493e-18
6.735513606e-18
6.740934095e-18
6.751474816e-18
6.757836362e-18
6.77232934e-18
6.7876239e-18
6.788400929e-18
6.776090472e-18
6.774449076e-18
6.762650384e-18
6.757380465e-18
6.749189683e-18
6.740179822e-18
6.722098283e-18
6.69341509e-18
6.681376185e-18
6.681376185e-18
6.681376185e-18
6.681376185e-18
6.681376185e-18
6.681376185e-18
6.681376185e-18
6.681376185e-18
6.681376185e-18
6.681376185e-18
6.681376185e-18
6.681376185e-18
6.681376185e-18
6.681376185e-18
6.681376185e-18
7.251878383e-18
1.212499827e-17
2.626720533e-17
6.38184412e-17
1.594538423e-16
3.989599134e-16
6.71665482e-18
6.724282499e-18
6.728677493e-18
6.74089857e-18
6.744646872e-18
6.743448408e-18
6.751859865e-18
6.760220835e-18
6.77808871e-18
6.790867609e-18
6.791191993e-18
6.777585763e-18
6.772154245e-18
6.761290405e-18
6.756855019e-18
6.748262424e-18
6.739283472e-18
6.717369265e-18
6.685564302e-18
6.681376185e-18
6.681376185e-18
6.681376185e-18
6.681376185e-18
6.681376185e-18
6.681376185e-18
6.681376185e-18
6.681376185e-18
6.681376185e-18
6.681376185e-18
6.681376185e-18
6.681376185e-18
6.681376185e-18
6.681376185e-18
6.681376185e-18
7.474042016e-18
1.284319695e-17
2.819822477e-17
6.865341083e-17
1.712375182e-16
4.27390214e-16
6.718105869e-18
6.723230258e-18
6.731713089e-18
6.741648664e-18
6.747817472e-18
6.747315146e-18
6.754147835e-18
6.764155556e-18
6.77923441e-18
6.792428494e-18
6.791902891e-18
6.779924181e-18
6.774831964e-18
6.76173858e-18
6.759482251e-18
6.749483314e-18
6.738758026e-18
6.711836623e-18
6.681376185e-18
6.681376185e-18
6.681376185e-18
6.681376185e-18
6.681376185e-18
6.681376185e-18
6.681376185e-18
6.681376185e-18
6.681376185e-18
6.681376185e-18
6.681376185e-18
6.681376185e-18
6.681376185e-18
6.681376185e-18
6.681376185e-18
6.681376185e-18
7.723916257e-18
1.362788708e-17
3.028352679e-17
7.384739222e-17
1.838516832e-16
4.577477622e-16
6.71747467e-18
6.723346378e-18
6.731226144e-18
6.735338489e-18
6.746716479e-18
6.75248074e-18
6.75970048e-18
6.772039065e-18
6.786725704e-18
6.793199167e-18
6.78915476e-18
6.78422703e-18
6.774591902e-18
6.762495841e-18
6.761645854e-18
6.752635993e-18
6.736748966e-18
6.707138514e-18
6.681376185e-18
6.681376185e-18
6.681376185e-18
6.681376185e-18
6.681376185e-18
6.681376185e-18
6.681376185e-18
6.681376185e-18
6.681376185e-18
6.681376185e-18
6.681376185e-18
6.681376185e-18
6.681376185e-18
6.681376185e-18
6.681376185e-18
6.681376185e-18
8.003988403e-18
1.448385641e-17
3.253468373e-17
7.942592398e-17
1.973516768e-16
4.901565493e-16
6.718186301e-18
6.721020717e-18
6.724794763e-18
6.730480018e-18
6.739676522e-18
6.748575618e-18
6.758409217e-18
6.771342273e-18
6.790962304e-18
6.796791504e-18
6.789859492e-18
6.785364136e-18
6.779154392e-18
6.763036741e-18
6.75894135e-18
6.75359416e-18
6.733256292e-18
6.700864066e-18
6.681376185e-18
6.681376185e-18
6.681376185e-18
6.681376185e-18
6.681376185e-18
6.681376185e-18
6.681376185e-18
6.681376185e-18
6.681376185e-18
6.681376185e-18
6.681376185e-18
6.681376185e-18
6.681376185e-18
6.681376185e-18
6.681376185e-18
6.681376185e-18
8.316734076e-18
1.541689696e-17
3.496339643e-17
8.541379733e-17
2.117954308e-16
5.247475613e-16
6.717518375e-18
6.720419426e-18
6.723386071e-18
6.729523624e-18
6.73763008e-18
6.747707479e-18
6.760795078e-18
6.772292579e-18
6.793659987e-18
6.800083658e-18
6.794566235e-18
6.791702869e-18
6.782781375e-18
6.764303995e-18
6.758307724e-18
6.75136874e-18
6.729887254e-18
6.695995959e-18
6.681376185e-18
6.681376185e-18
6.681376185e-18
6.681376185e-18
6.681376185e-18
6.681376185e-18
6.681376185e-18
6.681376185e-18
6.681376185e-18
6.681376185e-18
6.681376185e-18
6.681376185e-18
6.681376185e-18
6.681376185e-18
6.681376185e-18
6.681376185e-18
8.665014253e-18
1.643254385e-17
3.758227652e-17
9.183910826e-17
2.272454197e-16
5.616600986e-16
6.719665254e-18
6.722465678e-18
6.726448531e-18
6.733444665e-18
6.74196461e-18
6.751035398e-18
6.76283339e-18
6.774044119e-18
6.795642302e-18
6.801868843e-18
6.795434105e-18
6.794359661e-18
6.783851846e-18
6.764844895e-18
6.758153181e-18
6.75248145e-18
6.726950935e-18
6.687588816e-18
6.681376185e-18
6.681376185e-18
6.681376185e-18
6.681376185e-18
6.681376185e-18
6.681376185e-18
6.681376185e-18
6.681376185e-18
6.681376185e-18
6.681376185e-18
6.681376185e-18
6.681376185e-18
6.681376185e-18
6.681376185e-18
6.681376185e-18
6.681376185e-18
9.051199458e-18
1.753629715e-17
4.040491657e-17
9.873252175e-17
2.437673292e-16
6.010426168e-16
6.720965229e-18
6.726580418e-18
6.73232406e-18
6.744325694e-18
6.748234358e-18
6.758564846e-18
6.769426985e-18
6.776206066e-18
6.796105623e-18
6.804268423e-18
6.798572062e-18
6.792891155e-18
6.780395207e-18
6.765833971e-18
6.7598377e-18
6.752280544e-18
6.726920027e-18
6.683802511e-18
6.681376185e-18
6.681376185e-18
6.681376185e-18
6.681376185e-18
6.681376185e-18
6.681376185e-18
6.681376185e-18
6.681376185e-18
6.681376185e-18
6.681376185e-18
6.681376185e-18
6.681376185e-18
6.681376185e-18
6.681376185e-18
6.681376185e-18
6.681376185e-18
9.477987183e-18
1.873463786e-17
4.344584334e-17
1.061249597e-16
2.614315626e-16
6.430514535e-16
6.72271993e-18
6.728786725e-18
6.740559281e-18
6.752371687e-18
6.757881085e-18
6.759379532e-18
6.769115549e-18
6.778375219e-18
6.792803219e-18
6.805587551e-18
6.804648072e-18
6.796113591e-18
6.780681632e-18
6.765432159e-18
6.757581371e-18
6.75003967e-18
6.723983708e-18
6.681376185e-18
6.681376185e-18
6.681376185e-18
6.681376185e-18
6.681376185e-18
6.681376185e-18
6.681376185e-18
6.681376185e-18
6.681376185e-18
6.681376185e-18
6.681376185e-18
6.681376185e-18
6.681376185e-18
6.681376185e-18
6.681376185e-18
6.681376185e-18
6.681376185e-18
9.949020795e-18
2.003538988e-17
4.67210783e-17
1.140505204e-16
2.803120032e-16
6.878546709e-16
6.726325064e-18
6.730983088e-18
6.739769494e-18
6.756192795e-18
6.761600179e-18
6.7608591e-18
6.770052482e-18
6.783553184e-18
6.79430302e-18
6.807104887e-18
6.808674825e-18
6.795588491e-18
6.786048439e-18
6.766220329e-18
6.756190484e-18
6.743981581e-18
6.718466521e-18
6.681376185e-18
6.681376185e-18
6.681376185e-18
6.681376185e-18
6.681376185e-18
6.681376185e-18
6.681376185e-18
6.681376185e-18
6.681376185e-18
6.681376185e-18
6.681376185e-18
6.681376185e-18
6.681376185e-18
6.681376185e-18
6.681376185e-18
6.681376185e-18
6.681376185e-18
1.046682263e-17
2.144548961e-17
5.024616414e-17
1.225447965e-16
3.00488303e-16
7.356279913e-16
6.728028278e-18
6.732348349e-18
6.740892958e-18
6.757102288e-18
6.760418524e-18
6.762950674e-18
6.771144652e-18
6.783074834e-18
6.799391689e-18
6.808903137e-18
6.81072547e-18
6.797382925e-18
6.789931633e-18
6.768492112e-18
6.755015956e-18
6.738603483e-18
6.711202997e-18
6.681376185e-18
6.681376185e-18
6.681376185e-18
6.681376185e-18
6.681376185e-18
6.681376185e-18
6.681376185e-18
6.681376185e-18
6.681376185e-18
6.681376185e-18
6.681376185e-18
6.681376185e-18
6.681376185e-18
6.681376185e-18
6.681376185e-18
6.681376185e-18
6.829014283e-18
1.103570166e-17
2.297291276e-17
5.40382317e-17
1.316461253e-16
3.220443061e-16
7.865591531e-16
6.728872216e-18
6.733559414e-18
6.743679322e-18
6.756763412e-18
6.762683872e-18
6.768602944e-18
6.774675211e-18
6.785655781e-18
6.799716615e-18
6.812093971e-18
6.811746148e-18
6.801563181e-18
6.791946204e-18
6.773097495e-18
6.757488645e-18
6.735914433e-18
6.703336755e-18
6.681376185e-18
6.681376185e-18
6.681376185e-18
6.681376185e-18
6.681376185e-18
6.681376185e-18
6.681376185e-18
6.681376185e-18
6.681376185e-18
6.681376185e-18
6.681376185e-18
6.681376185e-18
6.681376185e-18
6.681376185e-18
6.681376185e-18
6.681376185e-18
7.025522542e-18
1.165925455e-17
2.462646413e-17
5.81161751e-17
1.413948291e-16
3.450690882e-16
8.40847911e-16
6.731806302e-18
6.738478511e-18
6.749297639e-18
6.751088985e-18
6.756856944e-18
6.765706168e-18
6.780286937e-18
6.792276855e-18
6.805512752e-18
6.813345462e-18
6.811562084e-18
6.798927354e-18
6.791068045e-18
6.773700213e-18
6.75639139e-18
6.730768149e-18
6.69373963e-18
6.681376185e-18
6.681376185e-18
6.681376185e-18
6.681376185e-18
6.681376185e-18
6.681376185e-18
6.681376185e-18
6.681376185e-18
6.681376185e-18
6.681376185e-18
6.681376185e-18
6.681376185e-18
6.681376185e-18
6.681376185e-18
6.681376185e-18
6.681376185e-18
7.247440949e-18
1.234230408e-17
2.641515872e-17
6.250027809e-17
1.518337172e-16
3.696567462e-16
8.987047979e-16
6.736784519e-18
6.744825956e-18
6.751481632e-18
6.749286421e-18
6.754577338e-18
6.764735708e-18
6.779296205e-18
6.791331445e-18
6.806085642e-18
6.814077672e-18
6.807091665e-18
6.796984236e-18
6.7844721e-18
6.7686312e-18
6.75025603e-18
6.723149176e-18
6.68171618e-18
6.681376185e-18
6.681376185e-18
6.681376185e-18
6.681376185e-18
6.681376185e-18
6.681376185e-18
6.681376185e-18
6.681376185e-18
6.681376185e-18
6.681376185e-18
6.681376185e-18
6.681376185e-18
6.681376185e-18
6.681376185e-18
6.681376185e-18
6.681376185e-18
7.496964866e-18
1.308876221e-17
2.83482334e-17
6.721063757e-17
1.63007678e-16
3.959084302e-16
9.60353764e-16
6.739580557e-18
6.746296315e-18
6.750805536e-18
6.749603178e-18
6.755511574e-18
6.76624106e-18
6.7842338e-18
6.794296014e-18
6.802135197e-18
6.813425201e-18
6.807701629e-18
6.799573045e-18
6.780058681e-18
6.766560323e-18
6.74702608e-18
6.715282934e-18
6.681376185e-18
6.681376185e-18
6.681376185e-18
6.681376185e-18
6.681376185e-18
6.681376185e-18
6.681376185e-18
6.681376185e-18
6.681376185e-18
6.681376185e-18
6.681376185e-18
6.681376185e-18
6.681376185e-18
6.681376185e-18
6.681376185e-18
6.681376185e-18
6.681376185e-18
7.77548391e-18
1.390321818e-17
3.043645477e-17
7.226976768e-17
1.749657451e-16
4.239307321e-16
1.026032749e-15
6.74069616e-18
6.744965319e-18
6.750206752e-18
6.752457217e-18
6.758576462e-18
6.770202644e-18
6.787133816e-18
6.790791009e-18
6.799047805e-18
6.811086822e-18
6.804453142e-18
6.798964161e-18
6.776220849e-18
6.759142256e-18
6.738479848e-18
6.705299452e-18
6.681376185e-18
6.681376185e-18
6.681376185e-18
6.681376185e-18
6.681376185e-18
6.681376185e-18
6.681376185e-18
6.681376185e-18
6.681376185e-18
6.681376185e-18
6.681376185e-18
6.681376185e-18
6.681376185e-18
6.681376185e-18
6.681376185e-18
6.681376185e-18
6.681376185e-18
8.085777317e-18
1.479126548e-17
3.269077631e-17
7.770104669e-17
1.877600349e-16
4.538365963e-16
1.095993286e-15
6.741566883e-18
6.746571683e-18
6.751315456e-18
6.760653668e-18
6.763717045e-18
6.77682684e-18
6.788405618e-18
6.79010181e-18
6.798601057e-18
6.811504127e-18
6.804310316e-18
6.796771037e-18
6.7738141e-18
6.754042335e-18
6.734369003e-18
6.695578693e-18
6.681376185e-18
6.681376185e-18
6.681376185e-18
6.681376185e-18
6.681376185e-18
6.681376185e-18
6.681376185e-18
6.681376185e-18
6.681376185e-18
6.681376185e-18
6.681376185e-18
6.681376185e-18
6.681376185e-18
6.681376185e-18
6.681376185e-18
6.681376185e-18
6.681376185e-18
8.429655092e-18
1.575831079e-17
3.512212811e-17
8.352959282e-17
2.014441002e-16
4.857461487e-16
1.170502788e-15
6.745674841e-18
6.753197653e-18
6.756868526e-18
6.764024905e-18
6.769201746e-18
6.77690076e-18
6.786823846e-18
6.791210474e-18
6.800977322e-18
6.812457555e-18
6.808154739e-18
6.791702024e-18
6.774394196e-18
6.751646917e-18
6.727244567e-18
6.681808906e-18
6.681376185e-18
6.681376185e-18
6.681376185e-18
6.681376185e-18
6.681376185e-18
6.681376185e-18
6.681376185e-18
6.681376185e-18
6.681376185e-18
6.681376185e-18
6.681376185e-18
6.681376185e-18
6.681376185e-18
6.681376185e-18
6.681376185e-18
6.681376185e-18
6.681376185e-18
8.81027015e-18
1.681022786e-17
3.774433628e-17
8.978357208e-17
2.160769006e-16
5.197870824e-16
1.249845532e-15
6.74881808e-18
6.757772978e-18
6.766915756e-18
6.775264506e-18
6.776813669e-18
6.77991308e-18
6.788048245e-18
6.795779208e-18
6.808874243e-18
6.813464553e-18
6.809785728e-18
6.788874927e-18
6.770089652e-18
6.744383393e-18
6.715823835e-18
6.681376185e-18
6.681376185e-18
6.681376185e-18
6.681376185e-18
6.681376185e-18
6.681376185e-18
6.681376185e-18
6.681376185e-18
6.681376185e-18
6.681376185e-18
6.681376185e-18
6.681376185e-18
6.681376185e-18
6.681376185e-18
6.681376185e-18
6.681376185e-18
6.681376185e-18
6.681376185e-18
9.230798757e-18
1.795305394e-17
4.056953369e-17
9.649059e-17
2.317207821e-16
5.56094307e-16
1.334320109e-15
6.749536689e-18
6.761387747e-18
6.7681543e-18
6.782173778e-18
6.786406826e-18
6.786200017e-18
6.795076295e-18
6.804445415e-18
6.813847872e-18
6.814124656e-18
6.810364784e-18
6.787763604e-18
6.770977446e-18
6.739978916e-18
6.706813974e-18
6.681376185e-18
6.681376185e-18
6.681376185e-18
6.681376185e-18
6.681376185e-18
6.681376185e-18
6.681376185e-18
6.681376185e-18
6.681376185e-18
6.681376185e-18
6.681376185e-18
6.681376185e-18
6.681376185e-18
6.681376185e-18
6.681376185e-18
6.681376185e-18
6.681376185e-18
6.681376185e-18
9.694440539e-18
1.919291969e-17
4.361287769e-17
1.036807043e-16
2.484410448e-16
5.948117122e-16
1.424245233e-15
6.753006203e-18
6.764681753e-18
6.771396084e-18
6.785719137e-18
6.79026366e-18
6.793512103e-18
6.800814084e-18
6.805711706e-18
6.816048281e-18
6.817628045e-18
6.809724644e-18
6.788304197e-18
6.769718788e-18
6.739005295e-18
6.702471314e-18
6.681376185e-18
6.681376185e-18
6.681376185e-18
6.681376185e-18
6.681376185e-18
6.681376185e-18
6.681376185e-18
6.681376185e-18
6.681376185e-18
6.681376185e-18
6.681376185e-18
6.681376185e-18
6.681376185e-18
6.681376185e-18
6.681376185e-18
6.681376185e-18
6.681376185e-18
6.681376185e-18
1.020423163e-17
2.053701843e-17
4.688873156e-17
1.113864251e-16
2.663062589e-16
6.360911049e-16
1.519958009e-15
6.757000509e-18
6.769632491e-18
6.776043902e-18
6.786542804e-18
6.786279957e-18
6.790233787e-18
6.802452319e-18
6.809618988e-18
6.813720886e-18
6.818092407e-18
6.807273268e-18
6.783437439e-18
6.765033704e-18
6.734137188e-18
6.694713252e-18
6.681376185e-18
6.681376185e-18
6.681376185e-18
6.681376185e-18
6.681376185e-18
6.681376185e-18
6.681376185e-18
6.681376185e-18
6.681376185e-18
6.681376185e-18
6.681376185e-18
6.681376185e-18
6.681376185e-18
6.681376185e-18
6.681376185e-18
6.681376185e-18
6.681376185e-18
6.681376185e-18
1.076432922e-17
2.19936178e-17
5.041394585e-17
1.196428315e-16
2.853909967e-16
6.800938792e-16
1.621815977e-15
6.762520707e-18
6.774322896e-18
6.778862909e-18
6.784304089e-18
6.784623342e-18
6.789240319e-18
6.798770803e-18
6.807521365e-18
6.815230322e-18
6.817512042e-18
6.801407144e-18
6.778416832e-18
6.755041589e-18
6.722515549e-18
6.681577091e-18
6.681376185e-18
6.681376185e-18
6.681376185e-18
6.681376185e-18
6.681376185e-18
6.681376185e-18
6.681376185e-18
6.681376185e-18
6.681376185e-18
6.681376185e-18
6.681376185e-18
6.681376185e-18
6.681376185e-18
6.681376185e-18
6.681376185e-18
6.681376185e-18
6.681376185e-18
6.880068128e-18
1.137868027e-17
2.357097376e-17
5.420460044e-17
1.284856448e-16
3.057745247e-16
7.269916588e-16
1.730197031e-15
6.766511236e-18
6.779199099e-18
6.787478707e-18
6.79177384e-18
6.785924357e-18
6.788967037e-18
6.799800154e-18
6.809128691e-18
6.812489784e-18
6.816823845e-18
6.801907193e-18
6.775415266e-18
6.750105806e-18
6.7133666e-18
6.681376185e-18
6.681376185e-18
6.681376185e-18
6.681376185e-18
6.681376185e-18
6.681376185e-18
6.681376185e-18
6.681376185e-18
6.681376185e-18
6.681376185e-18
6.681376185e-18
6.681376185e-18
6.681376185e-18
6.681376185e-18
6.681376185e-18
6.681376185e-18
6.681376185e-18
6.681376185e-18
7.108771138e-18
1.205081138e-17
2.527736562e-17
5.827913402e-17
1.379537392e-16
3.275386785e-16
7.769655961e-16
1.845503274e-15
6.767742226e-18
6.781252597e-18
6.791181345e-18
6.796222409e-18
6.788601153e-18
6.789976116e-18
6.79954194e-18
6.806589059e-18
6.813464486e-18
6.817044368e-18
6.803095172e-18
6.774362678e-18
6.740461239e-18
6.70267222e-18
6.681376185e-18
6.681376185e-18
6.681376185e-18
6.681376185e-18
6.681376185e-18
6.681376185e-18
6.681376185e-18
6.681376185e-18
6.681376185e-18
6.681376185e-18
6.681376185e-18
6.681376185e-18
6.681376185e-18
6.681376185e-18
6.681376185e-18