/*--------------------------------*- C++ -*----------------------------------*\
| =========                 |                                                 |
| \\      /  F ield         | OpenFOAM: The Open Source CFD Toolbox           |
|  \\    /   O peration     | Version:  v2006                                 |
|   \\  /    A nd           | Website:  www.openfoam.com                      |
|    \\/     M anipulation  |                                                 |
\*---------------------------------------------------------------------------*/
FoamFile
{
    version     2.0;
    format      ascii;
    class       volScalarField;
    location    "0.12";
    object      p;
}
// * * * * * * * * * * * * * * * * * * * * * * * * * * * * * * * * * * * * * //

dimensions      [1 -1 -2 0 0 0 0];


internalField   nonuniform List<scalar> 
168000
(
101278.4123
101278.4147
101278.4161
101278.4106
101278.4101
101278.4136
101278.4128
101278.4093
101278.4102
101278.4144
101278.4089
101278.4095
101278.4135
101278.4083
101278.4103
101278.4108
101278.4076
101278.4127
101278.4075
101278.4104
101278.4084
101278.4092
101278.4083
101278.4088
101278.4077
101278.4086
101278.4069
101278.4082
101278.4067
101278.4066
101278.4067
101278.4057
101278.4053
101278.4051
101278.4043
101278.4037
101278.403
101278.4022
101278.4014
101278.4004
101278.4106
101278.4113
101278.4117
101278.4093
101278.4089
101278.4101
101278.4097
101278.4081
101278.4083
101278.4101
101278.4076
101278.4077
101278.4096
101278.4069
101278.4078
101278.408
101278.4062
101278.4091
101278.4059
101278.4076
101278.4062
101278.4068
101278.4061
101278.4063
101278.4055
101278.4061
101278.4048
101278.4056
101278.4045
101278.4043
101278.4042
101278.4034
101278.403
101278.4027
101278.402
101278.4013
101278.4006
101278.3999
101278.399
101278.3981
101278.4084
101278.4084
101278.4084
101278.4075
101278.4072
101278.4073
101278.407
101278.4065
101278.4063
101278.4069
101278.4059
101278.4058
101278.4064
101278.4052
101278.4055
101278.4055
101278.4045
101278.406
101278.4041
101278.4051
101278.4041
101278.4044
101278.4038
101278.404
101278.4033
101278.4036
101278.4027
101278.4031
101278.4022
101278.402
101278.4018
101278.4011
101278.4007
101278.4003
101278.3997
101278.399
101278.3983
101278.3975
101278.3967
101278.3958
101278.406
101278.406
101278.4059
101278.4054
101278.4052
101278.4051
101278.4048
101278.4045
101278.4043
101278.4045
101278.404
101278.4038
101278.404
101278.4033
101278.4034
101278.4034
101278.4027
101278.4035
101278.4023
101278.4029
101278.4021
101278.4023
101278.4018
101278.4019
101278.4013
101278.4015
101278.4007
101278.401
101278.4002
101278.4
101278.3997
101278.3991
101278.3987
101278.3982
101278.3976
101278.3969
101278.3962
101278.3955
101278.3946
101278.3937
101278.4037
101278.4036
101278.4035
101278.4032
101278.403
101278.4029
101278.4027
101278.4024
101278.4022
101278.4022
101278.4019
101278.4017
101278.4018
101278.4013
101278.4013
101278.4012
101278.4007
101278.4012
101278.4003
101278.4007
101278.4
101278.4002
101278.3997
101278.3997
101278.3992
101278.3993
101278.3987
101278.3988
101278.3981
101278.3979
101278.3976
101278.397
101278.3966
101278.3961
101278.3955
101278.3949
101278.3942
101278.3934
101278.3925
101278.3916
101278.4013
101278.4013
101278.4012
101278.401
101278.4008
101278.4007
101278.4005
101278.4003
101278.4001
101278.4
101278.3998
101278.3996
101278.3995
101278.3992
101278.3991
101278.3991
101278.3987
101278.3989
101278.3983
101278.3985
101278.398
101278.398
101278.3976
101278.3976
101278.3971
101278.3972
101278.3966
101278.3966
101278.396
101278.3958
101278.3954
101278.3949
101278.3945
101278.394
101278.3934
101278.3927
101278.392
101278.3913
101278.3904
101278.3895
101278.3991
101278.399
101278.3989
101278.3988
101278.3986
101278.3985
101278.3983
101278.3981
101278.398
101278.3978
101278.3976
101278.3975
101278.3974
101278.3971
101278.397
101278.3969
101278.3966
101278.3967
101278.3962
101278.3963
101278.3959
101278.3958
101278.3955
101278.3954
101278.395
101278.395
101278.3945
101278.3944
101278.3939
101278.3936
101278.3933
101278.3928
101278.3923
101278.3918
101278.3912
101278.3906
101278.3899
101278.3891
101278.3883
101278.3874
101278.3968
101278.3968
101278.3967
101278.3965
101278.3964
101278.3963
101278.3961
101278.396
101278.3958
101278.3957
101278.3955
101278.3953
101278.3952
101278.395
101278.3949
101278.3947
101278.3945
101278.3945
101278.3941
101278.3941
101278.3938
101278.3937
101278.3934
101278.3933
101278.3929
101278.3928
101278.3924
101278.3923
101278.3918
101278.3915
101278.3911
101278.3907
101278.3902
101278.3897
101278.3891
101278.3885
101278.3878
101278.387
101278.3862
101278.3852
101278.3946
101278.3945
101278.3944
101278.3943
101278.3942
101278.3941
101278.3939
101278.3938
101278.3936
101278.3935
101278.3933
101278.3932
101278.393
101278.3929
101278.3927
101278.3926
101278.3924
101278.3923
101278.392
101278.3919
101278.3916
101278.3915
101278.3912
101278.3911
101278.3908
101278.3907
101278.3903
101278.3901
101278.3897
101278.3894
101278.389
101278.3885
101278.3881
101278.3876
101278.387
101278.3863
101278.3856
101278.3849
101278.384
101278.3831
101278.3924
101278.3923
101278.3922
101278.3921
101278.392
101278.3919
101278.3917
101278.3916
101278.3915
101278.3913
101278.3912
101278.391
101278.3909
101278.3907
101278.3906
101278.3904
101278.3902
101278.3901
101278.3899
101278.3898
101278.3895
101278.3894
101278.3891
101278.389
101278.3887
101278.3885
101278.3881
101278.388
101278.3875
101278.3872
101278.3868
101278.3864
101278.3859
101278.3854
101278.3848
101278.3842
101278.3835
101278.3827
101278.3819
101278.381
101278.3902
101278.3901
101278.39
101278.3899
101278.3898
101278.3897
101278.3896
101278.3894
101278.3893
101278.3891
101278.389
101278.3889
101278.3887
101278.3886
101278.3884
101278.3883
101278.3881
101278.388
101278.3877
101278.3876
101278.3874
101278.3872
101278.387
101278.3868
101278.3865
101278.3864
101278.386
101278.3858
101278.3854
101278.3851
101278.3847
101278.3843
101278.3838
101278.3833
101278.3827
101278.3821
101278.3814
101278.3806
101278.3798
101278.3788
101278.388
101278.3879
101278.3878
101278.3877
101278.3876
101278.3875
101278.3874
101278.3872
101278.3871
101278.387
101278.3868
101278.3867
101278.3866
101278.3864
101278.3863
101278.3861
101278.3859
101278.3858
101278.3856
101278.3855
101278.3852
101278.3851
101278.3848
101278.3847
101278.3844
101278.3842
101278.3839
101278.3837
101278.3833
101278.383
101278.3826
101278.3821
101278.3817
101278.3811
101278.3806
101278.3799
101278.3792
101278.3785
101278.3776
101278.3767
101278.3858
101278.3858
101278.3857
101278.3855
101278.3854
101278.3853
101278.3852
101278.3851
101278.3849
101278.3848
101278.3847
101278.3845
101278.3844
101278.3842
101278.3841
101278.384
101278.3838
101278.3836
101278.3835
101278.3833
101278.3831
101278.3829
101278.3827
101278.3825
101278.3823
101278.3821
101278.3817
101278.3815
101278.3811
101278.3808
101278.3804
101278.38
101278.3795
101278.379
101278.3784
101278.3778
101278.3771
101278.3763
101278.3755
101278.3746
101278.3837
101278.3836
101278.3835
101278.3834
101278.3832
101278.3831
101278.383
101278.3829
101278.3828
101278.3826
101278.3825
101278.3824
101278.3822
101278.3821
101278.3819
101278.3818
101278.3816
101278.3815
101278.3813
101278.3811
101278.381
101278.3808
101278.3806
101278.3804
101278.3801
101278.3799
101278.3796
101278.3793
101278.379
101278.3787
101278.3783
101278.3778
101278.3774
101278.3769
101278.3763
101278.3757
101278.375
101278.3742
101278.3734
101278.3724
101278.3815
101278.3814
101278.3813
101278.3812
101278.3811
101278.3809
101278.3808
101278.3807
101278.3806
101278.3804
101278.3803
101278.3802
101278.38
101278.3799
101278.3798
101278.3796
101278.3795
101278.3793
101278.3791
101278.379
101278.3788
101278.3786
101278.3784
101278.3782
101278.378
101278.3777
101278.3775
101278.3772
101278.3768
101278.3765
101278.3761
101278.3757
101278.3752
101278.3747
101278.3741
101278.3735
101278.3728
101278.3721
101278.3712
101278.3703
101278.3793
101278.3792
101278.3791
101278.379
101278.3789
101278.3788
101278.3786
101278.3785
101278.3784
101278.3783
101278.3781
101278.378
101278.3779
101278.3777
101278.3776
101278.3775
101278.3773
101278.3772
101278.377
101278.3768
101278.3766
101278.3765
101278.3763
101278.3761
101278.3758
101278.3756
101278.3753
101278.375
101278.3747
101278.3744
101278.374
101278.3736
101278.3731
101278.3726
101278.372
101278.3714
101278.3707
101278.3699
101278.3691
101278.3681
101278.3771
101278.377
101278.3769
101278.3768
101278.3767
101278.3766
101278.3765
101278.3763
101278.3762
101278.3761
101278.376
101278.3758
101278.3757
101278.3756
101278.3754
101278.3753
101278.3751
101278.375
101278.3748
101278.3747
101278.3745
101278.3743
101278.3741
101278.3739
101278.3737
101278.3734
101278.3732
101278.3729
101278.3725
101278.3722
101278.3718
101278.3714
101278.3709
101278.3704
101278.3698
101278.3692
101278.3685
101278.3678
101278.3669
101278.366
101278.3749
101278.3748
101278.3747
101278.3746
101278.3745
101278.3744
101278.3743
101278.3742
101278.374
101278.3739
101278.3738
101278.3737
101278.3735
101278.3734
101278.3733
101278.3731
101278.373
101278.3728
101278.3727
101278.3725
101278.3723
101278.3721
101278.3719
101278.3717
101278.3715
101278.3713
101278.371
101278.3707
101278.3704
101278.3701
101278.3697
101278.3692
101278.3688
101278.3683
101278.3677
101278.3671
101278.3664
101278.3656
101278.3648
101278.3639
101278.3727
101278.3727
101278.3725
101278.3724
101278.3723
101278.3722
101278.3721
101278.372
101278.3719
101278.3717
101278.3716
101278.3715
101278.3713
101278.3712
101278.3711
101278.3709
101278.3708
101278.3706
101278.3705
101278.3703
101278.3702
101278.37
101278.3698
101278.3696
101278.3693
101278.3691
101278.3688
101278.3686
101278.3682
101278.3679
101278.3675
101278.3671
101278.3666
101278.3661
101278.3655
101278.3649
101278.3642
101278.3635
101278.3626
101278.3617
101278.3706
101278.3705
101278.3704
101278.3703
101278.3701
101278.37
101278.3699
101278.3698
101278.3697
101278.3695
101278.3694
101278.3693
101278.3692
101278.369
101278.3689
101278.3688
101278.3686
101278.3685
101278.3683
101278.3682
101278.368
101278.3678
101278.3676
101278.3674
101278.3672
101278.3669
101278.3667
101278.3664
101278.3661
101278.3657
101278.3653
101278.3649
101278.3645
101278.364
101278.3634
101278.3628
101278.3621
101278.3613
101278.3605
101278.3596
101278.3684
101278.3683
101278.3682
101278.3681
101278.368
101278.3678
101278.3677
101278.3676
101278.3675
101278.3674
101278.3672
101278.3671
101278.367
101278.3669
101278.3667
101278.3666
101278.3664
101278.3663
101278.3661
101278.366
101278.3658
101278.3656
101278.3654
101278.3652
101278.365
101278.3648
101278.3645
101278.3642
101278.3639
101278.3636
101278.3632
101278.3628
101278.3623
101278.3618
101278.3612
101278.3606
101278.3599
101278.3592
101278.3583
101278.3574
101278.3662
101278.3661
101278.366
101278.3659
101278.3658
101278.3657
101278.3655
101278.3654
101278.3653
101278.3652
101278.3651
101278.3649
101278.3648
101278.3647
101278.3645
101278.3644
101278.3643
101278.3641
101278.364
101278.3638
101278.3636
101278.3635
101278.3633
101278.3631
101278.3628
101278.3626
101278.3623
101278.3621
101278.3617
101278.3614
101278.361
101278.3606
101278.3601
101278.3596
101278.3591
101278.3584
101278.3578
101278.357
101278.3562
101278.3552
101278.364
101278.3639
101278.3638
101278.3637
101278.3636
101278.3635
101278.3633
101278.3632
101278.3631
101278.363
101278.3629
101278.3627
101278.3626
101278.3625
101278.3624
101278.3622
101278.3621
101278.3619
101278.3618
101278.3616
101278.3615
101278.3613
101278.3611
101278.3609
101278.3607
101278.3604
101278.3602
101278.3599
101278.3596
101278.3592
101278.3589
101278.3584
101278.358
101278.3575
101278.3569
101278.3563
101278.3556
101278.3548
101278.354
101278.3531
101278.3618
101278.3617
101278.3616
101278.3615
101278.3614
101278.3613
101278.3612
101278.361
101278.3609
101278.3608
101278.3607
101278.3606
101278.3604
101278.3603
101278.3602
101278.36
101278.3599
101278.3598
101278.3596
101278.3595
101278.3593
101278.3591
101278.3589
101278.3587
101278.3585
101278.3583
101278.358
101278.3577
101278.3574
101278.3571
101278.3567
101278.3563
101278.3558
101278.3553
101278.3547
101278.3541
101278.3534
101278.3527
101278.3518
101278.3509
101278.3596
101278.3595
101278.3594
101278.3593
101278.3592
101278.3591
101278.359
101278.3588
101278.3587
101278.3586
101278.3585
101278.3584
101278.3582
101278.3581
101278.358
101278.3579
101278.3577
101278.3576
101278.3574
101278.3573
101278.3571
101278.3569
101278.3567
101278.3565
101278.3563
101278.3561
101278.3558
101278.3555
101278.3552
101278.3549
101278.3545
101278.3541
101278.3536
101278.3531
101278.3526
101278.3519
101278.3513
101278.3505
101278.3497
101278.3488
101278.3574
101278.3573
101278.3572
101278.3571
101278.357
101278.3569
101278.3568
101278.3567
101278.3565
101278.3564
101278.3563
101278.3562
101278.3561
101278.3559
101278.3558
101278.3557
101278.3555
101278.3554
101278.3552
101278.3551
101278.3549
101278.3547
101278.3546
101278.3544
101278.3541
101278.3539
101278.3536
101278.3534
101278.3531
101278.3527
101278.3523
101278.3519
101278.3515
101278.351
101278.3504
101278.3498
101278.3491
101278.3483
101278.3475
101278.3466
101278.3552
101278.3552
101278.355
101278.3549
101278.3548
101278.3547
101278.3546
101278.3545
101278.3543
101278.3542
101278.3541
101278.354
101278.3539
101278.3537
101278.3536
101278.3535
101278.3533
101278.3532
101278.3531
101278.3529
101278.3527
101278.3526
101278.3524
101278.3522
101278.352
101278.3517
101278.3515
101278.3512
101278.3509
101278.3505
101278.3502
101278.3498
101278.3493
101278.3488
101278.3482
101278.3476
101278.3469
101278.3462
101278.3453
101278.3444
101278.3531
101278.353
101278.3528
101278.3527
101278.3526
101278.3525
101278.3524
101278.3523
101278.3521
101278.352
101278.3519
101278.3518
101278.3517
101278.3515
101278.3514
101278.3513
101278.3511
101278.351
101278.3509
101278.3507
101278.3505
101278.3504
101278.3502
101278.35
101278.3498
101278.3495
101278.3493
101278.349
101278.3487
101278.3484
101278.348
101278.3476
101278.3471
101278.3466
101278.3461
101278.3454
101278.3448
101278.344
101278.3432
101278.3423
101278.3509
101278.3508
101278.3507
101278.3505
101278.3504
101278.3503
101278.3502
101278.3501
101278.35
101278.3498
101278.3497
101278.3496
101278.3495
101278.3493
101278.3492
101278.3491
101278.349
101278.3488
101278.3487
101278.3485
101278.3484
101278.3482
101278.348
101278.3478
101278.3476
101278.3474
101278.3471
101278.3468
101278.3465
101278.3462
101278.3458
101278.3454
101278.3449
101278.3444
101278.3439
101278.3433
101278.3426
101278.3418
101278.341
101278.3401
101278.3487
101278.3486
101278.3485
101278.3483
101278.3482
101278.3481
101278.348
101278.3479
101278.3478
101278.3476
101278.3475
101278.3474
101278.3473
101278.3471
101278.347
101278.3469
101278.3468
101278.3466
101278.3465
101278.3463
101278.3462
101278.346
101278.3458
101278.3456
101278.3454
101278.3452
101278.3449
101278.3446
101278.3443
101278.344
101278.3436
101278.3432
101278.3428
101278.3423
101278.3417
101278.3411
101278.3404
101278.3397
101278.3388
101278.3379
101278.3465
101278.3464
101278.3463
101278.3461
101278.346
101278.3459
101278.3458
101278.3457
101278.3456
101278.3454
101278.3453
101278.3452
101278.3451
101278.3449
101278.3448
101278.3447
101278.3446
101278.3444
101278.3443
101278.3441
101278.344
101278.3438
101278.3436
101278.3434
101278.3432
101278.343
101278.3427
101278.3425
101278.3421
101278.3418
101278.3414
101278.341
101278.3406
101278.3401
101278.3395
101278.3389
101278.3382
101278.3375
101278.3367
101278.3358
101278.3443
101278.3442
101278.3441
101278.3439
101278.3438
101278.3437
101278.3436
101278.3435
101278.3434
101278.3432
101278.3431
101278.343
101278.3429
101278.3427
101278.3426
101278.3425
101278.3424
101278.3422
101278.3421
101278.3419
101278.3418
101278.3416
101278.3414
101278.3412
101278.341
101278.3408
101278.3405
101278.3403
101278.34
101278.3396
101278.3393
101278.3388
101278.3384
101278.3379
101278.3373
101278.3367
101278.336
101278.3353
101278.3345
101278.3336
101278.3421
101278.342
101278.3418
101278.3417
101278.3416
101278.3415
101278.3414
101278.3413
101278.3412
101278.341
101278.3409
101278.3408
101278.3407
101278.3405
101278.3404
101278.3403
101278.3402
101278.34
101278.3399
101278.3397
101278.3396
101278.3394
101278.3392
101278.339
101278.3388
101278.3386
101278.3383
101278.3381
101278.3378
101278.3374
101278.3371
101278.3367
101278.3362
101278.3357
101278.3351
101278.3345
101278.3339
101278.3331
101278.3323
101278.3314
101278.3399
101278.3398
101278.3396
101278.3395
101278.3394
101278.3393
101278.3392
101278.3391
101278.3389
101278.3388
101278.3387
101278.3386
101278.3385
101278.3383
101278.3382
101278.3381
101278.338
101278.3378
101278.3377
101278.3375
101278.3374
101278.3372
101278.337
101278.3368
101278.3366
101278.3364
101278.3361
101278.3359
101278.3356
101278.3352
101278.3349
101278.3345
101278.334
101278.3335
101278.333
101278.3324
101278.3317
101278.3309
101278.3301
101278.3292
101278.3376
101278.3376
101278.3374
101278.3373
101278.3372
101278.3371
101278.337
101278.3369
101278.3367
101278.3366
101278.3365
101278.3364
101278.3363
101278.3361
101278.336
101278.3359
101278.3358
101278.3356
101278.3355
101278.3353
101278.3352
101278.335
101278.3348
101278.3346
101278.3344
101278.3342
101278.3339
101278.3337
101278.3334
101278.333
101278.3327
101278.3323
101278.3318
101278.3313
101278.3308
101278.3302
101278.3295
101278.3288
101278.3279
101278.327
101278.3354
101278.3353
101278.3352
101278.3351
101278.335
101278.3349
101278.3348
101278.3346
101278.3345
101278.3344
101278.3343
101278.3342
101278.334
101278.3339
101278.3338
101278.3337
101278.3335
101278.3334
101278.3333
101278.3331
101278.333
101278.3328
101278.3326
101278.3324
101278.3322
101278.332
101278.3317
101278.3315
101278.3312
101278.3308
101278.3305
101278.3301
101278.3296
101278.3291
101278.3286
101278.328
101278.3273
101278.3266
101278.3258
101278.3249
101278.3332
101278.3331
101278.333
101278.3329
101278.3328
101278.3327
101278.3326
101278.3324
101278.3323
101278.3322
101278.3321
101278.332
101278.3318
101278.3317
101278.3316
101278.3315
101278.3313
101278.3312
101278.3311
101278.3309
101278.3308
101278.3306
101278.3304
101278.3302
101278.33
101278.3298
101278.3295
101278.3293
101278.329
101278.3286
101278.3283
101278.3279
101278.3274
101278.3269
101278.3264
101278.3258
101278.3251
101278.3244
101278.3236
101278.3227
101278.331
101278.3309
101278.3308
101278.3307
101278.3306
101278.3305
101278.3303
101278.3302
101278.3301
101278.33
101278.3299
101278.3297
101278.3296
101278.3295
101278.3294
101278.3293
101278.3291
101278.329
101278.3288
101278.3287
101278.3285
101278.3284
101278.3282
101278.328
101278.3278
101278.3276
101278.3273
101278.3271
101278.3268
101278.3264
101278.3261
101278.3257
101278.3252
101278.3247
101278.3242
101278.3236
101278.3229
101278.3222
101278.3214
101278.3205
101278.3288
101278.3287
101278.3286
101278.3285
101278.3284
101278.3282
101278.3281
101278.328
101278.3279
101278.3278
101278.3277
101278.3275
101278.3274
101278.3273
101278.3272
101278.327
101278.3269
101278.3268
101278.3266
101278.3265
101278.3263
101278.3262
101278.326
101278.3258
101278.3256
101278.3254
101278.3251
101278.3249
101278.3246
101278.3242
101278.3239
101278.3235
101278.323
101278.3225
101278.322
101278.3214
101278.3207
101278.32
101278.3192
101278.3183
101278.3266
101278.3265
101278.3264
101278.3263
101278.3261
101278.326
101278.3259
101278.3258
101278.3257
101278.3256
101278.3254
101278.3253
101278.3252
101278.3251
101278.3249
101278.3248
101278.3247
101278.3246
101278.3244
101278.3243
101278.3241
101278.324
101278.3238
101278.3236
101278.3234
101278.3232
101278.3229
101278.3227
101278.3224
101278.322
101278.3217
101278.3213
101278.3208
101278.3203
101278.3198
101278.3192
101278.3185
101278.3178
101278.317
101278.3161
101278.3244
101278.3243
101278.3242
101278.324
101278.3239
101278.3238
101278.3237
101278.3236
101278.3235
101278.3233
101278.3232
101278.3231
101278.323
101278.3229
101278.3227
101278.3226
101278.3225
101278.3223
101278.3222
101278.3221
101278.3219
101278.3217
101278.3216
101278.3214
101278.3212
101278.321
101278.3207
101278.3204
101278.3201
101278.3198
101278.3195
101278.3191
101278.3186
101278.3181
101278.3176
101278.317
101278.3163
101278.3156
101278.3148
101278.3139
101278.3221
101278.3221
101278.3219
101278.3218
101278.3217
101278.3216
101278.3215
101278.3214
101278.3212
101278.3211
101278.321
101278.3209
101278.3208
101278.3206
101278.3205
101278.3204
101278.3203
101278.3201
101278.32
101278.3198
101278.3197
101278.3195
101278.3194
101278.3192
101278.319
101278.3187
101278.3185
101278.3182
101278.3179
101278.3176
101278.3173
101278.3169
101278.3164
101278.3159
101278.3154
101278.3148
101278.3141
101278.3134
101278.3126
101278.3117
101278.3199
101278.3198
101278.3197
101278.3196
101278.3195
101278.3194
101278.3192
101278.3191
101278.319
101278.3189
101278.3188
101278.3187
101278.3185
101278.3184
101278.3183
101278.3182
101278.318
101278.3179
101278.3178
101278.3176
101278.3175
101278.3173
101278.3171
101278.3169
101278.3167
101278.3165
101278.3163
101278.316
101278.3157
101278.3154
101278.315
101278.3146
101278.3142
101278.3137
101278.3132
101278.3126
101278.3119
101278.3112
101278.3104
101278.3095
101278.3177
101278.3176
101278.3175
101278.3174
101278.3173
101278.3171
101278.317
101278.3169
101278.3168
101278.3167
101278.3165
101278.3164
101278.3163
101278.3162
101278.3161
101278.3159
101278.3158
101278.3157
101278.3155
101278.3154
101278.3152
101278.3151
101278.3149
101278.3147
101278.3145
101278.3143
101278.3141
101278.3138
101278.3135
101278.3132
101278.3128
101278.3124
101278.312
101278.3115
101278.311
101278.3104
101278.3097
101278.309
101278.3082
101278.3073
101278.3155
101278.3154
101278.3153
101278.3151
101278.315
101278.3149
101278.3148
101278.3147
101278.3146
101278.3144
101278.3143
101278.3142
101278.3141
101278.314
101278.3138
101278.3137
101278.3136
101278.3135
101278.3133
101278.3132
101278.313
101278.3129
101278.3127
101278.3125
101278.3123
101278.3121
101278.3118
101278.3116
101278.3113
101278.311
101278.3106
101278.3102
101278.3098
101278.3093
101278.3087
101278.3082
101278.3075
101278.3068
101278.306
101278.3051
101278.3132
101278.3132
101278.313
101278.3129
101278.3128
101278.3127
101278.3126
101278.3125
101278.3123
101278.3122
101278.3121
101278.312
101278.3119
101278.3117
101278.3116
101278.3115
101278.3114
101278.3112
101278.3111
101278.3109
101278.3108
101278.3106
101278.3105
101278.3103
101278.3101
101278.3099
101278.3096
101278.3094
101278.3091
101278.3087
101278.3084
101278.308
101278.3076
101278.3071
101278.3065
101278.3059
101278.3053
101278.3046
101278.3038
101278.3029
101278.311
101278.3109
101278.3108
101278.3107
101278.3106
101278.3105
101278.3103
101278.3102
101278.3101
101278.31
101278.3099
101278.3097
101278.3096
101278.3095
101278.3094
101278.3093
101278.3091
101278.309
101278.3089
101278.3087
101278.3086
101278.3084
101278.3082
101278.3081
101278.3079
101278.3076
101278.3074
101278.3071
101278.3068
101278.3065
101278.3062
101278.3058
101278.3053
101278.3049
101278.3043
101278.3037
101278.3031
101278.3024
101278.3016
101278.3007
101278.3088
101278.3087
101278.3086
101278.3085
101278.3083
101278.3082
101278.3081
101278.308
101278.3079
101278.3077
101278.3076
101278.3075
101278.3074
101278.3073
101278.3071
101278.307
101278.3069
101278.3068
101278.3066
101278.3065
101278.3063
101278.3062
101278.306
101278.3058
101278.3056
101278.3054
101278.3052
101278.3049
101278.3046
101278.3043
101278.3039
101278.3036
101278.3031
101278.3026
101278.3021
101278.3015
101278.3009
101278.3001
101278.2993
101278.2985
101278.3066
101278.3065
101278.3063
101278.3062
101278.3061
101278.306
101278.3059
101278.3058
101278.3056
101278.3055
101278.3054
101278.3053
101278.3052
101278.305
101278.3049
101278.3048
101278.3047
101278.3045
101278.3044
101278.3042
101278.3041
101278.3039
101278.3038
101278.3036
101278.3034
101278.3032
101278.3029
101278.3027
101278.3024
101278.3021
101278.3017
101278.3013
101278.3009
101278.3004
101278.2999
101278.2993
101278.2986
101278.2979
101278.2971
101278.2963
101278.3043
101278.3042
101278.3041
101278.304
101278.3039
101278.3038
101278.3036
101278.3035
101278.3034
101278.3033
101278.3032
101278.303
101278.3029
101278.3028
101278.3027
101278.3025
101278.3024
101278.3023
101278.3022
101278.302
101278.3019
101278.3017
101278.3015
101278.3014
101278.3012
101278.3009
101278.3007
101278.3004
101278.3002
101278.2998
101278.2995
101278.2991
101278.2987
101278.2982
101278.2977
101278.2971
101278.2964
101278.2957
101278.2949
101278.2941
101278.3021
101278.302
101278.3019
101278.3017
101278.3016
101278.3015
101278.3014
101278.3013
101278.3012
101278.301
101278.3009
101278.3008
101278.3007
101278.3006
101278.3004
101278.3003
101278.3002
101278.3001
101278.2999
101278.2998
101278.2996
101278.2995
101278.2993
101278.2991
101278.2989
101278.2987
101278.2985
101278.2982
101278.2979
101278.2976
101278.2973
101278.2969
101278.2964
101278.296
101278.2954
101278.2948
101278.2942
101278.2935
101278.2927
101278.2918
101278.2998
101278.2997
101278.2996
101278.2995
101278.2994
101278.2993
101278.2992
101278.299
101278.2989
101278.2988
101278.2987
101278.2986
101278.2984
101278.2983
101278.2982
101278.2981
101278.2979
101278.2978
101278.2977
101278.2975
101278.2974
101278.2972
101278.2971
101278.2969
101278.2967
101278.2965
101278.2962
101278.296
101278.2957
101278.2954
101278.295
101278.2946
101278.2942
101278.2937
101278.2932
101278.2926
101278.292
101278.2913
101278.2905
101278.2896
101278.2976
101278.2975
101278.2974
101278.2973
101278.2971
101278.297
101278.2969
101278.2968
101278.2967
101278.2966
101278.2964
101278.2963
101278.2962
101278.2961
101278.296
101278.2958
101278.2957
101278.2956
101278.2954
101278.2953
101278.2951
101278.295
101278.2948
101278.2946
101278.2944
101278.2942
101278.294
101278.2937
101278.2935
101278.2931
101278.2928
101278.2924
101278.292
101278.2915
101278.291
101278.2904
101278.2897
101278.289
101278.2883
101278.2874
101278.2953
101278.2953
101278.2951
101278.295
101278.2949
101278.2948
101278.2947
101278.2945
101278.2944
101278.2943
101278.2942
101278.2941
101278.2939
101278.2938
101278.2937
101278.2936
101278.2935
101278.2933
101278.2932
101278.293
101278.2929
101278.2927
101278.2926
101278.2924
101278.2922
101278.292
101278.2918
101278.2915
101278.2912
101278.2909
101278.2906
101278.2902
101278.2897
101278.2893
101278.2887
101278.2882
101278.2875
101278.2868
101278.286
101278.2852
101278.2931
101278.293
101278.2929
101278.2928
101278.2927
101278.2925
101278.2924
101278.2923
101278.2922
101278.2921
101278.2919
101278.2918
101278.2917
101278.2916
101278.2915
101278.2913
101278.2912
101278.2911
101278.2909
101278.2908
101278.2907
101278.2905
101278.2903
101278.2902
101278.29
101278.2897
101278.2895
101278.2893
101278.289
101278.2887
101278.2883
101278.2879
101278.2875
101278.287
101278.2865
101278.2859
101278.2853
101278.2846
101278.2838
101278.2829
101278.2909
101278.2908
101278.2906
101278.2905
101278.2904
101278.2903
101278.2902
101278.29
101278.2899
101278.2898
101278.2897
101278.2896
101278.2895
101278.2893
101278.2892
101278.2891
101278.289
101278.2888
101278.2887
101278.2886
101278.2884
101278.2883
101278.2881
101278.2879
101278.2877
101278.2875
101278.2873
101278.287
101278.2867
101278.2864
101278.2861
101278.2857
101278.2853
101278.2848
101278.2843
101278.2837
101278.2831
101278.2824
101278.2816
101278.2807
101278.2886
101278.2885
101278.2884
101278.2883
101278.2882
101278.288
101278.2879
101278.2878
101278.2877
101278.2876
101278.2874
101278.2873
101278.2872
101278.2871
101278.287
101278.2868
101278.2867
101278.2866
101278.2864
101278.2863
101278.2862
101278.286
101278.2858
101278.2857
101278.2855
101278.2853
101278.285
101278.2848
101278.2845
101278.2842
101278.2838
101278.2834
101278.283
101278.2826
101278.282
101278.2815
101278.2808
101278.2801
101278.2793
101278.2785
101278.2863
101278.2862
101278.2861
101278.286
101278.2859
101278.2858
101278.2857
101278.2855
101278.2854
101278.2853
101278.2852
101278.2851
101278.2849
101278.2848
101278.2847
101278.2846
101278.2845
101278.2843
101278.2842
101278.2841
101278.2839
101278.2838
101278.2836
101278.2834
101278.2832
101278.283
101278.2828
101278.2825
101278.2822
101278.2819
101278.2816
101278.2812
101278.2808
101278.2803
101278.2798
101278.2792
101278.2786
101278.2779
101278.2771
101278.2763
101278.2841
101278.284
101278.2839
101278.2838
101278.2836
101278.2835
101278.2834
101278.2833
101278.2832
101278.283
101278.2829
101278.2828
101278.2827
101278.2826
101278.2824
101278.2823
101278.2822
101278.2821
101278.2819
101278.2818
101278.2817
101278.2815
101278.2813
101278.2812
101278.281
101278.2808
101278.2805
101278.2803
101278.28
101278.2797
101278.2793
101278.279
101278.2785
101278.2781
101278.2776
101278.277
101278.2763
101278.2756
101278.2749
101278.274
101278.2818
101278.2817
101278.2816
101278.2815
101278.2814
101278.2813
101278.2811
101278.281
101278.2809
101278.2808
101278.2807
101278.2806
101278.2804
101278.2803
101278.2802
101278.2801
101278.2799
101278.2798
101278.2797
101278.2795
101278.2794
101278.2792
101278.2791
101278.2789
101278.2787
101278.2785
101278.2783
101278.278
101278.2777
101278.2774
101278.2771
101278.2767
101278.2763
101278.2758
101278.2753
101278.2747
101278.2741
101278.2734
101278.2726
101278.2718
101278.2796
101278.2795
101278.2794
101278.2792
101278.2791
101278.279
101278.2789
101278.2788
101278.2786
101278.2785
101278.2784
101278.2783
101278.2782
101278.2781
101278.2779
101278.2778
101278.2777
101278.2776
101278.2774
101278.2773
101278.2771
101278.277
101278.2768
101278.2766
101278.2764
101278.2762
101278.276
101278.2758
101278.2755
101278.2752
101278.2748
101278.2745
101278.274
101278.2736
101278.2731
101278.2725
101278.2719
101278.2712
101278.2704
101278.2696
101278.2773
101278.2772
101278.2771
101278.277
101278.2769
101278.2767
101278.2766
101278.2765
101278.2764
101278.2763