/*--------------------------------*- C++ -*----------------------------------*\
| =========                 |                                                 |
| \\      /  F ield         | OpenFOAM: The Open Source CFD Toolbox           |
|  \\    /   O peration     | Version:  v2006                                 |
|   \\  /    A nd           | Website:  www.openfoam.com                      |
|    \\/     M anipulation  |                                                 |
\*---------------------------------------------------------------------------*/
FoamFile
{
    version     2.0;
    format      ascii;
    class       volScalarField;
    location    "0.12";
    object      rho_0;
}
// * * * * * * * * * * * * * * * * * * * * * * * * * * * * * * * * * * * * * //

dimensions      [1 -3 0 0 0 0 0];


internalField   nonuniform List<scalar> 
168000
(
1.08983488
1.089834906
1.089834921
1.089834862
1.089834856
1.089834894
1.089834886
1.089834848
1.089834858
1.089834903
1.089834844
1.08983485
1.089834893
1.089834837
1.089834859
1.089834864
1.08983483
1.089834884
1.089834829
1.089834859
1.089834838
1.089834847
1.089834837
1.089834842
1.089834831
1.089834841
1.089834822
1.089834836
1.08983482
1.089834819
1.08983482
1.089834809
1.089834805
1.089834802
1.089834794
1.089834787
1.08983478
1.089834771
1.089834761
1.089834749
1.089834862
1.089834869
1.089834873
1.089834848
1.089834843
1.089834856
1.089834852
1.089834835
1.089834837
1.089834857
1.08983483
1.089834831
1.089834851
1.089834822
1.089834832
1.089834834
1.089834814
1.089834845
1.089834812
1.08983483
1.089834815
1.089834821
1.089834813
1.089834816
1.089834807
1.089834813
1.0898348
1.089834808
1.089834796
1.089834794
1.089834793
1.089834785
1.08983478
1.089834777
1.089834769
1.089834762
1.089834755
1.089834746
1.089834736
1.089834724
1.089834838
1.089834839
1.089834838
1.089834829
1.089834825
1.089834826
1.089834823
1.089834817
1.089834816
1.089834822
1.089834811
1.08983481
1.089834817
1.089834804
1.089834807
1.089834807
1.089834796
1.089834812
1.089834792
1.089834803
1.089834791
1.089834795
1.089834789
1.08983479
1.089834783
1.089834787
1.089834776
1.089834781
1.089834772
1.08983477
1.089834767
1.08983476
1.089834756
1.089834751
1.089834744
1.089834737
1.089834729
1.089834721
1.089834711
1.089834698
1.089834813
1.089834812
1.089834811
1.089834806
1.089834804
1.089834802
1.0898348
1.089834796
1.089834795
1.089834796
1.08983479
1.089834789
1.089834791
1.089834784
1.089834784
1.089834784
1.089834776
1.089834786
1.089834772
1.089834779
1.08983477
1.089834773
1.089834767
1.089834768
1.089834761
1.089834764
1.089834755
1.089834758
1.08983475
1.089834748
1.089834744
1.089834738
1.089834734
1.089834729
1.089834722
1.089834715
1.089834707
1.089834699
1.089834688
1.089834675
1.089834787
1.089834787
1.089834786
1.089834783
1.08983478
1.089834779
1.089834777
1.089834774
1.089834772
1.089834772
1.089834768
1.089834766
1.089834767
1.089834762
1.089834762
1.089834761
1.089834755
1.089834761
1.089834751
1.089834755
1.089834748
1.08983475
1.089834745
1.089834745
1.089834739
1.089834741
1.089834733
1.089834735
1.089834728
1.089834725
1.089834722
1.089834716
1.089834711
1.089834706
1.089834699
1.089834693
1.089834685
1.089834676
1.089834666
1.089834653
1.089834762
1.089834762
1.089834761
1.089834759
1.089834757
1.089834755
1.089834753
1.089834751
1.089834749
1.089834748
1.089834745
1.089834744
1.089834743
1.08983474
1.089834738
1.089834738
1.089834733
1.089834736
1.089834729
1.089834731
1.089834726
1.089834726
1.089834722
1.089834722
1.089834717
1.089834717
1.089834711
1.089834711
1.089834705
1.089834702
1.089834698
1.089834693
1.089834688
1.089834683
1.089834676
1.08983467
1.089834662
1.089834653
1.089834643
1.089834629
1.089834738
1.089834737
1.089834736
1.089834735
1.089834733
1.089834731
1.089834729
1.089834728
1.089834726
1.089834724
1.089834722
1.089834721
1.089834719
1.089834717
1.089834715
1.089834714
1.089834711
1.089834712
1.089834707
1.089834708
1.089834703
1.089834703
1.089834699
1.089834699
1.089834694
1.089834694
1.089834688
1.089834688
1.089834682
1.089834679
1.089834675
1.08983467
1.089834665
1.08983466
1.089834654
1.089834647
1.089834639
1.08983463
1.08983462
1.089834606
1.089834714
1.089834713
1.089834712
1.089834711
1.089834709
1.089834708
1.089834706
1.089834704
1.089834703
1.089834701
1.089834699
1.089834698
1.089834696
1.089834694
1.089834692
1.089834691
1.089834688
1.089834688
1.089834685
1.089834684
1.089834681
1.08983468
1.089834676
1.089834675
1.089834671
1.089834671
1.089834666
1.089834665
1.08983466
1.089834657
1.089834652
1.089834647
1.089834642
1.089834637
1.089834631
1.089834624
1.089834616
1.089834607
1.089834597
1.089834583
1.08983469
1.089834689
1.089834688
1.089834687
1.089834685
1.089834684
1.089834682
1.089834681
1.089834679
1.089834678
1.089834676
1.089834674
1.089834673
1.089834671
1.089834669
1.089834668
1.089834666
1.089834665
1.089834662
1.089834661
1.089834658
1.089834657
1.089834654
1.089834652
1.089834649
1.089834647
1.089834643
1.089834641
1.089834637
1.089834634
1.089834629
1.089834625
1.089834619
1.089834614
1.089834608
1.089834601
1.089834593
1.089834584
1.089834574
1.089834559
1.089834666
1.089834665
1.089834664
1.089834663
1.089834662
1.08983466
1.089834659
1.089834657
1.089834656
1.089834654
1.089834653
1.089834651
1.08983465
1.089834648
1.089834646
1.089834645
1.089834643
1.089834642
1.089834639
1.089834638
1.089834635
1.089834634
1.089834631
1.089834629
1.089834626
1.089834624
1.08983462
1.089834618
1.089834614
1.089834611
1.089834606
1.089834602
1.089834597
1.089834591
1.089834585
1.089834578
1.08983457
1.089834561
1.08983455
1.089834536
1.089834642
1.089834642
1.089834641
1.089834639
1.089834638
1.089834637
1.089834635
1.089834634
1.089834633
1.089834631
1.089834629
1.089834628
1.089834626
1.089834625
1.089834623
1.089834622
1.08983462
1.089834618
1.089834616
1.089834615
1.089834612
1.08983461
1.089834608
1.089834606
1.089834603
1.089834601
1.089834597
1.089834595
1.089834591
1.089834588
1.089834583
1.089834579
1.089834574
1.089834568
1.089834562
1.089834555
1.089834547
1.089834538
1.089834527
1.089834512
1.089834619
1.089834618
1.089834617
1.089834616
1.089834615
1.089834613
1.089834612
1.089834611
1.089834609
1.089834608
1.089834606
1.089834605
1.089834603
1.089834601
1.0898346
1.089834598
1.089834596
1.089834595
1.089834593
1.089834591
1.089834589
1.089834587
1.089834585
1.089834583
1.08983458
1.089834578
1.089834574
1.089834572
1.089834568
1.089834564
1.08983456
1.089834556
1.08983455
1.089834545
1.089834539
1.089834532
1.089834524
1.089834515
1.089834504
1.089834489
1.089834595
1.089834595
1.089834593
1.089834592
1.089834591
1.08983459
1.089834588
1.089834587
1.089834586
1.089834584
1.089834583
1.089834581
1.08983458
1.089834578
1.089834577
1.089834575
1.089834573
1.089834572
1.08983457
1.089834568
1.089834566
1.089834564
1.089834562
1.08983456
1.089834557
1.089834555
1.089834551
1.089834549
1.089834545
1.089834541
1.089834537
1.089834533
1.089834527
1.089834522
1.089834516
1.089834509
1.089834501
1.089834492
1.089834481
1.089834465
1.089834572
1.089834571
1.08983457
1.089834569
1.089834568
1.089834566
1.089834565
1.089834564
1.089834562
1.089834561
1.089834559
1.089834558
1.089834556
1.089834555
1.089834553
1.089834552
1.08983455
1.089834549
1.089834547
1.089834545
1.089834543
1.089834541
1.089834539
1.089834537
1.089834534
1.089834532
1.089834528
1.089834526
1.089834522
1.089834518
1.089834514
1.089834509
1.089834504
1.089834499
1.089834493
1.089834486
1.089834478
1.089834469
1.089834458
1.089834442
1.089834548
1.089834548
1.089834546
1.089834545
1.089834544
1.089834543
1.089834541
1.08983454
1.089834539
1.089834537
1.089834536
1.089834535
1.089834533
1.089834532
1.08983453
1.089834529
1.089834527
1.089834525
1.089834523
1.089834522
1.08983452
1.089834518
1.089834515
1.089834513
1.089834511
1.089834508
1.089834505
1.089834502
1.089834499
1.089834495
1.089834491
1.089834486
1.089834481
1.089834476
1.08983447
1.089834463
1.089834455
1.089834446
1.089834434
1.089834418
1.089834525
1.089834524
1.089834523
1.089834522
1.089834521
1.089834519
1.089834518
1.089834517
1.089834515
1.089834514
1.089834513
1.089834511
1.08983451
1.089834508
1.089834507
1.089834505
1.089834504
1.089834502
1.0898345
1.089834498
1.089834496
1.089834495
1.089834492
1.08983449
1.089834488
1.089834485
1.089834482
1.089834479
1.089834476
1.089834472
1.089834468
1.089834463
1.089834458
1.089834453
1.089834446
1.08983444
1.089834432
1.089834423
1.089834411
1.089834394
1.089834501
1.089834501
1.089834499
1.089834498
1.089834497
1.089834496
1.089834494
1.089834493
1.089834492
1.089834491
1.089834489
1.089834488
1.089834486
1.089834485
1.089834483
1.089834482
1.08983448
1.089834479
1.089834477
1.089834475
1.089834473
1.089834471
1.089834469
1.089834467
1.089834464
1.089834462
1.089834459
1.089834456
1.089834452
1.089834449
1.089834445
1.08983444
1.089834435
1.089834429
1.089834423
1.089834416
1.089834409
1.089834399
1.089834387
1.08983437
1.089834478
1.089834477
1.089834476
1.089834475
1.089834473
1.089834472
1.089834471
1.08983447
1.089834468
1.089834467
1.089834466
1.089834464
1.089834463
1.089834461
1.08983446
1.089834458
1.089834457
1.089834455
1.089834454
1.089834452
1.08983445
1.089834448
1.089834446
1.089834444
1.089834441
1.089834439
1.089834436
1.089834433
1.089834429
1.089834426
1.089834421
1.089834417
1.089834412
1.089834406
1.0898344
1.089834393
1.089834385
1.089834376
1.089834364
1.089834346
1.089834455
1.089834454
1.089834452
1.089834451
1.08983445
1.089834449
1.089834447
1.089834446
1.089834445
1.089834444
1.089834442
1.089834441
1.089834439
1.089834438
1.089834437
1.089834435
1.089834434
1.089834432
1.08983443
1.089834428
1.089834427
1.089834425
1.089834423
1.08983442
1.089834418
1.089834415
1.089834412
1.089834409
1.089834406
1.089834402
1.089834398
1.089834394
1.089834389
1.089834383
1.089834377
1.08983437
1.089834362
1.089834353
1.08983434
1.089834322
1.089834431
1.08983443
1.089834429
1.089834428
1.089834426
1.089834425
1.089834424
1.089834423
1.089834421
1.08983442
1.089834419
1.089834417
1.089834416
1.089834415
1.089834413
1.089834412
1.08983441
1.089834409
1.089834407
1.089834405
1.089834403
1.089834401
1.089834399
1.089834397
1.089834395
1.089834392
1.089834389
1.089834386
1.089834383
1.089834379
1.089834375
1.08983437
1.089834365
1.08983436
1.089834354
1.089834347
1.089834339
1.089834329
1.089834317
1.089834298
1.089834408
1.089834407
1.089834405
1.089834404
1.089834403
1.089834402
1.0898344
1.089834399
1.089834398
1.089834397
1.089834395
1.089834394
1.089834393
1.089834391
1.08983439
1.089834388
1.089834387
1.089834385
1.089834383
1.089834382
1.08983438
1.089834378
1.089834376
1.089834374
1.089834371
1.089834369
1.089834366
1.089834363
1.089834359
1.089834356
1.089834352
1.089834347
1.089834342
1.089834337
1.089834331
1.089834324
1.089834316
1.089834306
1.089834293
1.089834274
1.089834384
1.089834383
1.089834382
1.089834381
1.089834379
1.089834378
1.089834377
1.089834376
1.089834374
1.089834373
1.089834372
1.08983437
1.089834369
1.089834368
1.089834366
1.089834365
1.089834363
1.089834362
1.08983436
1.089834358
1.089834357
1.089834355
1.089834353
1.08983435
1.089834348
1.089834345
1.089834343
1.08983434
1.089834336
1.089834332
1.089834328
1.089834324
1.089834319
1.089834313
1.089834307
1.0898343
1.089834292
1.089834283
1.08983427
1.089834249
1.08983436
1.08983436
1.089834358
1.089834357
1.089834356
1.089834355
1.089834353
1.089834352
1.089834351
1.08983435
1.089834348
1.089834347
1.089834346
1.089834344
1.089834343
1.089834341
1.08983434
1.089834338
1.089834337
1.089834335
1.089834333
1.089834331
1.089834329
1.089834327
1.089834325
1.089834322
1.089834319
1.089834316
1.089834313
1.089834309
1.089834305
1.089834301
1.089834296
1.08983429
1.089834284
1.089834277
1.089834269
1.089834259
1.089834246
1.089834225
1.089834337
1.089834336
1.089834335
1.089834334
1.089834332
1.089834331
1.08983433
1.089834329
1.089834327
1.089834326
1.089834325
1.089834323
1.089834322
1.089834321
1.089834319
1.089834318
1.089834316
1.089834315
1.089834313
1.089834311
1.08983431
1.089834308
1.089834306
1.089834304
1.089834301
1.089834299
1.089834296
1.089834293
1.089834289
1.089834286
1.089834282
1.089834277
1.089834272
1.089834267
1.089834261
1.089834254
1.089834246
1.089834236
1.089834222
1.0898342
1.089834313
1.089834312
1.089834311
1.08983431
1.089834309
1.089834308
1.089834306
1.089834305
1.089834304
1.089834302
1.089834301
1.0898343
1.089834298
1.089834297
1.089834296
1.089834294
1.089834293
1.089834291
1.08983429
1.089834288
1.089834286
1.089834284
1.089834282
1.08983428
1.089834278
1.089834275
1.089834272
1.089834269
1.089834266
1.089834262
1.089834258
1.089834254
1.089834249
1.089834243
1.089834237
1.08983423
1.089834222
1.089834212
1.089834198
1.089834176
1.08983429
1.089834289
1.089834288
1.089834286
1.089834285
1.089834284
1.089834283
1.089834281
1.08983428
1.089834279
1.089834278
1.089834276
1.089834275
1.089834274
1.089834272
1.089834271
1.089834269
1.089834268
1.089834266
1.089834264
1.089834263
1.089834261
1.089834259
1.089834257
1.089834254
1.089834252
1.089834249
1.089834246
1.089834243
1.089834239
1.089834235
1.089834231
1.089834226
1.08983422
1.089834214
1.089834207
1.089834199
1.089834189
1.089834174
1.089834151
1.089834266
1.089834265
1.089834264
1.089834263
1.089834262
1.08983426
1.089834259
1.089834258
1.089834257
1.089834255
1.089834254
1.089834253
1.089834251
1.08983425
1.089834249
1.089834247
1.089834246
1.089834244
1.089834243
1.089834241
1.089834239
1.089834237
1.089834235
1.089834233
1.089834231
1.089834228
1.089834226
1.089834223
1.089834219
1.089834216
1.089834212
1.089834207
1.089834202
1.089834197
1.089834191
1.089834184
1.089834175
1.089834165
1.08983415
1.089834126
1.089834243
1.089834242
1.08983424
1.089834239
1.089834238
1.089834237
1.089834235
1.089834234
1.089834233
1.089834232
1.08983423
1.089834229
1.089834228
1.089834226
1.089834225
1.089834224
1.089834222
1.089834221
1.089834219
1.089834217
1.089834216
1.089834214
1.089834212
1.08983421
1.089834207
1.089834205
1.089834202
1.089834199
1.089834196
1.089834192
1.089834188
1.089834184
1.089834179
1.089834173
1.089834167
1.08983416
1.089834152
1.089834141
1.089834126
1.089834101
1.089834219
1.089834218
1.089834217
1.089834216
1.089834214
1.089834213
1.089834212
1.089834211
1.089834209
1.089834208
1.089834207
1.089834205
1.089834204
1.089834203
1.089834201
1.0898342
1.089834199
1.089834197
1.089834195
1.089834194
1.089834192
1.08983419
1.089834188
1.089834186
1.089834184
1.089834181
1.089834179
1.089834176
1.089834172
1.089834169
1.089834165
1.08983416
1.089834155
1.08983415
1.089834144
1.089834137
1.089834128
1.089834118
1.089834102
1.089834076
1.089834195
1.089834194
1.089834193
1.089834192
1.089834191
1.089834189
1.089834188
1.089834187
1.089834186
1.089834184
1.089834183
1.089834182
1.08983418
1.089834179
1.089834178
1.089834176
1.089834175
1.089834173
1.089834172
1.08983417
1.089834168
1.089834167
1.089834165
1.089834163
1.08983416
1.089834158
1.089834155
1.089834152
1.089834149
1.089834145
1.089834141
1.089834137
1.089834132
1.089834126
1.08983412
1.089834113
1.089834105
1.089834094
1.089834078
1.089834051
1.089834172
1.089834171
1.089834169
1.089834168
1.089834167
1.089834166
1.089834164
1.089834163
1.089834162
1.089834161
1.089834159
1.089834158
1.089834157
1.089834155
1.089834154
1.089834153
1.089834151
1.08983415
1.089834148
1.089834147
1.089834145
1.089834143
1.089834141
1.089834139
1.089834137
1.089834134
1.089834132
1.089834129
1.089834125
1.089834122
1.089834118
1.089834113
1.089834108
1.089834103
1.089834097
1.08983409
1.089834081
1.08983407
1.089834054
1.089834025
1.089834148
1.089834147
1.089834146
1.089834145
1.089834143
1.089834142
1.089834141
1.08983414
1.089834138
1.089834137
1.089834136
1.089834134
1.089834133
1.089834132
1.08983413
1.089834129
1.089834128
1.089834126
1.089834125
1.089834123
1.089834121
1.089834119
1.089834117
1.089834115
1.089834113
1.089834111
1.089834108
1.089834105
1.089834102
1.089834098
1.089834094
1.08983409
1.089834085
1.089834079
1.089834073
1.089834066
1.089834058
1.089834046
1.089834029
1.089834
1.089834124
1.089834123
1.089834122
1.089834121
1.08983412
1.089834118
1.089834117
1.089834116
1.089834115
1.089834113
1.089834112
1.089834111
1.089834109
1.089834108
1.089834107
1.089834105
1.089834104
1.089834102
1.089834101
1.089834099
1.089834098
1.089834096
1.089834094
1.089834092
1.089834089
1.089834087
1.089834084
1.089834081
1.089834078
1.089834075
1.089834071
1.089834066
1.089834061
1.089834056
1.08983405
1.089834043
1.089834034
1.089834022
1.089834005
1.089833974
1.089834101
1.0898341
1.089834098
1.089834097
1.089834096
1.089834095
1.089834093
1.089834092
1.089834091
1.08983409
1.089834088
1.089834087
1.089834086
1.089834084
1.089834083
1.089834082
1.08983408
1.089834079
1.089834077
1.089834076
1.089834074
1.089834072
1.08983407
1.089834068
1.089834066
1.089834063
1.089834061
1.089834058
1.089834054
1.089834051
1.089834047
1.089834043
1.089834038
1.089834032
1.089834026
1.089834019
1.08983401
1.089833998
1.08983398
1.089833948
1.089834077
1.089834076
1.089834075
1.089834073
1.089834072
1.089834071
1.08983407
1.089834068
1.089834067
1.089834066
1.089834064
1.089834063
1.089834062
1.089834061
1.089834059
1.089834058
1.089834056
1.089834055
1.089834053
1.089834052
1.08983405
1.089834048
1.089834046
1.089834044
1.089834042
1.08983404
1.089834037
1.089834034
1.089834031
1.089834027
1.089834023
1.089834019
1.089834014
1.089834009
1.089834003
1.089833995
1.089833986
1.089833974
1.089833956
1.089833922
1.089834053
1.089834052
1.089834051
1.08983405
1.089834048
1.089834047
1.089834046
1.089834045
1.089834043
1.089834042
1.089834041
1.089834039
1.089834038
1.089834037
1.089834035
1.089834034
1.089834033
1.089834031
1.08983403
1.089834028
1.089834026
1.089834025
1.089834023
1.089834021
1.089834018
1.089834016
1.089834013
1.08983401
1.089834007
1.089834004
1.089834
1.089833995
1.08983399
1.089833985
1.089833979
1.089833972
1.089833963
1.08983395
1.089833931
1.089833896
1.089834029
1.089834028
1.089834027
1.089834026
1.089834025
1.089834023
1.089834022
1.089834021
1.089834019
1.089834018
1.089834017
1.089834016
1.089834014
1.089834013
1.089834012
1.08983401
1.089834009
1.089834007
1.089834006
1.089834004
1.089834003
1.089834001
1.089833999
1.089833997
1.089833995
1.089833992
1.08983399
1.089833987
1.089833984
1.08983398
1.089833976
1.089833972
1.089833967
1.089833961
1.089833955
1.089833948
1.089833939
1.089833926
1.089833906
1.089833869
1.089834005
1.089834004
1.089834003
1.089834002
1.089834001
1.089833999
1.089833998
1.089833997
1.089833996
1.089833994
1.089833993
1.089833992
1.089833991
1.089833989
1.089833988
1.089833986
1.089833985
1.089833984
1.089833982
1.089833981
1.089833979
1.089833977
1.089833975
1.089833973
1.089833971
1.089833969
1.089833966
1.089833963
1.08983396
1.089833956
1.089833952
1.089833948
1.089833943
1.089833938
1.089833932
1.089833924
1.089833915
1.089833902
1.089833881
1.089833842
1.089833982
1.089833981
1.089833979
1.089833978
1.089833977
1.089833976
1.089833974
1.089833973
1.089833972
1.089833971
1.089833969
1.089833968
1.089833967
1.089833965
1.089833964
1.089833963
1.089833961
1.08983396
1.089833958
1.089833957
1.089833955
1.089833953
1.089833951
1.089833949
1.089833947
1.089833945
1.089833942
1.089833939
1.089833936
1.089833933
1.089833929
1.089833924
1.08983392
1.089833914
1.089833908
1.089833901
1.089833891
1.089833878
1.089833856
1.089833815
1.089833958
1.089833957
1.089833956
1.089833954
1.089833953
1.089833952
1.089833951
1.089833949
1.089833948
1.089833947
1.089833945
1.089833944
1.089833943
1.089833942
1.08983394
1.089833939
1.089833937
1.089833936
1.089833935
1.089833933
1.089833931
1.08983393
1.089833928
1.089833926
1.089833923
1.089833921
1.089833918
1.089833916
1.089833912
1.089833909
1.089833905
1.089833901
1.089833896
1.08983389
1.089833884
1.089833877
1.089833867
1.089833854
1.089833831
1.089833788
1.089833934
1.089833933
1.089833932
1.08983393
1.089833929
1.089833928
1.089833927
1.089833925
1.089833924
1.089833923
1.089833922
1.08983392
1.089833919
1.089833918
1.089833916
1.089833915
1.089833914
1.089833912
1.089833911
1.089833909
1.089833907
1.089833906
1.089833904
1.089833902
1.0898339
1.089833897
1.089833895
1.089833892
1.089833889
1.089833885
1.089833881
1.089833877
1.089833872
1.089833867
1.08983386
1.089833853
1.089833843
1.089833829
1.089833806
1.089833761
1.08983391
1.089833909
1.089833908
1.089833907
1.089833905
1.089833904
1.089833903
1.089833902
1.0898339
1.089833899
1.089833898
1.089833896
1.089833895
1.089833894
1.089833892
1.089833891
1.08983389
1.089833888
1.089833887
1.089833885
1.089833884
1.089833882
1.08983388
1.089833878
1.089833876
1.089833873
1.089833871
1.089833868
1.089833865
1.089833861
1.089833857
1.089833853
1.089833848
1.089833843
1.089833837
1.089833829
1.089833819
1.089833805
1.08983378
1.089833733
1.089833886
1.089833885
1.089833884
1.089833883
1.089833881
1.08983388
1.089833879
1.089833878
1.089833876
1.089833875
1.089833874
1.089833872
1.089833871
1.08983387
1.089833869
1.089833867
1.089833866
1.089833864
1.089833863
1.089833861
1.08983386
1.089833858
1.089833856
1.089833854
1.089833852
1.08983385
1.089833847
1.089833844
1.089833841
1.089833837
1.089833834
1.089833829
1.089833825
1.089833819
1.089833813
1.089833805
1.089833795
1.08983378
1.089833755
1.089833705
1.089833862
1.089833861
1.08983386
1.089833859
1.089833857
1.089833856
1.089833855
1.089833854
1.089833852
1.089833851
1.08983385
1.089833849
1.089833847
1.089833846
1.089833845
1.089833843
1.089833842
1.08983384
1.089833839
1.089833837
1.089833836
1.089833834
1.089833832
1.08983383
1.089833828
1.089833826
1.089833823
1.08983382
1.089833817
1.089833814
1.08983381
1.089833805
1.089833801
1.089833795
1.089833789
1.089833781
1.089833771
1.089833756
1.089833729
1.089833677
1.089833838
1.089833837
1.089833836
1.089833835
1.089833833
1.089833832
1.089833831
1.08983383
1.089833828
1.089833827
1.089833826
1.089833825
1.089833823
1.089833822
1.089833821
1.089833819
1.089833818
1.089833816
1.089833815
1.089833813
1.089833812
1.08983381
1.089833808
1.089833806
1.089833804
1.089833802
1.089833799
1.089833796
1.089833793
1.08983379
1.089833786
1.089833782
1.089833777
1.089833771
1.089833765
1.089833757
1.089833747
1.089833731
1.089833703
1.089833648
1.089833814
1.089833813
1.089833812
1.089833811
1.08983381
1.089833808
1.089833807
1.089833806
1.089833804
1.089833803
1.089833802
1.089833801
1.089833799
1.089833798
1.089833797
1.089833795
1.089833794
1.089833792
1.089833791
1.089833789
1.089833788
1.089833786
1.089833784
1.089833782
1.08983378
1.089833778
1.089833775
1.089833772
1.089833769
1.089833766
1.089833762
1.089833758
1.089833753
1.089833748
1.089833741
1.089833733
1.089833723
1.089833706
1.089833677
1.089833619
1.08983379
1.089833789
1.089833788
1.089833787
1.089833786
1.089833784
1.089833783
1.089833782
1.08983378
1.089833779
1.089833778
1.089833777
1.089833775
1.089833774
1.089833773
1.089833771
1.08983377
1.089833769
1.089833767
1.089833766
1.089833764
1.089833762
1.08983376
1.089833758
1.089833756
1.089833754
1.089833751
1.089833748
1.089833745
1.089833742
1.089833738
1.089833734
1.089833729
1.089833724
1.089833717
1.089833709
1.089833698
1.089833681
1.089833651
1.08983359
1.089833766
1.089833765
1.089833764
1.089833763
1.089833761
1.08983376
1.089833759
1.089833758
1.089833756
1.089833755
1.089833754
1.089833753
1.089833751
1.08983375
1.089833749
1.089833747
1.089833746
1.089833744
1.089833743
1.089833741
1.08983374
1.089833738
1.089833736
1.089833734
1.089833732
1.08983373
1.089833727
1.089833725
1.089833721
1.089833718
1.089833714
1.08983371
1.089833705
1.0898337
1.089833693
1.089833685
1.089833674
1.089833656
1.089833624
1.08983356
1.089833742
1.089833741
1.08983374
1.089833739
1.089833737
1.089833736
1.089833735
1.089833734
1.089833732
1.089833731
1.08983373
1.089833728
1.089833727
1.089833726
1.089833725
1.089833723
1.089833722
1.08983372
1.089833719
1.089833717
1.089833716
1.089833714
1.089833712
1.08983371
1.089833708
1.089833706
1.089833703
1.089833701
1.089833697
1.089833694
1.08983369
1.089833686
1.089833681
1.089833676
1.089833669
1.089833661
1.08983365
1.089833631
1.089833598
1.08983353
1.089833718
1.089833717
1.089833716
1.089833715
1.089833713
1.089833712
1.089833711
1.08983371
1.089833708
1.089833707
1.089833706
1.089833704
1.089833703
1.089833702
1.0898337
1.089833699
1.089833698
1.089833696
1.089833695
1.089833693
1.089833692
1.08983369
1.089833688
1.089833686
1.089833684
1.089833682
1.089833679
1.089833677
1.089833673
1.08983367
1.089833666
1.089833662
1.089833657
1.089833652
1.089833645
1.089833637
1.089833625
1.089833606
1.089833571
1.089833499
1.089833694
1.089833693
1.089833692
1.089833691
1.089833689
1.089833688
1.089833687
1.089833685
1.089833684
1.089833683
1.089833682
1.08983368
1.089833679
1.089833678
1.089833676
1.089833675
1.089833674
1.089833672
1.089833671
1.089833669
1.089833668
1.089833666
1.089833664
1.089833662
1.08983366
1.089833658
1.089833655
1.089833652
1.089833649
1.089833646
1.089833642
1.089833638
1.089833633
1.089833628
1.089833621
1.089833613
1.089833601
1.089833581
1.089833544
1.089833468
1.08983367
1.089833669
1.089833668
1.089833666
1.089833665
1.089833664
1.089833663
1.089833661
1.08983366
1.089833659
1.089833657
1.089833656
1.089833655
1.089833654
1.089833652
1.089833651
1.08983365
1.089833648
1.089833647
1.089833645
1.089833644
1.089833642
1.08983364
1.089833638
1.089833636
1.089833634
1.089833631
1.089833628
1.089833625
1.089833622
1.089833618
1.089833614
1.089833609
1.089833604
1.089833597
1.089833588
1.089833576
1.089833555
1.089833517
1.089833437
1.089833646
1.089833645
1.089833644
1.089833642
1.089833641
1.08983364
1.089833638
1.089833637
1.089833636
1.089833635
1.089833633
1.089833632
1.089833631
1.089833629
1.089833628
1.089833627
1.089833625
1.089833624
1.089833623
1.089833621
1.089833619
1.089833618
1.089833616
1.089833614
1.089833612
1.08983361
1.089833607
1.089833604
1.089833601
1.089833598
1.089833594
1.08983359
1.089833585
1.08983358
1.089833573
1.089833564
1.089833551
1.08983353
1.089833489
1.089833405
1.089833622
1.089833621
1.089833619
1.089833618
1.089833617
1.089833616
1.089833614
1.089833613
1.089833612
1.08983361
1.089833609
1.089833608
1.089833607
1.089833605
1.089833604
1.089833603
1.089833601
1.0898336
1.089833598
1.089833597
1.089833595
1.089833594
1.089833592
1.08983359
1.089833588
1.089833586
1.089833583
1.08983358
1.089833577
1.089833574
1.08983357
1.089833566
1.089833561
1.089833556
1.089833549
1.08983354
1.089833527
1.089833504
1.089833462
1.089833372
1.089833597
1.089833596
1.089833595
1.089833594
1.089833593
1.089833591
1.08983359
1.089833589
1.089833588
1.089833586
1.089833585
1.089833584
1.089833582
1.089833581
1.08983358
1.089833578
1.089833577
1.089833576
1.089833574
1.089833573
1.089833571
1.08983357
1.089833568
1.089833566
1.089833564
1.089833561
1.089833559
1.089833556
1.089833553
1.08983355
1.089833546
1.089833542
1.089833537
1.089833531
1.089833525
1.089833515
1.089833502
1.089833479
1.089833434
1.089833339
1.089833573
1.089833572
1.089833571
1.08983357
1.089833568
1.089833567
1.089833566
1.089833565
1.089833563
1.089833562
1.089833561
1.08983356
1.089833558
1.089833557
1.089833556
1.089833554
1.089833553
1.089833552
1.08983355
1.089833549
1.089833547
1.089833545
1.089833544
1.089833542
1.08983354
1.089833537
1.089833535
1.089833532
1.089833529
1.089833526
1.089833522
1.089833518
1.089833513
1.089833507
1.0898335
1.089833491
1.089833477
1.089833453
1.089833405
1.089833306
1.089833549
1.089833548
1.089833547
1.089833545
1.089833544
1.089833543
1.089833542
1.08983354
1.089833539
1.089833538
1.089833537
1.089833535
1.089833534
1.089833533
1.089833531
1.08983353
1.089833529
1.089833527
1.089833526
1.089833524
1.089833523
1.089833521
1.089833519
1.089833517
1.089833515
1.089833513
1.089833511
1.089833508
1.089833505
1.089833501
1.089833498
1.089833494
1.089833489
1.089833483
1.089833476
1.089833467
1.089833452
1.089833427
1.089833377
1.089833271
1.089833525
1.089833524
1.089833522
1.089833521
1.08983352
1.089833519
1.089833517
1.089833516
1.089833515
1.089833514
1.089833512
1.089833511
1.08983351
1.089833508
1.089833507
1.089833506
1.089833504
1.089833503
1.089833502
1.0898335
1.089833499
1.089833497
1.089833495
1.089833493
1.089833491
1.089833489
1.089833486
1.089833484
1.089833481
1.089833477
1.089833474
1.089833469
1.089833465
1.089833459
1.089833452
1.089833442
1.089833427
1.0898334
1.089833348
1.089833236
1.089833501
1.089833499
1.089833498
1.089833497
1.089833496
1.089833494
1.089833493
1.089833492
1.089833491
1.089833489
1.089833488
1.089833487
1.089833485
1.089833484
1.089833483
1.089833482
1.08983348
1.089833479
1.089833477
1.089833476
1.089833474
1.089833473
1.089833471
1.089833469
1.089833467
1.089833465
1.089833462
1.089833459
1.089833456
1.089833453
1.089833449
1.089833445
1.08983344
1.089833435
1.089833427
1.089833417
1.089833402
1.089833374
1.089833319
1.089833201
1.089833476
1.089833475
1.089833474
1.089833473
1.089833471
1.08983347
1.089833469
1.089833468
1.089833466
1.089833465
1.089833464
1.089833462
1.089833461
1.08983346
1.089833459
1.089833457
1.089833456
1.089833454
1.089833453
1.089833452
1.08983345
1.089833448
1.089833447
1.089833445
1.089833443
1.08983344
1.089833438
1.089833435
1.089833432
1.089833429
1.089833425
1.089833421
1.089833416
1.08983341
1.089833403
1.089833393
1.089833377
1.089833348
1.089833289
1.089833164
1.089833452
1.089833451
1.08983345
1.089833448
1.089833447
1.089833446
1.089833445
1.089833443
1.089833442
1.089833441
1.089833439
1.089833438
1.089833437
1.089833436
1.089833434
1.089833433
1.089833432
1.08983343
1.089833429
1.089833427
1.089833426
1.089833424
1.089833422
1.08983342
1.089833418
1.089833416
1.089833414
1.089833411
1.089833408
1.089833405
1.089833401
1.089833397
1.089833392
1.089833386
1.089833379
1.089833368
1.089833351
1.089833321
1.08983326
1.089833127
1.089833428
1.089833427
1.089833425
1.089833424
1.089833423
1.089833421
1.08983342
1.089833419
1.089833418