/*--------------------------------*- C++ -*----------------------------------*\
| =========                 |                                                 |
| \\      /  F ield         | OpenFOAM: The Open Source CFD Toolbox           |
|  \\    /   O peration     | Version:  v2006                                 |
|   \\  /    A nd           | Website:  www.openfoam.com                      |
|    \\/     M anipulation  |                                                 |
\*---------------------------------------------------------------------------*/
FoamFile
{
    version     2.0;
    format      ascii;
    class       volScalarField;
    location    "0.12";
    object      theta1;
}
// * * * * * * * * * * * * * * * * * * * * * * * * * * * * * * * * * * * * * //

dimensions      [0 0 0 0 0 0 0];


internalField   nonuniform List<scalar> 
168000
(
1
1
1
1
1
1
1
1
1
1
1
1
1
1
1
1
1
1
1
1
1
1
1
1
1
1
1
1
0.9999999999
0.9999999998
0.9999999997
0.9999999994
0.9999999989
0.9999999978
0.9999999957
0.9999999908
0.9999999814
0.9999999629
0.9999999256
0.9999998487
1
1
1
1
1
1
1
1
1
1
1
1
1
1
1
1
1
1
1
1
1
1
1
1
1
1
1
1
0.9999999999
0.9999999998
0.9999999997
0.9999999993
0.9999999988
0.9999999977
0.9999999953
0.9999999903
0.9999999804
0.9999999608
0.9999999215
0.9999998399
1
1
1
1
1
1
1
1
1
1
1
1
1
1
1
1
1
1
1
1
1
1
1
1
1
1
1
1
0.9999999999
0.9999999998
0.9999999996
0.9999999993
0.9999999987
0.9999999975
0.999999995
0.9999999897
0.9999999793
0.9999999587
0.9999999171
0.9999998307
1
1
1
1
1
1
1
1
1
1
1
1
1
1
1
1
1
1
1
1
1
1
1
1
1
1
1
1
0.9999999999
0.9999999998
0.9999999996
0.9999999993
0.9999999986
0.9999999973
0.9999999947
0.9999999891
0.9999999781
0.9999999564
0.9999999125
0.9999998209
1
1
1
1
1
1
1
1
1
1
1
1
1
1
1
1
1
1
1
1
1
1
1
1
1
1
1
1
0.9999999999
0.9999999998
0.9999999996
0.9999999992
0.9999999985
0.9999999972
0.9999999943
0.9999999885
0.9999999769
0.999999954
0.9999999076
0.9999998106
1
1
1
1
1
1
1
1
1
1
1
1
1
1
1
1
1
1
1
1
1
1
1
1
1
1
1
0.9999999999
0.9999999999
0.9999999997
0.9999999996
0.9999999992
0.9999999984
0.999999997
0.999999994
0.9999999878
0.9999999756
0.9999999515
0.9999999025
0.9999997997
1
1
1
1
1
1
1
1
1
1
1
1
1
1
1
1
1
1
1
1
1
1
1
1
1
1
1
0.9999999999
0.9999999999
0.9999999997
0.9999999995
0.9999999991
0.9999999983
0.9999999968
0.9999999936
0.9999999871
0.9999999742
0.9999999488
0.999999897
0.9999997881
1
1
1
1
1
1
1
1
1
1
1
1
1
1
1
1
1
1
1
1
1
1
1
1
1
1
1
0.9999999999
0.9999999998
0.9999999997
0.9999999995
0.9999999991
0.9999999982
0.9999999965
0.9999999932
0.9999999863
0.9999999728
0.999999946
0.9999998912
0.9999997759
1
1
1
1
1
1
1
1
1
1
1
1
1
1
1
1
1
1
1
1
1
1
1
1
1
1
1
0.9999999999
0.9999999998
0.9999999997
0.9999999995
0.999999999
0.9999999981
0.9999999963
0.9999999927
0.9999999855
0.9999999713
0.999999943
0.999999885
0.999999763
1
1
1
1
1
1
1
1
1
1
1
1
1
1
1
1
1
1
1
1
1
1
1
1
1
1
1
0.9999999999
0.9999999998
0.9999999997
0.9999999994
0.9999999989
0.999999998
0.9999999961
0.9999999923
0.9999999847
0.9999999697
0.9999999398
0.9999998785
0.9999997494
1
1
1
1
1
1
1
1
1
1
1
1
1
1
1
1
1
1
1
1
1
1
1
1
1
1
1
0.9999999999
0.9999999998
0.9999999997
0.9999999994
0.9999999989
0.9999999978
0.9999999958
0.9999999918
0.9999999838
0.9999999679
0.9999999364
0.9999998716
0.9999997349
1
1
1
1
1
1
1
1
1
1
1
1
1
1
1
1
1
1
1
1
1
1
1
1
1
1
1
0.9999999999
0.9999999998
0.9999999996
0.9999999993
0.9999999988
0.9999999977
0.9999999956
0.9999999913
0.9999999828
0.9999999661
0.9999999328
0.9999998643
0.9999997197
1
1
1
1
1
1
1
1
1
1
1
1
1
1
1
1
1
1
1
1
1
1
1
1
1
1
0.9999999999
0.9999999999
0.9999999998
0.9999999996
0.9999999993
0.9999999987
0.9999999975
0.9999999953
0.9999999908
0.9999999819
0.9999999642
0.999999929
0.9999998566
0.9999997036
1
1
1
1
1
1
1
1
1
1
1
1
1
1
1
1
1
1
1
1
1
1
1
1
1
1
0.9999999999
0.9999999999
0.9999999998
0.9999999996
0.9999999993
0.9999999986
0.9999999974
0.999999995
0.9999999902
0.9999999808
0.9999999622
0.999999925
0.9999998484
0.9999996866
1
1
1
1
1
1
1
1
1
1
1
1
1
1
1
1
1
1
1
1
1
1
1
1
1
1
0.9999999999
0.9999999999
0.9999999998
0.9999999996
0.9999999992
0.9999999985
0.9999999972
0.9999999947
0.9999999896
0.9999999797
0.9999999601
0.9999999208
0.9999998398
0.9999996687
1
1
1
1
1
1
1
1
1
1
1
1
1
1
1
1
1
1
1
1
1
1
1
1
1
1
0.9999999999
0.9999999999
0.9999999997
0.9999999995
0.9999999992
0.9999999984
0.999999997
0.9999999943
0.999999989
0.9999999785
0.9999999578
0.9999999163
0.9999998307
0.9999996497
1
1
1
1
1
1
1
1
1
1
1
1
1
1
1
1
1
1
1
1
1
1
1
1
1
1
0.9999999999
0.9999999999
0.9999999997
0.9999999995
0.9999999991
0.9999999983
0.9999999969
0.999999994
0.9999999884
0.9999999773
0.9999999555
0.9999999115
0.999999821
0.9999996297
1
1
1
1
1
1
1
1
1
1
1
1
1
1
1
1
1
1
1
1
1
1
1
1
1
1
0.9999999999
0.9999999998
0.9999999997
0.9999999995
0.999999999
0.9999999982
0.9999999967
0.9999999936
0.9999999877
0.999999976
0.9999999529
0.9999999065
0.9999998108
0.9999996085
1
1
1
1
1
1
1
1
1
1
1
1
1
1
1
1
1
1
1
1
1
1
1
1
1
1
0.9999999999
0.9999999998
0.9999999997
0.9999999994
0.999999999
0.9999999981
0.9999999964
0.9999999932
0.9999999869
0.9999999746
0.9999999503
0.9999999012
0.9999998
0.9999995862
1
1
1
1
1
1
1
1
1
1
1
1
1
1
1
1
1
1
1
1
1
1
1
1
1
0.9999999999
0.9999999999
0.9999999998
0.9999999997
0.9999999994
0.9999999989
0.999999998
0.9999999962
0.9999999928
0.9999999862
0.9999999732
0.9999999474
0.9999998956
0.9999997886
0.9999995626
1
1
1
1
1
1
1
1
1
1
1
1
1
1
1
1
1
1
1
1
1
1
1
1
1
0.9999999999
0.9999999999
0.9999999998
0.9999999996
0.9999999994
0.9999999988
0.9999999979
0.999999996
0.9999999924
0.9999999854
0.9999999716
0.9999999445
0.9999998897
0.9999997765
0.9999995377
1
1
1
1
1
1
1
1
1
1
1
1
1
1
1
1
1
1
1
1
1
1
1
1
1
0.9999999999
0.9999999999
0.9999999998
0.9999999996
0.9999999993
0.9999999988
0.9999999977
0.9999999957
0.9999999919
0.9999999845
0.99999997
0.9999999413
0.9999998834
0.9999997638
0.9999995114
1
1
1
1
1
1
1
1
1
1
1
1
1
1
1
1
1
1
1
1
1
1
1
1
1
0.9999999999
0.9999999999
0.9999999998
0.9999999996
0.9999999993
0.9999999987
0.9999999976
0.9999999955
0.9999999914
0.9999999836
0.9999999683
0.999999938
0.9999998767
0.9999997504
0.9999994837
1
1
1
1
1
1
1
1
1
1
1
1
1
1
1
1
1
1
1
1
1
1
1
1
1
0.9999999999
0.9999999999
0.9999999998
0.9999999996
0.9999999992
0.9999999986
0.9999999974
0.9999999952
0.9999999909
0.9999999826
0.9999999665
0.9999999344
0.9999998697
0.9999997362
0.9999994544
1
1
1
1
1
1
1
1
1
1
1
1
1
1
1
1
1
1
1
1
1
1
1
1
1
0.9999999999
0.9999999999
0.9999999997
0.9999999995
0.9999999992
0.9999999985
0.9999999973
0.9999999949
0.9999999904
0.9999999816
0.9999999645
0.9999999307
0.9999998623
0.9999997211
0.9999994235
1
1
1
1
1
1
1
1
1
1
1
1
1
1
1
1
1
1
1
1
1
1
1
1
1
0.9999999999
0.9999999998
0.9999999997
0.9999999995
0.9999999991
0.9999999984
0.9999999971
0.9999999946
0.9999999898
0.9999999806
0.9999999625
0.9999999267
0.9999998545
0.9999997053
0.9999993909
1
1
1
1
1
1
1
1
1
1
1
1
1
1
1
1
1
1
1
1
1
1
1
1
0.9999999999
0.9999999999
0.9999999998
0.9999999997
0.9999999995
0.9999999991
0.9999999983
0.9999999969
0.9999999943
0.9999999892
0.9999999794
0.9999999604
0.9999999226
0.9999998462
0.9999996885
0.9999993564
1
1
1
1
1
1
1
1
1
1
1
1
1
1
1
1
1
1
1
1
1
1
1
1
0.9999999999
0.9999999999
0.9999999998
0.9999999997
0.9999999994
0.999999999
0.9999999982
0.9999999967
0.9999999939
0.9999999886
0.9999999782
0.9999999581
0.9999999182
0.9999998375
0.9999996709
0.9999993201
1
1
1
1
1
1
1
1
1
1
1
1
1
1
1
1
1
1
1
1
1
1
1
1
0.9999999999
0.9999999999
0.9999999998
0.9999999997
0.9999999994
0.9999999989
0.9999999981
0.9999999965
0.9999999935
0.9999999879
0.999999977
0.9999999557
0.9999999135
0.9999998282
0.9999996522
0.9999992818
1
1
1
1
1
1
1
1
1
1
1
1
1
1
1
1
1
1
1
1
1
1
1
1
0.9999999999
0.9999999999
0.9999999998
0.9999999996
0.9999999994
0.9999999989
0.999999998
0.9999999963
0.9999999932
0.9999999872
0.9999999756
0.9999999532
0.9999999086
0.9999998184
0.9999996325
0.9999992413
1
1
1
1
1
1
1
1
1
1
1
1
1
1
1
1
1
1
1
1
1
1
1
1
0.9999999999
0.9999999999
0.9999999998
0.9999999996
0.9999999993
0.9999999988
0.9999999978
0.9999999961
0.9999999927
0.9999999864
0.9999999742
0.9999999505
0.9999999034
0.9999998081
0.9999996117
0.9999991987
1
1
1
1
1
1
1
1
1
1
1
1
1
1
1
1
1
1
1
1
1
1
1
1
0.9999999999
0.9999999999
0.9999999998
0.9999999996
0.9999999993
0.9999999987
0.9999999977
0.9999999958
0.9999999923
0.9999999856
0.9999999727
0.9999999476
0.9999998979
0.9999997972
0.9999995897
0.9999991537
1
1
1
1
1
1
1
1
1
1
1
1
1
1
1
1
1
1
1
1
1
1
1
1
0.9999999999
0.9999999999
0.9999999998
0.9999999996
0.9999999992
0.9999999986
0.9999999976
0.9999999956
0.9999999918
0.9999999848
0.9999999712
0.9999999446
0.999999892
0.9999997857
0.9999995665
0.9999991062
1
1
1
1
1
1
1
1
1
1
1
1
1
1
1
1
1
1
1
1
1
1
1
0.9999999999
0.9999999999
0.9999999998
0.9999999997
0.9999999995
0.9999999992
0.9999999986
0.9999999974
0.9999999953
0.9999999914
0.9999999839
0.9999999695
0.9999999415
0.9999998859
0.9999997736
0.9999995421
0.9999990561
1
1
1
1
1
1
1
1
1
1
1
1
1
1
1
1
1
1
1
1
1
1
1
0.9999999999
0.9999999999
0.9999999998
0.9999999997
0.9999999995
0.9999999991
0.9999999985
0.9999999973
0.999999995
0.9999999908
0.9999999829
0.9999999677
0.9999999381
0.9999998794
0.9999997607
0.9999995163
0.9999990033
1
1
1
1
1
1
1
1
1
1
1
1
1
1
1
1
1
1
1
1
1
1
1
0.9999999999
0.9999999999
0.9999999998
0.9999999997
0.9999999995
0.9999999991
0.9999999984
0.9999999971
0.9999999947
0.9999999903
0.9999999819
0.9999999659
0.9999999346
0.9999998725
0.9999997472
0.999999489
0.9999989476
1
1
1
1
1
1
1
1
1
1
1
1
1
1
1
1
1
1
1
1
1
1
1
0.9999999999
0.9999999999
0.9999999998
0.9999999997
0.9999999994
0.999999999
0.9999999983
0.9999999969
0.9999999944
0.9999999897
0.9999999809
0.9999999639
0.9999999308
0.9999998653
0.9999997329
0.9999994603
0.9999988889
1
1
1
1
1
1
1
1
1
1
1
1
1
1
1
1
1
1
1
1
1
1
1
0.9999999999
0.9999999999
0.9999999998
0.9999999997
0.9999999994
0.999999999
0.9999999982
0.9999999967
0.9999999941
0.9999999891
0.9999999798
0.9999999618
0.9999999269
0.9999998577
0.9999997178
0.9999994299
0.9999988269
1
1
1
1
1
1
1
1
1
1
1
1
1
1
1
1
1
1
1
1
1
1
1
0.9999999999
0.9999999999
0.9999999998
0.9999999996
0.9999999994
0.9999999989
0.9999999981
0.9999999965
0.9999999937
0.9999999885
0.9999999786
0.9999999596
0.9999999227
0.9999998496
0.9999997018
0.9999993979
0.9999987616
1
1
1
1
1
1
1
1
1
1
1
1
1
1
1
1
1
1
1
1
1
1
1
0.9999999999
0.9999999999
0.9999999998
0.9999999996
0.9999999993
0.9999999988
0.9999999979
0.9999999963
0.9999999933
0.9999999878
0.9999999773
0.9999999573
0.9999999183
0.999999841
0.999999685
0.9999993642
0.9999986928
1
1
1
1
1
1
1
1
1
1
1
1
1
1
1
1
1
1
1
1
1
1
0.9999999999
0.9999999999
0.9999999999
0.9999999998
0.9999999996
0.9999999993
0.9999999988
0.9999999978
0.9999999961
0.9999999929
0.9999999871
0.999999976
0.9999999549
0.9999999137
0.999999832
0.9999996672
0.9999993285
0.9999986203
1
1
1
1
1
1
1
1
1
1
1
1
1
1
1
1
1
1
1
1
1
1
0.9999999999
0.9999999999
0.9999999998
0.9999999997
0.9999999996
0.9999999992
0.9999999987
0.9999999977
0.9999999959
0.9999999925
0.9999999863
0.9999999746
0.9999999523
0.9999999087
0.9999998225
0.9999996485
0.999999291
0.9999985438
1
1
1
1
1
1
1
1
1
1
1
1
1
1
1
1
1
1
1
1
1
1
0.9999999999
0.9999999999
0.9999999998
0.9999999997
0.9999999995
0.9999999992
0.9999999986
0.9999999975
0.9999999956
0.9999999921
0.9999999855
0.9999999732
0.9999999495
0.9999999035
0.9999998124
0.9999996287
0.9999992514
0.9999984631
1
1
1
1
1
1
1
1
1
1
1
1
1
1
1
1
1
1
1
1
1
1
0.9999999999
0.9999999999
0.9999999998
0.9999999997
0.9999999995
0.9999999991
0.9999999985
0.9999999974
0.9999999953
0.9999999916
0.9999999847
0.9999999716
0.9999999466
0.9999998981
0.9999998018
0.9999996078
0.9999992096
0.9999983782
1
1
1
1
1
1
1
1
1
1
1
1
1
1
1
1
1
1
1
1
1
1
0.9999999999
0.9999999999
0.9999999998
0.9999999997
0.9999999995
0.9999999991
0.9999999984
0.9999999972
0.9999999951
0.9999999911
0.9999999838
0.99999997
0.9999999436
0.9999998923
0.9999997906
0.9999995858
0.9999991655
0.9999982886
1
1
1
1
1
1
1
1
1
1
1
1
1
1
1
1
1
1
1
1
1
1
0.9999999999
0.9999999999
0.9999999998
0.9999999997
0.9999999994
0.999999999
0.9999999983
0.999999997
0.9999999948
0.9999999906
0.9999999828
0.9999999682
0.9999999404
0.9999998861
0.9999997788
0.9999995625
0.9999991191
0.9999981943
1
1
1
1
1
1
1
1
1
1
1
1
1
1
1
1
1
1
1
1
1
1
0.9999999999
0.9999999999
0.9999999998
0.9999999996
0.9999999994
0.999999999
0.9999999982
0.9999999969
0.9999999944
0.99999999
0.9999999818
0.9999999664
0.999999937
0.9999998797
0.9999997663
0.999999538
0.9999990701
0.9999980949
1
1
1
1
1
1
1
1
1
1
1
1
1
1
1
1
1
1
1
1
1
0.9999999999
0.9999999999
0.9999999999
0.9999999998
0.9999999996
0.9999999993
0.9999999989
0.9999999981
0.9999999967
0.9999999941
0.9999999894
0.9999999808
0.9999999645
0.9999999333
0.9999998728
0.9999997531
0.9999995122
0.9999990185
0.9999979901
1
1
1
1
1
1
1
1
1
1
1
1
1
1
1
1
1
1
1
1
1
0.9999999999
0.9999999999
0.9999999998
0.9999999998
0.9999999996
0.9999999993
0.9999999988
0.999999998
0.9999999965
0.9999999938
0.9999999888
0.9999999797
0.9999999624
0.9999999295
0.9999998656
0.9999997392
0.9999994849
0.999998964
0.9999978798
1
1
1
1
1
1
1
1
1
1
1
1
1
1
1
1
1
1
1
1
1
0.9999999999
0.9999999999
0.9999999998
0.9999999997
0.9999999996
0.9999999993
0.9999999987
0.9999999979
0.9999999963
0.9999999934
0.9999999882
0.9999999785
0.9999999603
0.9999999255
0.999999858
0.9999997246
0.9999994561
0.9999989066
0.9999977635
1
1
1
1
1
1
1
1
1
1
1
1
1
1
1
1
1
1
1
1
1
0.9999999999
0.9999999999
0.9999999998
0.9999999997
0.9999999995
0.9999999992
0.9999999987
0.9999999977
0.999999996
0.999999993
0.9999999875
0.9999999772
0.999999958
0.9999999213
0.99999985
0.9999997091
0.9999994257
0.9999988462
0.9999976411
1
1
1
1
1
1
1
1
1
1
1
1
1
1
1
1
1
1
1
1
1
0.9999999999
0.9999999999
0.9999999998
0.9999999997
0.9999999995
0.9999999992
0.9999999986
0.9999999976
0.9999999958
0.9999999926
0.9999999867
0.9999999759
0.9999999556
0.9999999168
0.9999998415
0.9999996927
0.9999993937
0.9999987824
0.9999975121
1
1
1
1
1
1
1
1
1
1
1
1
1
1
1
1
1
1
1
1
1
0.9999999999
0.9999999999
0.9999999998
0.9999999997
0.9999999995
0.9999999991
0.9999999985
0.9999999974
0.9999999955
0.9999999921
0.9999999859
0.9999999745
0.999999953
0.9999999121
0.9999998325
0.9999996755
0.99999936
0.9999987153
0.9999973763
1
1
1
1
1
1
1
1
1
1
1
1
1
1
1
1
1
1
1
1
0.9999999999
0.9999999999
0.9999999999
0.9999999998
0.9999999997
0.9999999994
0.9999999991
0.9999999984
0.9999999973
0.9999999953
0.9999999917
0.9999999851
0.999999973
0.9999999503
0.9999999071
0.9999998231
0.9999996573
0.9999993244
0.9999986445
0.9999972333
1
1
1
1
1
1
1
1
1
1
1
1
1
1
1
1
1
1
1
1
0.9999999999
0.9999999999
0.9999999999
0.9999999998
0.9999999996
0.9999999994
0.999999999
0.9999999983
0.9999999971
0.999999995
0.9999999912
0.9999999843
0.9999999715
0.9999999475
0.9999999018
0.9999998131
0.9999996381
0.9999992869
0.9999985699
0.9999970827
1
1
1
1
1
1
1
1
1
1
1
1
1
1
1
1
1
1
1
1
0.9999999999
0.9999999999
0.9999999999
0.9999999998
0.9999999996
0.9999999994
0.9999999989
0.9999999982
0.9999999969
0.9999999947
0.9999999907
0.9999999833
0.9999999698
0.9999999445
0.9999998962
0.9999998026
0.9999996179
0.9999992473
0.9999984913
0.9999969241
1
1
1
1
1
1
1
1
1
1
1
1
1
1
1
1
1
1
1
1
0.9999999999
0.9999999999
0.9999999998
0.9999999997
0.9999999996
0.9999999993
0.9999999989
0.9999999981
0.9999999967
0.9999999944
0.9999999901
0.9999999824
0.9999999681
0.9999999413
0.9999998903
0.9999997915
0.9999995966
0.9999992056
0.9999984085
0.9999967572
1
1
1
1
1
1
1
1
1
1
1
1
1
1
1
1
1
1
1
1
0.9999999999
0.9999999999
0.9999999998
0.9999999997
0.9999999996
0.9999999993
0.9999999988
0.999999998
0.9999999965
0.999999994
0.9999999895
0.9999999813
0.9999999663
0.999999938
0.9999998841
0.9999997798
0.999999574
0.9999991617
0.9999983213
0.9999965814
1
1
1
1
1
1
1
1
1
1
1
1
1
1
1
1
1
1
1
1
0.9999999999
0.9999999999
0.9999999998
0.9999999997
0.9999999995
0.9999999992
0.9999999987
0.9999999979
0.9999999963
0.9999999937
0.9999999889
0.9999999803
0.9999999643
0.9999999344
0.9999998776
0.9999997674
0.9999995503
0.9999991154
0.9999982294
0.9999963964
1
1
1
1
1
1
1
1
1
1
1
1
1
1
1
1
1
1
1
0.9999999999
0.9999999999
0.9999999999
0.9999999998
0.9999999997
0.9999999995
0.9999999992
0.9999999986
0.9999999977
0.9999999961
0.9999999933
0.9999999883
0.9999999791
0.9999999623
0.9999999307
0.9999998706
0.9999997543
0.9999995253
0.9999990665
0.9999981327
0.9999962017
1
1
1
1
1
1
1
1
1
1
1
1
1
1
1
1
1
1
1
0.9999999999
0.9999999999
0.9999999999
0.9999999998
0.9999999997
0.9999999995
0.9999999991
0.9999999986
0.9999999976
0.9999999959
0.9999999929
0.9999999876
0.9999999779
0.9999999601
0.9999999268
0.9999998633
0.9999997406
0.9999994989
0.9999990151
0.9999980308
0.9999959968
1
1
1
1
1
1
1
1
1
1
1
1
1
1
1
1
1
1
1
0.9999999999
0.9999999999
0.9999999999
0.9999999998
0.9999999996
0.9999999994
0.9999999991
0.9999999985
0.9999999974
0.9999999956
0.9999999925
0.9999999868
0.9999999766
0.9999999578
0.9999999226
0.9999998556
0.999999726
0.9999994711
0.9999989609
0.9999979235
0.9999957812
1
1
1
1
1
1
1
1
1
1
1
1
1
1
1
1
1
1
1
0.9999999999
0.9999999999
0.9999999998
0.9999999998
0.9999999996
0.9999999994
0.999999999
0.9999999984
0.9999999973
0.9999999954
0.999999992
0.9999999861
0.9999999753
0.9999999554
0.9999999182
0.9999998475
0.9999997107
0.9999994417
0.9999989037
0.9999978105
0.9999955543
1
1
1
1
1
1
1
1
1
1
1
1
1
1
1
1
1
1
1
0.9999999999
0.9999999999
0.9999999998
0.9999999997
0.9999999996
0.9999999994
0.999999999
0.9999999983
0.9999999971
0.9999999951
0.9999999916
0.9999999853
0.9999999738
0.9999999528
0.9999999136
0.9999998389
0.9999996946
0.9999994108
0.9999988436
0.9999976915
0.9999953156
1
1
1
1
1
1
1
1
1
1
1
1
1
1
1
1
1
1
1
0.9999999999
0.9999999999
0.9999999998
0.9999999997
0.9999999996
0.9999999993
0.9999999989
0.9999999982
0.9999999969
0.9999999948
0.9999999911
0.9999999844
0.9999999723
0.9999999502
0.9999999087
0.9999998299
0.9999996775
0.9999993782
0.9999987802
0.9999975663
0.9999950644
1
1
1
1
1
1
1
1
1
1
1
1
1
1
1
1
1
1
0.9999999999
0.9999999999
0.9999999999
0.9999999998
0.9999999997
0.9999999995
0.9999999993
0.9999999988
0.9999999981
0.9999999968
0.9999999945
0.9999999905
0.9999999835
0.9999999707
0.9999999473
0.9999999035
0.9999998203
0.9999996596
0.9999993438
0.9999987134
0.9999974344
0.9999948002
1
1
1
1
1
1
1
1
1
1
1
1
1
1
1
1
1
1
0.9999999999
0.9999999999
0.9999999999
0.9999999998
0.9999999997
0.9999999995
0.9999999992
0.9999999987
0.9999999979
0.9999999966
0.9999999942
0.99999999
0.9999999825
0.9999999691
0.9999999443
0.9999998981
0.9999998102
0.9999996406
0.9999993076
0.999998643
0.9999972956
0.9999945223
1
1
1
1
1
1
1
1
1
1
1
1
1
1
1
1
1
1
0.9999999999
0.9999999999
0.9999999999
0.9999999998
0.9999999997
0.9999999995
0.9999999992
0.9999999987
0.9999999978
0.9999999963
0.9999999938
0.9999999894
0.9999999815
0.9999999673
0.9999999411
0.9999998923
0.9999997996
0.9999996206
0.9999992694
0.9999985689
0.9999971495
0.99999423
1
1
1
1
1
1
1
1
1
1
1
1
1
1
1
1
1
1
0.9999999999
0.9999999999
0.9999999999
0.9999999998
0.9999999997
0.9999999995
0.9999999991
0.9999999986
0.9999999977
0.9999999961
0.9999999935
0.9999999888
0.9999999805
0.9999999654
0.9999999378
0.9999998862
0.9999997884
0.9999995996
0.9999992292
0.9999984909
0.9999969957
0.9999939226
1
1
1
1
1
1
1
1
1
1
1
1
1
1
1
1
1
1
0.9999999999
0.9999999999
0.9999999998
0.9999999998
0.9999999996
0.9999999994
0.9999999991
0.9999999985
0.9999999975
0.9999999959
0.9999999931
0.9999999881
0.9999999793
0.9999999634
0.9999999342
0.9999998798
0.9999997765
0.9999995774
0.9999991868
0.9999984087
0.9999968339
0.9999935993
1
1
1
1
1
1
1
1
1
1
1
1
1
1
1
1
1
1
0.9999999999
0.9999999999
0.9999999998
0.9999999997
0.9999999996
0.9999999994
0.999999999
0.9999999984
0.9999999974
0.9999999957
0.9999999927
0.9999999874
0.9999999781
0.9999999613
0.9999999305
0.999999873
0.999999764
0.9999995539
0.9999991422
0.9999983222
0.9999966636
0.9999932595
1
1
1
1
1
1
1
1
1
1
1
1
1
1
1
1
1
0.9999999999
0.9999999999
0.9999999999
0.9999999998
0.9999999997
0.9999999996
0.9999999993
0.999999999
0.9999999983
0.9999999972
0.9999999954
0.9999999922
0.9999999867
0.9999999769
0.9999999591
0.9999999266
0.9999998659
0.9999997509
0.9999995293
0.9999990951
0.9999982311
0.9999964845
0.9999929021
1
1
1
1
1
1
1
1
1
1
1
1
1
1
1
1
1
0.9999999999
0.9999999999
0.9999999999
0.9999999998
0.9999999997
0.9999999996
0.9999999993
0.9999999989
0.9999999982
0.9999999971
0.9999999951
0.9999999918
0.9999999859
0.9999999755
0.9999999568
0.9999999224
0.9999998584
0.999999737
0.9999995032
0.9999990456
0.9999981352
0.999996296
0.9999925265
1
1
1
1
1
1
1
1
1
1
1
1
1
1
1
1
1
0.9999999999
0.9999999999
0.9999999999
0.9999999998
0.9999999997
0.9999999995
0.9999999993
0.9999999988
0.9999999981
0.9999999969
0.9999999948
0.9999999913
0.9999999851
0.9999999741
0.9999999543
0.999999918
0.9999998504
0.9999997224
0.9999994758
0.9999989934
0.9999980342
0.9999960977
0.9999921316
1
1
1
1
1
1
1
1
1
1
1
1
1
1
1
1
1
0.9999999999
0.9999999999
0.9999999999
0.9999999998
0.9999999997
0.9999999995
0.9999999992
0.9999999987
0.999999998
0.9999999967
0.9999999945
0.9999999908
0.9999999842
0.9999999726
0.9999999517
0.9999999134
0.999999842
0.9999997069
0.9999994469
0.9999989384
0.9999979279
0.9999958891
0.9999917166
1
1
1
1
1
1
1
1
1
1
1
1
1
1
1
1
1
0.9999999999
0.9999999999
0.9999999998
0.9999999998
0.9999999997
0.9999999995
0.9999999992
0.9999999987
0.9999999979
0.9999999965
0.9999999942
0.9999999902
0.9999999833
0.9999999711
0.999999949
0.9999999085
0.9999998332
0.9999996907
0.9999994165
0.9999988805
0.999997816
0.9999956698
0.9999912805
1
1
1
1
1
1
1
1
1
1
1
1
1
1
1
1
0.9999999999
0.9999999999
0.9999999999
0.9999999998
0.9999999998
0.9999999996
0.9999999994
0.9999999991
0.9999999986
0.9999999977
0.9999999963
0.9999999939
0.9999999897
0.9999999824
0.9999999694
0.9999999461
0.9999999034
0.9999998239
0.9999996735
0.9999993844
0.9999988195
0.9999976983
0.999995439
0.9999908222
1
1
1
1
1
1
1
1
1
1
1
1
1
1
1
1
0.9999999999
0.9999999999
0.9999999999
0.9999999998
0.9999999997
0.9999999996
0.9999999994
0.999999999
0.9999999985
0.9999999976
0.9999999961
0.9999999935
0.9999999891
0.9999999813
0.9999999677
0.999999943
0.9999998979
0.999999814
0.9999996554
0.9999993506
0.9999987553
0.9999975744
0.9999951964
0.9999903406
1
1
1
1
1
1
1
1
1
1
1
1
1
1
1
1
0.9999999999
0.9999999999
0.9999999999
0.9999999998
0.9999999997
0.9999999996
0.9999999994
0.999999999
0.9999999984
0.9999999974
0.9999999958
0.9999999931
0.9999999884
0.9999999803
0.9999999658
0.9999999398
0.9999998922
0.9999998037
0.9999996364
0.999999315
0.9999986877
0.999997444
0.9999949413
0.9999898346
1
1
1
1
1
1
1
1
1
1
1
1
1
1
1
1
0.9999999999
0.9999999999
0.9999999999
0.9999999998
0.9999999997
0.9999999995
0.9999999993
0.9999999989
0.9999999983
0.9999999973
0.9999999956
0.9999999927
0.9999999878
0.9999999791
0.9999999639
0.9999999364
0.9999998861
0.9999997927
0.9999996163
0.9999992775
0.9999986165
0.9999973069
0.999994673
0.9999893031
1
1
1
1
1
1
1
1
1
1
1
1
1
1
1
1
0.9999999999
0.9999999999
0.9999999999
0.9999999998
0.9999999997
0.9999999995
0.9999999993
0.9999999989
0.9999999982
0.9999999971
0.9999999953
0.9999999923
0.999999987
0.9999999779
0.9999999618
0.9999999328
0.9999998797
0.9999997812
0.9999995951
0.999999238
0.9999985416
0.9999971625
0.999994391
0.9999887449
1
1
1
1
1
1
1
1
1
1
1
1
1
1
1
0.9999999999
0.9999999999
0.9999999999
0.9999999998
0.9999999998
0.9999999997
0.9999999995
0.9999999992
0.9999999988
0.9999999981
0.9999999969
0.999999995
0.9999999918
0.9999999863
0.9999999767
0.9999999596
0.999999929
0.999999873
0.999999769
0.9999995728
0.9999991964
0.9999984627
0.9999970107
0.9999940946
0.9999881585
1
1
1
1
1
1
1
1
1
1
1
1
1
1
1
0.9999999999
0.9999999999
0.9999999999
0.9999999998
0.9999999998
0.9999999996
0.9999999995
0.9999999992
0.9999999987
0.999999998
0.9999999968
0.9999999947
0.9999999913
0.9999999855
0.9999999753
0.9999999573
0.999999925
0.9999998659
0.9999997562
0.9999995493
0.9999991525
0.9999983797
0.999996851
0.999993783
0.9999875427
1
1
1
1
1
1
1
1
1
1
1
1
1
1
1
0.9999999999
0.9999999999
0.9999999999
0.9999999998
0.9999999997
0.9999999996
0.9999999994
0.9999999991
0.9999999986
0.9999999978
0.9999999966
0.9999999944
0.9999999908
0.9999999846
0.9999999739
0.9999999549
0.9999999207
0.9999998584
0.9999997427
0.9999995245
0.9999991064
0.9999982923
0.999996683
0.9999934555
0.9999868961
1
1
1
1
1
1
1
1
1
1
1
1
1
1
1
0.9999999999
0.9999999999
0.9999999999
0.9999999998
0.9999999997
0.9999999996
0.9999999994
0.9999999991
0.9999999985
0.9999999977
0.9999999964
0.9999999941
0.9999999903
0.9999999838
0.9999999724
0.9999999523
0.9999999163
0.9999998505
0.9999997284
0.9999994984
0.9999990577
0.9999982003
0.9999965064
0.9999931114
0.9999862172
1
1
1
1
1
1
1
1
1
1
1
1
1
1
1
0.9999999999
0.9999999999
0.9999999999
0.9999999998
0.9999999997
0.9999999996
0.9999999993
0.999999999
0.9999999985
0.9999999976
0.9999999961
0.9999999938
0.9999999897
0.9999999828
0.9999999708
0.9999999496
0.9999999116
0.9999998421
0.9999997134
0.9999994709
0.9999990066
0.9999981035
0.9999963206
0.9999927498
0.9999855045
1
1
1
1
1
1
1
1
1
1
1
1
1
1
0.9999999999
0.9999999999
0.9999999999
0.9999999999
0.9999999998
0.9999999997
0.9999999995
0.9999999993
0.9999999989
0.9999999984
0.9999999974
0.9999999959
0.9999999934
0.9999999891
0.9999999818
0.9999999692
0.9999999468
0.9999999066
0.9999998334
0.9999996976
0.9999994419
0.9999989527
0.9999980017
0.9999961252
0.9999923698
0.9999847564
1
1
1
1
1
1
1
1
1
1
1
1
1
1
0.9999999999
0.9999999999
0.9999999999
0.9999999998
0.9999999998
0.9999999997
0.9999999995
0.9999999993
0.9999999989
0.9999999983
0.9999999973
0.9999999957
0.999999993
0.9999999885
0.9999999808
0.9999999674
0.9999999438
0.9999999014
0.9999998241
0.9999996809
0.9999994114
0.9999988959
0.9999978945
0.9999959198
0.9999919707
0.9999839711
1
1
1
1
1
1
1
1
1
1
1
1
1
1
0.9999999999
0.9999999999
0.9999999999
0.9999999998
0.9999999998
0.9999999996
0.9999999995
0.9999999992
0.9999999988
0.9999999982
0.9999999971
0.9999999954
0.9999999926
0.9999999878
0.9999999797
0.9999999655
0.9999999406
0.9999998958
0.9999998143
0.9999996633
0.9999993793
0.9999988362
0.9999977818
0.9999957039
0.9999915513
0.999983147
1
1
1
1
1
1
1
1
1
1
1
1
1
1
0.9999999999
0.9999999999
0.9999999999
0.9999999998
0.9999999997
0.9999999996
0.9999999994
0.9999999992
0.9999999987
0.999999998
0.9999999969
0.9999999951
0.9999999921
0.9999999871
0.9999999785
0.9999999636
0.9999999372
0.99999989
0.999999804
0.9999996448
0.9999993454
0.9999987734
0.9999976632
0.9999954769
0.9999911109
0.9999822822
1
1
1
1
1
1
1
1
1
1
1
1
1
0.9999999999
0.9999999999
0.9999999999
0.9999999999
0.9999999998
0.9999999997
0.9999999996
0.9999999994
0.9999999991
0.9999999987
0.9999999979
0.9999999968
0.9999999949
0.9999999917
0.9999999864
0.9999999773
0.9999999615
0.9999999337
0.9999998839
0.9999997931
0.9999996253
0.9999993098
0.9999987072
0.9999975385
0.9999952383
0.9999906483
0.9999813747
1
1
1
1
1
1
1
1
1
1
1
1
1
0.9999999999
0.9999999999
0.9999999999
0.9999999999
0.9999999998
0.9999999997
0.9999999996
0.9999999994
0.9999999991
0.9999999986
0.9999999978
0.9999999966
0.9999999945
0.9999999912
0.9999999856
0.999999976
0.9999999593
0.99999993
0.9999998774
0.9999997817
0.9999996048
0.9999992723
0.9999986376
0.9999974073
0.9999949876
0.9999901625
0.9999804228
1
1
1
1
1
1
1
1
1
1
1
1
1
0.9999999999
0.9999999999
0.9999999999
0.9999999998
0.9999999998
0.9999999997
0.9999999995
0.9999999993
0.999999999
0.9999999985
0.9999999977
0.9999999964
0.9999999942
0.9999999907
0.9999999847
0.9999999746
0.999999957
0.999999926
0.9999998706
0.9999997696
0.9999995831
0.9999992327
0.9999985643
0.9999972694
0.999994724
0.9999896525
0.9999794241
1
1
1
1
1
1
1
1
1
1
1
1
1
0.9999999999
0.9999999999
0.9999999999
0.9999999998
0.9999999998
0.9999999997
0.9999999995
0.9999999993
0.9999999989
0.9999999984
0.9999999975
0.9999999961
0.9999999939
0.9999999901
0.9999999839
0.9999999732
0.9999999546
0.9999999219
0.9999998633
0.9999997569
0.9999995603
0.9999991911
0.9999984872
0.9999971243
0.9999944471
0.9999891169
0.9999783766
1
1
1
1
1
1
1
1
1
1
1
1
0.9999999999
0.9999999999
0.9999999999
0.9999999999
0.9999999998
0.9999999997
0.9999999996
0.9999999995
0.9999999992
0.9999999989
0.9999999983
0.9999999974
0.9999999959
0.9999999935
0.9999999896
0.9999999829
0.9999999716
0.999999952
0.9999999175
0.9999998558
0.9999997435
0.9999995363
0.9999991473
0.999998406
0.9999969717
0.9999941561
0.9999885547
0.9999772781
1
1
1
1
1
1
1
1
1
1
1
1
0.9999999999
0.9999999999
0.9999999999
0.9999999999
0.9999999998
0.9999999997
0.9999999996
0.9999999994
0.9999999992
0.9999999988
0.9999999982
0.9999999972
0.9999999957
0.9999999931
0.999999989
0.999999982
0.99999997
0.9999999493
0.9999999129
0.9999998477
0.9999997294
0.9999995109
0.9999991012
0.9999983207
0.9999968113
0.9999938504
0.9999879645
0.9999761261
1
1
1
1
1
1
1
1
1
1
1
1
0.9999999999
0.9999999999
0.9999999999
0.9999999999
0.9999999998
0.9999999997
0.9999999996
0.9999999994
0.9999999991
0.9999999987
0.9999999981
0.9999999971
0.9999999954
0.9999999927
0.9999999883
0.9999999809
0.9999999683
0.9999999464
0.999999908
0.9999998393
0.9999997145
0.9999994843
0.9999990527
0.9999982309
0.9999966427
0.9999935293
0.999987345
0.9999749182
1
1
1
1
1
1
1
1
1
1
1
0.9999999999
0.9999999999
0.9999999999
0.9999999999
0.9999999998
0.9999999998
0.9999999997
0.9999999996
0.9999999994
0.9999999991
0.9999999986
0.999999998
0.9999999969
0.9999999951
0.9999999923
0.9999999877
0.9999999798
0.9999999665
0.9999999434
0.9999999029
0.9999998304
0.9999996989
0.9999994562
0.9999990016
0.9999981365
0.9999964655
0.999993192
0.9999866949
0.9999736518
1
1
1
1
1
1
1
1
1
1
1
0.9999999999
0.9999999999
0.9999999999
0.9999999999
0.9999999998
0.9999999998
0.9999999997
0.9999999995
0.9999999993
0.999999999
0.9999999986
0.9999999978
0.9999999967
0.9999999949
0.9999999919
0.9999999869
0.9999999787
0.9999999646
0.9999999402
0.9999998975
0.999999821
0.9999996823
0.9999994267
0.9999989478
0.9999980371
0.9999962792
0.9999928377
0.9999860126
0.9999723243
1
1
1
1
1
1
1
1
1
1
1
0.9999999999
0.9999999999
0.9999999999
0.9999999999
0.9999999998
0.9999999998
0.9999999997
0.9999999995
0.9999999993
0.999999999
0.9999999985
0.9999999977
0.9999999965
0.9999999946
0.9999999914
0.9999999862
0.9999999775
0.9999999626