/*--------------------------------*- C++ -*----------------------------------*\
| =========                 |                                                 |
| \\      /  F ield         | OpenFOAM: The Open Source CFD Toolbox           |
|  \\    /   O peration     | Version:  v2006                                 |
|   \\  /    A nd           | Website:  www.openfoam.com                      |
|    \\/     M anipulation  |                                                 |
\*---------------------------------------------------------------------------*/
FoamFile
{
    version     2.0;
    format      ascii;
    class       volScalarField;
    location    "0.15";
    object      C2H3;
}
// * * * * * * * * * * * * * * * * * * * * * * * * * * * * * * * * * * * * * //

dimensions      [0 0 0 0 0 0 0];


internalField   nonuniform List<scalar> 
168000
(
4.663277895e-22
4.867132817e-22
5.07786022e-22
5.297725233e-22
5.541117925e-22
5.816816156e-22
6.109588344e-22
6.428107418e-22
6.849739377e-22
7.328031286e-22
7.854348618e-22
8.564985776e-22
9.424157515e-22
1.038071891e-21
1.176106684e-21
1.338195423e-21
1.533112525e-21
1.814578625e-21
2.129084076e-21
2.602746592e-21
3.160530096e-21
3.962629475e-21
4.970991415e-21
6.425775723e-21
8.285900442e-21
1.111044285e-20
1.459869117e-20
2.043874115e-20
2.805474267e-20
3.950796798e-20
5.706864786e-20
8.112323843e-20
7.726127367e-19
2.592466355e-18
2.460451078e-17
2.824646801e-16
8.214580238e-15
3.124636363e-13
1.419691996e-11
4.125813851e-10
4.767392083e-22
4.973393799e-22
5.187540398e-22
5.413545289e-22
5.659895929e-22
5.933258757e-22
6.233185298e-22
6.57167887e-22
6.985478733e-22
7.46707396e-22
8.026067989e-22
8.734544741e-22
9.596228444e-22
1.061831022e-21
1.197865941e-21
1.363276957e-21
1.567969135e-21
1.845212553e-21
2.179398415e-21
2.64790194e-21
3.229674514e-21
4.034758254e-21
5.077296963e-21
6.54048377e-21
8.468932788e-21
1.129025979e-20
1.496073231e-20
2.078451419e-20
2.863029419e-20
4.033178795e-20
5.802709028e-20
8.275195309e-20
8.480628148e-19
2.685449447e-18
2.601323827e-17
3.021707923e-16
9.360619116e-15
3.461065955e-13
1.581111214e-11
4.600803889e-10
4.870737367e-22
5.080734892e-22
5.298972806e-22
5.529739371e-22
5.779589298e-22
6.055074294e-22
6.36156894e-22
6.711283358e-22
7.126491638e-22
7.614875969e-22
8.193638824e-22
8.908771342e-22
9.78196299e-22
1.084459304e-21
1.220930641e-21
1.389733396e-21
1.601367362e-21
1.879481907e-21
2.227108285e-21
2.697233833e-21
3.297291289e-21
4.111210671e-21
5.182223518e-21
6.662514774e-21
8.647592931e-21
1.148952597e-20
1.53075666e-20
2.11558335e-20
2.921193451e-20
4.115412426e-20
5.903876139e-20
8.439703109e-20
9.235941388e-19
2.78080619e-18
2.74627562e-17
3.220669857e-16
1.050888587e-14
3.801793916e-13
1.744182442e-11
5.079278349e-10
4.974528872e-22
5.189138515e-22
5.411830339e-22
5.647134866e-22
5.901073165e-22
6.180509545e-22
6.493177486e-22
6.851083538e-22
7.271443397e-22
7.768095581e-22
8.361512321e-22
9.087350036e-22
9.975713131e-22
1.106812001e-21
1.24489953e-21
1.417145415e-21
1.634410508e-21
1.915903865e-21
2.273884837e-21
2.749260923e-21
3.364695808e-21
4.19077818e-21
5.287268076e-21
6.789954641e-21
8.825188723e-21
1.170286084e-20
1.564613326e-20
2.154747134e-20
2.980090397e-20
4.198017447e-20
6.009633597e-20
8.606066637e-20
9.994540427e-19
2.878472697e-18
2.895004271e-17
3.421589414e-16
1.166131939e-14
4.1465489e-13
1.944077666e-11
5.561385955e-10
5.079325212e-22
5.298783515e-22
5.526165166e-22
5.766124845e-22
6.024616303e-22
6.308835294e-22
6.627547989e-22
6.992682968e-22
7.41980782e-22
7.925429109e-22
8.531578881e-22
9.270066002e-22
1.017516162e-21
1.129285935e-21
1.269580982e-21
1.445319892e-21
1.667631252e-21
1.953756325e-21
2.320599471e-21
2.803214913e-21
3.432606117e-21
4.272811547e-21
5.393305456e-21
6.921719188e-21
9.003723865e-21
1.192684546e-20
1.598114627e-20
2.195583921e-20
3.039822334e-20
4.281377566e-20
6.119430011e-20
8.774477921e-20
1.075846437e-18
2.978392797e-18
3.047257409e-17
4.195855339e-16
1.281945184e-14
5.386380388e-13
2.374004662e-11
6.125498041e-10
5.185411982e-22
5.409858706e-22
5.642114986e-22
5.886924857e-22
6.150319094e-22
6.439769329e-22
6.764568651e-22
7.1367195e-22
7.571388642e-22
8.086388824e-22
8.704654875e-22
9.456809064e-22
1.037940144e-21
1.152068329e-21
1.294884509e-21
1.474170159e-21
1.701288934e-21
1.992693564e-21
2.367712756e-21
2.858702857e-21
3.501420369e-21
4.356970688e-21
5.500856071e-21
7.057206289e-21
9.184410541e-21
1.215932522e-20
1.631582414e-20
2.237848942e-20
3.100475041e-20
4.36577652e-20
6.232852357e-20
8.945107635e-20
1.152939143e-18
3.080516673e-18
3.202836485e-17
5.696396513e-16
1.398460514e-14
6.778826372e-13
2.808127101e-11
7.016332952e-10
5.292972083e-22
5.522526644e-22
5.75981963e-22
6.009676865e-22
6.278245502e-22
6.573224353e-22
6.904240228e-22
7.28346622e-22
7.726129137e-22
8.250812645e-22
8.881109564e-22
9.647544922e-22
1.058811568e-21
1.175250226e-21
1.32076908e-21
1.503659799e-21
1.735512708e-21
2.032555697e-21
2.415473932e-21
2.915529665e-21
3.571365724e-21
4.443086384e-21
5.610238375e-21
7.196092501e-21
9.367984202e-21
1.239895957e-20
1.665238028e-20
2.281377005e-20
3.162121808e-20
4.451425017e-20
6.349593511e-20
9.118109512e-20
1.230869531e-18
3.184797815e-18
3.361596077e-17
7.212851418e-16
1.515779279e-14
8.185887446e-13
3.246409508e-11
7.914227635e-10
5.402143655e-22
5.636923359e-22
5.879403302e-22
6.134490909e-22
6.40845767e-22
6.709198899e-22
7.046600945e-22
7.433059504e-22
7.884034105e-22
8.418669064e-22
9.061128462e-22
9.842287316e-22
1.080123036e-21
1.198878386e-21
1.347218236e-21
1.533776327e-21
1.77037019e-21
2.07327437e-21
2.464023344e-21
2.973604779e-21
3.642578153e-21
4.531083825e-21
5.721655582e-21
7.338214797e-21
9.554895876e-21
1.264493135e-20
1.699235273e-20
2.326058555e-20
3.224826113e-20
4.538480801e-20
6.469427399e-20
9.293623829e-20
1.309748752e-18
4.172602342e-18
3.523422964e-17
8.745624125e-16
1.686655023e-14
9.607393608e-13
3.688819847e-11
8.81923602e-10
5.513040093e-22
5.753164196e-22
6.000974657e-22
6.261461935e-22
6.541022037e-22
6.847729976e-22
7.191703142e-22
7.585585962e-22
8.04513708e-22
8.589980187e-22
9.244823436e-22
1.004107835e-21
1.10187695e-21
1.222979151e-21
1.374227969e-21
1.564518913e-21
1.805900212e-21
2.114826201e-21
2.513445147e-21
3.032893031e-21
3.715145188e-21
4.620940352e-21
5.835244998e-21
7.483502241e-21
9.745428957e-21
1.289675965e-20
1.733682564e-20
2.371823011e-20
3.288643648e-20
4.627063389e-20
6.592189763e-20
9.471778199e-20
1.389676276e-18
5.361959773e-18
3.688214932e-17
1.029509188e-15
2.322779394e-14
1.104325628e-12
4.135325529e-11
9.731394798e-10
5.625758624e-22
5.871349327e-22
6.12463028e-22
6.390676748e-22
6.676008571e-22
6.988872303e-22
7.339605829e-22
7.741115533e-22
8.209486255e-22
8.764791462e-22
9.432278368e-22
1.024397644e-21
1.12407958e-21
1.247569485e-21
1.40180076e-21
1.595892624e-21
1.842128372e-21
2.157209855e-21
2.563794459e-21
3.093388721e-21
3.789128776e-21
4.712662099e-21
5.951106171e-21
7.631936769e-21
9.939769714e-21
1.315417931e-20
1.768657832e-20
2.418627138e-20
3.353623904e-20
4.717264918e-20
6.71776308e-20
9.652688552e-20
1.470738306e-18
6.573939347e-18
4.942215665e-17
1.186187887e-15
2.964383971e-14
1.249328293e-12
4.585895929e-11
1.06507271e-09
5.740385124e-22
5.99156796e-22
6.250457944e-22
6.522217081e-22
6.813489145e-22
7.132689055e-22
7.490372067e-22
7.899713915e-22
8.37713826e-22
8.943159723e-22
9.62356785e-22
1.04510495e-21
1.146738707e-21
1.272662113e-21
1.429942624e-21
1.627905707e-21
1.87907437e-21
2.200434803e-21
2.615111408e-21
3.155101937e-21
3.864577486e-21
4.806271109e-21
6.069316998e-21
7.783530854e-21
1.013804955e-20
1.341706364e-20
1.804218553e-20
2.466446927e-20
3.419811437e-20
4.809158273e-20
6.84606428e-20
1.383618852e-19
1.553009358e-18
7.808387745e-18
6.525782907e-17
1.344645075e-15
3.61172075e-14
1.39573069e-12
5.04049481e-11
1.16020323e-09
5.8569973e-22
6.113901394e-22
6.378539069e-22
6.656161148e-22
6.953536364e-22
7.279247654e-22
7.644067839e-22
8.061447058e-22
8.548155287e-22
9.12514837e-22
9.818764697e-22
1.066237134e-21
1.169862735e-21
1.298267929e-21
1.458661618e-21
1.660568278e-21
1.916755437e-21
2.244515839e-21
2.66742841e-21
3.21805131e-21
3.941532996e-21
4.901798248e-21
6.18994301e-21
7.938314882e-21
1.034037005e-20
1.368537477e-20
1.840408512e-20
2.515271904e-20
3.487246885e-20
4.902802688e-20
6.977043967e-20
1.981040591e-19
1.63655186e-18
9.065237022e-18
8.135374224e-17
1.504920065e-15
4.265000148e-14
1.543516242e-12
5.896601539e-11
1.322216317e-09
5.97566694e-22
6.23842521e-22
6.50895048e-22
6.792584583e-22
7.096222953e-22
7.428617818e-22
7.800761424e-22
8.226382653e-22
8.722603641e-22
9.310825329e-22
1.001794287e-21
1.087801993e-21
1.19346039e-21
1.32439714e-21
1.487967088e-21
1.693891668e-21
1.955187925e-21
2.289470433e-21
2.72077396e-21
3.28226019e-21
4.020033541e-21
4.999279322e-21
6.313042764e-21
8.096330102e-21
1.05468177e-20
1.39591319e-20
1.877262347e-20
2.565101145e-20
3.555967814e-20
4.998248269e-20
7.110678185e-20
2.58831389e-19
1.721419376e-18
1.034445582e-17
9.770704204e-17
1.667048852e-15
4.924382991e-14
1.692677917e-12
6.964831446e-11
1.485487396e-09
6.096461531e-22
6.365210863e-22
6.641765681e-22
6.931561114e-22
7.241621517e-22
7.580870649e-22
7.960523003e-22
8.3945905e-22
8.900552969e-22
9.500262119e-22
1.022117855e-21
1.109807649e-21
1.21754064e-21
1.351059809e-21
1.517869273e-21
1.727888093e-21
1.994388031e-21
2.335317457e-21
2.775174622e-21
3.347754604e-21
4.100115742e-21
5.098752982e-21
6.438671029e-21
8.257624708e-21
1.075747229e-20
1.423839109e-20
1.914808617e-20
2.615940489e-20
3.626009433e-20
5.095539083e-20
7.246959831e-20
3.205746233e-19
1.807659255e-18
1.164604565e-17
1.143157485e-16
1.831064641e-15
5.589982987e-14
2.11422731e-12
8.042473232e-11
1.650008602e-09
6.219445448e-22
6.494326834e-22
6.777055793e-22
7.07316308e-22
7.389804521e-22
7.736078233e-22
8.123424399e-22
8.566142517e-22
9.082075788e-22
9.69353337e-22
1.042855052e-21
1.132262523e-21
1.242112698e-21
1.378266122e-21
1.548379095e-21
1.762570462e-21
2.034372117e-21
2.382076599e-21
2.830656077e-21
3.414562185e-21
4.181815573e-21
5.200259604e-21
6.56688068e-21
8.422251696e-21
1.097241169e-20
1.452323238e-20
1.953071872e-20
2.667800574e-20
3.697405171e-20
5.194715279e-20
7.385895188e-20
3.833632184e-19
1.895313797e-18
1.297003639e-17
1.311785145e-16
1.99699596e-15
6.26196313e-14
2.618607752e-12
9.129475016e-11
1.815772083e-09
6.344680827e-22
6.625839495e-22
6.914890263e-22
7.217461876e-22
7.540844382e-22
7.894313475e-22
8.289538915e-22
8.741112629e-22
9.267247188e-22
9.890716537e-22
1.064014026e-21
1.155175316e-21
1.267186035e-21
1.40602651e-21
1.579508043e-21
1.797952277e-21
2.075156855e-21
2.429768085e-21
2.887243688e-21
3.482711606e-21
4.265168881e-21
5.303840722e-21
6.697723874e-21
8.590267692e-21
1.119171447e-20
1.481375164e-20
1.99207404e-20
2.720695477e-20
3.770187154e-20
5.295814639e-20
7.527501051e-20
4.472254542e-19
1.984421206e-18
1.431648154e-17
1.48294429e-16
2.164867227e-15
6.940480859e-14
3.127668332e-12
1.022576643e-10
1.982767327e-09
6.472228233e-22
6.759813759e-22
7.05533742e-22
7.364528317e-22
7.694813616e-22
8.055650073e-22
8.458941247e-22
8.91957667e-22
9.45614464e-22
1.009189173e-21
1.085603195e-21
1.178555014e-21
1.292770407e-21
1.434351717e-21
1.611268109e-21
1.834047567e-21
2.116759282e-21
2.478412573e-21
2.944962803e-21
3.552232276e-21
4.350211675e-21
5.409538755e-21
6.831252781e-21
8.761732316e-21
1.14154612e-20
1.511005545e-20
2.031835369e-20
2.774641755e-20
3.844386601e-20
5.39887367e-20
7.671802462e-20
5.121885907e-19
2.075016377e-18
1.568545422e-17
1.656628234e-16
2.334697576e-15
7.6256677e-14
3.641423354e-12
1.133127362e-10
2.169115814e-09
6.602147161e-22
6.896313579e-22
7.198464903e-22
7.514432952e-22
7.851785001e-22
8.22016255e-22
8.631707447e-22
9.10161231e-22
9.648847867e-22
1.029714161e-21
1.107631247e-21
1.202410887e-21
1.318875868e-21
1.463252826e-21
1.643671743e-21
1.870870843e-21
2.159196828e-21
2.528031098e-21
3.003838934e-21
3.6231542e-21
4.436980289e-21
5.517396898e-21
6.967520054e-21
8.936707833e-21
1.164373509e-20
1.541225788e-20
2.07237506e-20
2.829657785e-20
3.920034146e-20
5.503928363e-20
7.818830972e-20
5.782790039e-19
2.16713154e-18
1.707704495e-17
1.832830538e-16
2.506498224e-15
8.317630883e-14
4.159886005e-12
1.244592017e-10
2.454934251e-09
6.734496436e-22
7.035402352e-22
7.344340018e-22
7.667246334e-22
8.011831743e-22
8.387926324e-22
8.807914926e-22
9.287299007e-22
9.84543877e-22
1.050655131e-21
1.130107137e-21
1.22675249e-21
1.345512782e-21
1.492741273e-21
1.676731834e-21
1.908437071e-21
2.202487322e-21
2.578645072e-21
3.063897853e-21
3.695507905e-21
4.525511483e-21
5.627459098e-21
7.106579148e-21
9.115258956e-21
1.187662228e-20
1.572047851e-20
2.113711699e-20
2.885763306e-20
3.997160099e-20
5.611014716e-20
7.968623281e-20
6.455223049e-19
2.260796811e-18
1.849136371e-17
2.011542756e-16
2.743931942e-15
9.589467909e-14
4.683064796e-12
1.436899471e-10
2.742832442e-09
6.869334521e-22
7.177143225e-22
7.493030026e-22
7.823039254e-22
8.175027642e-22
8.5590178e-22
8.987642484e-22
9.476718004e-22
1.004600139e-21
1.072020838e-21
1.153040089e-21
1.251589673e-21
1.372691833e-21
1.522828856e-21
1.710461685e-21
1.946761657e-21
2.246648994e-21
2.630276281e-21
3.125165662e-21
3.769324418e-21
4.615842523e-21
5.739770077e-21
7.248484531e-21
9.297452728e-21
1.211421185e-20
1.603484123e-20
2.155863546e-20
2.942979106e-20
4.075794661e-20
5.720169088e-20
8.121220178e-20
7.139434446e-19
2.356040671e-18
1.992854564e-17
2.19275433e-16
3.773306628e-15
1.281683904e-13
5.210996226e-12
1.673410018e-10
3.032794119e-09
7.006719771e-22
7.321599359e-22
7.644602381e-22
7.981882945e-22
8.341447236e-22
8.733514461e-22
9.170970356e-22
9.669952328e-22
1.025062188e-21
1.093820283e-21
1.176439595e-21
1.276932579e-21
1.400424025e-21
1.553527732e-21
1.74487501e-21
1.985860432e-21
2.291700484e-21
2.682946899e-21
3.187668838e-21
3.84463526e-21
4.708011234e-21
5.854375375e-21
7.393291843e-21
9.483358454e-21
1.235659581e-20
1.635547346e-20
2.198848738e-20
3.001326811e-20
4.155968093e-20
5.831428419e-20
8.276665704e-20
7.83566797e-19
2.452890221e-18
2.138872953e-17
2.376485208e-16
4.814584539e-15
1.607672771e-13
5.74368649e-12
1.911855237e-10
3.324794433e-09
7.146710644e-22
7.468834141e-22
7.799124934e-22
8.143849254e-22
8.511165944e-22
8.911494969e-22
9.357980276e-22
9.867086829e-22
1.045938853e-21
1.116062705e-21
1.200315417e-21
1.302791644e-21
1.428720693e-21
1.584850424e-21
1.779985922e-21
2.025749644e-21
2.337660839e-21
2.7366795e-21
3.251434261e-21
3.921472466e-21
4.802056051e-21
5.971321399e-21
7.541057996e-21
9.673047642e-21
1.260386903e-20
1.668250578e-20
2.242685422e-20
3.060828744e-20
4.23771085e-20
5.944830371e-20
8.435006492e-20
8.544162227e-19
2.551371445e-18
2.287207506e-17
2.562755643e-16
5.867926316e-15
1.936916489e-13
6.702800934e-12
2.152237809e-10
3.618823857e-09
7.289365868e-22
7.618911364e-22
7.956666108e-22
8.309010804e-22
8.684260197e-22
9.093039265e-22
9.548755541e-22
1.006820821e-21
1.06723918e-21
1.13875759e-21
1.224677587e-21
1.329177609e-21
1.457593497e-21
1.616809814e-21
1.815808928e-21
2.066445953e-21
2.384549522e-21
2.791497073e-21
3.31648925e-21
3.9998686e-21
4.898016068e-21
6.090655479e-21
7.691841265e-21
9.866593975e-21
1.285612912e-20
1.701607168e-20
2.287391858e-20
3.121507829e-20
4.321053683e-20
6.060413388e-20
8.59629122e-20
9.265151042e-19
2.651509384e-18
2.437875408e-17
2.751585903e-16
6.933487493e-15
2.269431929e-13
8.302905038e-12
2.394553843e-10
4.016527189e-09
7.434744591e-22
7.771895378e-22
8.117295051e-22
8.47744113e-22
8.86080756e-22
9.278228666e-22
9.743381085e-22
1.02734051e-21
1.08897243e-21
1.161914668e-21
1.249536412e-21
1.356101512e-21
1.48705443e-21
1.64941915e-21
1.852358929e-21
2.107966434e-21
2.432386413e-21
2.847423034e-21
3.382861586e-21
4.079856783e-21
4.995931077e-21
6.212425919e-21
7.845701344e-21
1.006407328e-20
1.311347642e-20
1.735630744e-20
2.332986481e-20
3.183387535e-20
4.406027717e-20
6.178216708e-20
8.760570143e-20
9.998863397e-19
2.753328158e-18
2.590894315e-17
2.94299569e-16
8.011408235e-15
2.60525961e-13
9.917301449e-12
2.638791223e-10
4.511731849e-09
7.582906504e-22
7.927851227e-22
8.281081762e-22
8.649214808e-22
9.04088684e-22
9.467145958e-22
9.941943557e-22
1.048276807e-21
1.111148091e-21
1.18554392e-21
1.274902473e-21
1.383574695e-21
1.517115818e-21
1.682692039e-21
1.889651215e-21
2.150328571e-21
2.48119182e-21
2.904481245e-21
3.450579536e-21
4.16147072e-21
5.095841614e-21
6.336682046e-21
8.002699396e-21
1.02655635e-20
1.337601389e-20
1.770335209e-20
2.379487954e-20
3.246491836e-20
4.492664493e-20
6.298280317e-20
8.927894659e-20
1.074552276e-18
2.85685086e-18
2.746281384e-17
3.137003112e-16
9.101821672e-15
2.944433269e-13
1.154596219e-11
2.891315e-10
5.010303837e-09
7.733911954e-22
8.086844762e-22
8.448097218e-22
8.824407569e-22
9.224578197e-22
9.659875491e-22
1.014453139e-21
1.069638975e-21
1.133775875e-21
1.209655578e-21
1.300786632e-21
1.41160881e-21
1.547790323e-21
1.716642456e-21
1.92770147e-21
2.193550264e-21
2.530986482e-21
2.962696025e-21
3.519671876e-21
4.244744729e-21
5.197788998e-21
6.463474254e-21
8.162898095e-21
1.047114472e-20
1.364384708e-20
1.805734742e-20
2.426915204e-20
3.310845185e-20
4.580996002e-20
6.420644843e-20
9.098316871e-20
1.150534534e-18
2.962099318e-18
2.904051828e-17
3.33362306e-16
1.020485367e-14
3.28698086e-13
1.318884819e-11
3.369481164e-10
5.512238777e-09
7.887822032e-22
8.248942745e-22
8.618413477e-22
9.003096402e-22
9.41196324e-22
9.856503266e-22
1.03512349e-21
1.091436484e-21
1.15686573e-21
1.234260135e-21
1.327200036e-21
1.440215816e-21
1.579090943e-21
1.75128474e-21
1.966525769e-21
2.23764983e-21
2.581791579e-21
3.022092168e-21
3.590167917e-21
4.329713767e-21
5.301815366e-21
6.59285405e-21
8.326361661e-21
1.068089908e-20
1.391708414e-20
1.841843801e-20
2.475287451e-20
3.376472506e-20
4.67105468e-20
6.545351355e-20
9.271889115e-20
1.227853655e-18
3.069093742e-18
3.064216981e-17
3.53286166e-16
1.132062467e-14
3.632919868e-13
1.484608438e-11
3.851373762e-10
6.017532341e-09
8.04469867e-22
8.414212949e-22
8.792103777e-22
9.185359656e-22
9.603125119e-22
1.005711702e-21
1.056214632e-21
1.11367902e-21
1.180427841e-21
1.259368344e-21
1.354154117e-21
1.469407988e-21
1.611031018e-21
1.7866336e-21
2.006140584e-21
2.28264601e-21
2.633628745e-21
3.082694958e-21
3.662097523e-21
4.416413464e-21
5.407963714e-21
6.724874094e-21
8.493155886e-21
1.089491088e-20
1.419583575e-20
1.878677127e-20
2.524624228e-20
3.443399177e-20
4.762873405e-20
6.672440984e-20
9.448663483e-20
1.306528485e-18
3.177851226e-18
3.226781848e-17
5.002146278e-16
1.244925759e-14
3.982255756e-13
1.651778483e-11
4.336987059e-10
6.556495095e-09
8.20460471e-22
8.582724233e-22
8.969242624e-22
9.371277127e-22
9.798148622e-22
1.026180632e-21
1.077735993e-21
1.136376495e-21
1.20447264e-21
1.284991228e-21
1.3816606e-21
1.499197917e-21
1.643624233e-21
1.822704116e-21
2.04656279e-21
2.328557971e-21
2.686520072e-21
3.144530184e-21
3.73549114e-21
4.504880151e-21
5.516277932e-21
6.859588231e-21
8.663348169e-21
1.111326647e-20
1.448021519e-20
1.916249752e-20
2.574945401e-20
3.511651041e-20
4.856485522e-20
6.801954262e-20
9.628690695e-20
1.386575085e-18
4.140697977e-18
3.391781942e-17
6.499131152e-16
1.35907105e-14
4.753481939e-13
1.820405383e-11
4.826322597e-10
7.404819777e-09
8.367603976e-22
8.75454663e-22
9.149905878e-22
9.56093015e-22
9.997120252e-22
1.047066264e-21
1.099697209e-21
1.159539049e-21
1.229010808e-21
1.311140083e-21
1.409731509e-21
1.529598516e-21
1.67688462e-21
1.859511744e-21
2.087809662e-21
2.37540532e-21
2.740488126e-21
3.207624159e-21
3.810379813e-21
4.595150885e-21
5.626802834e-21
6.997051531e-21
8.837007535e-21
1.133605437e-20
1.477033829e-20
1.954577005e-20
2.626271186e-20
3.581254419e-20
4.951925021e-20
6.933929774e-20
1.300882246e-19
1.46801712e-18
5.372228082e-18
3.559239686e-17
8.015830688e-16
1.474498506e-14
6.160977004e-13
2.15500443e-11
5.319401864e-10
8.258651983e-09
8.533761344e-22
8.929751416e-22
9.334170835e-22
9.754401675e-22
1.020012832e-21
1.068377943e-21
1.122108137e-21
1.183177058e-21
1.254053287e-21
1.337826484e-21
1.438379168e-21
1.560623029e-21
1.710826567e-21
1.897072323e-21
2.129898889e-21
2.423208104e-21
2.795555956e-21
3.272003736e-21
3.886795212e-21
4.687263482e-21
5.739584198e-21
7.13732032e-21
9.014204669e-21
1.15633652e-20
1.506632348e-20
1.993674516e-20
2.678622168e-20
3.652236125e-20
5.049226454e-20
7.06841045e-20
1.897985454e-19
1.550878457e-18
6.623738297e-18
3.764674552e-17
9.552355883e-16
1.59121483e-14
7.582253146e-13
2.598441144e-11
5.816217774e-10
9.117994138e-09
8.703142798e-22
9.108411181e-22
9.522116296e-22
9.951776351e-22
1.0407263e-21
1.090125222e-21
1.144978856e-21
1.207301146e-21
1.27961128e-21
1.365062293e-21
1.467616212e-21
1.592285027e-21
1.745464817e-21
1.935402078e-21
2.172848577e-21
2.471986824e-21
2.851747108e-21
3.337696322e-21
3.964769656e-21
4.781256545e-21
5.854668794e-21
7.280452216e-21
9.195011935e-21
1.179529172e-20
1.536829184e-20
2.033558228e-20
2.732019311e-20
3.724623481e-20
5.148425063e-20
7.205443591e-20
2.506035029e-19
1.635181364e-18
7.895349271e-18
5.365886188e-17
1.110880517e-15
2.088336339e-14
9.017534173e-13
3.045679455e-11
6.615840763e-10
9.982879404e-09
8.875815488e-22
9.290599893e-22
9.713822644e-22
1.01531406e-21
1.061861646e-21
1.112317868e-21
1.168319679e-21
1.231922187e-21
1.305696265e-21
1.392859664e-21
1.49745559e-21
1.624598425e-21
1.780814482e-21
1.974517625e-21
2.216677258e-21
2.521762443e-21
2.909085635e-21
3.4047299e-21
4.044336131e-21
4.877169486e-21
5.972104413e-21
7.426506155e-21
9.379503412e-21
1.20319289e-20
1.567636706e-20
2.074244404e-20
2.786483976e-20
3.798444345e-20
5.249556974e-20
7.345076977e-20
3.125215912e-19
1.720947657e-18
9.187373345e-18
6.990639325e-17
1.268531324e-15
2.725415404e-14
1.046691341e-12
3.496726248e-11
7.533283533e-10
1.085329754e-08
9.051847788e-22
9.476392961e-22
9.909371912e-22
1.03585827e-21
1.083428289e-21
1.134965871e-21
1.192141162e-21
1.257051316e-21
1.332319999e-21
1.421231052e-21
1.527910572e-21
1.657577481e-21
1.816891041e-21
2.014435983e-21
2.261403893e-21
2.572556397e-21
2.967596115e-21
3.473133046e-21
4.125528316e-21
4.975042563e-21
6.091939906e-21
7.575542428e-21
9.567754916e-21
1.227337387e-20
1.599067559e-20
2.115749635e-20
2.842037935e-20
3.873727132e-20
5.352659124e-20
7.487359166e-20
3.755717744e-19
1.808199762e-18
1.050010924e-17
8.639152396e-17
1.428207831e-15
3.369613214e-14
1.193042588e-12
3.951598422e-11
8.45753721e-10
1.222952638e-08
9.231309343e-22
9.665867296e-22
1.010884785e-21
1.056819283e-21
1.105435859e-21
1.15807945e-21
1.216454107e-21
1.282699935e-21
1.359494523e-21
1.450189217e-21
1.558994758e-21
1.691236804e-21
1.853710356e-21
2.055174577e-21
2.307047891e-21
2.624390604e-21
3.027303663e-21
3.542934944e-21
4.208380608e-21
5.074916898e-21
6.214225205e-21
7.72762271e-21
9.759844031e-21
1.2519726e-20
1.631134657e-20
2.158090845e-20
2.898703387e-20
3.95050083e-20
5.457769222e-20
7.632339232e-20
4.397732845e-19
1.896960426e-18
1.183384807e-17
1.031166075e-16
1.589928413e-15
4.020971273e-14
1.34080881e-12
4.41030814e-11
9.388616774e-10
1.370350206e-08
9.414271122e-22
9.859101374e-22
1.0312336e-21
1.078206319e-21
1.127894206e-21
1.181669065e-21
1.241269576e-21
1.30887972e-21
1.387232177e-21
1.479747235e-21
1.590722083e-21
1.725591366e-21
1.891288671e-21
2.09675125e-21
2.353629107e-21
2.677287479e-21
3.088233945e-21
3.614165408e-21
4.292928139e-21
5.176834509e-21
6.339011361e-21
7.882810088e-21
9.955850143e-21
1.277108694e-20
1.663851199e-20
2.201285308e-20
2.956502964e-20
4.028795004e-20
5.564925726e-20
7.780066886e-20
5.051456324e-19
1.987252645e-18
1.318887594e-17
1.200839839e-16
1.753710074e-15
4.679521645e-14
1.489988624e-12
4.872862645e-11
1.032653685e-09
1.518668547e-08
9.600805467e-22
1.005617529e-21
1.051992374e-21
1.100028804e-21
1.150813407e-21
1.20574542e-21
1.266598893e-21
1.335602633e-21
1.415545598e-21
1.509918505e-21
1.623106826e-21
1.760656504e-21
1.929642626e-21
2.139184268e-21
2.40116786e-21
2.731269942e-21
3.150413191e-21
3.6868549e-21
4.379206805e-21
5.280838337e-21
6.466350569e-21
8.041169101e-21
1.015585447e-20
1.302756062e-20
1.697230665e-20
2.245350646e-20
3.015459747e-20
4.108639802e-20
5.674167828e-20
7.930592525e-20
5.717085943e-19
2.079099612e-18
1.456547371e-17
1.372959363e-16
1.91956851e-15
5.345283295e-14
1.640575548e-12
5.52756473e-11
1.127131343e-09
1.667909508e-08
9.790986137e-22
1.02571708e-21
1.073170037e-21
1.122296376e-21
1.174203774e-21
1.230319474e-21
1.292453656e-21
1.362880927e-21
1.444447739e-21
1.540716754e-21
1.656163619e-21
1.796447931e-21
1.968789263e-21
2.182492332e-21
2.449684942e-21
2.786361434e-21
3.213868219e-21
3.761034548e-21
4.467253286e-21
5.386972272e-21
6.5962962e-21
8.202765762e-21
1.035994009e-20
1.328925332e-20
1.731286826e-20
2.290304846e-20
3.075597275e-20
4.190065964e-20
5.785535446e-20
8.083967249e-20
6.39482196e-19
2.172524662e-18
1.59639164e-17
1.547546344e-16
2.087518239e-15
6.018256359e-14
1.946074621e-12
6.613448773e-11
1.272246108e-09
1.818076189e-08
9.984888361e-22
1.046217142e-21
1.094775719e-21
1.145018895e-21
1.19807586e-21
1.255402447e-21
1.318845746e-21
1.390727155e-21
1.47395187e-21
1.572156052e-21
1.689907453e-21
1.832981746e-21
2.008746038e-21
2.226694587e-21
2.499201628e-21
2.842585931e-21
3.278626439e-21
3.836736168e-21
4.557105067e-21
5.495281179e-21
6.728902832e-21
8.3676676e-21
1.056819199e-20
1.355627369e-20
1.766033753e-20
2.336166264e-20
3.136939555e-20
4.273104824e-20
5.899069217e-20
8.240242878e-20
7.084866961e-19
2.267551219e-18
1.738447267e-17
1.724620436e-16
2.257571103e-15
6.698468593e-14
2.45535499e-12
7.708441099e-11
1.438568326e-09
2.050285275e-08
1.018258888e-21
1.067126244e-21
1.116818751e-21
1.16820645e-21
1.222440469e-21
1.281005833e-21
1.345787333e-21
1.419154178e-21
1.504071588e-21
1.604250813e-21
1.724353692e-21
1.870274441e-21
2.049530826e-21
2.271810635e-21
2.549739689e-21
2.899967955e-21
3.344715881e-21
3.91399228e-21
4.648800469e-21
5.605810926e-21
6.864226279e-21
8.535943686e-21
1.078069711e-20
1.382873282e-20
1.801485816e-20
2.382953635e-20
3.199511073e-20
4.357788312e-20
6.01481048e-20
8.399471941e-20
7.787425691e-19
2.364202764e-18
1.882740489e-17
1.904197825e-16
2.429734326e-15
7.386001781e-14
2.969449638e-12
8.812536381e-11
1.60608891e-09
2.307409458e-08
1.038416598e-21
1.0884531e-21
1.139308677e-21
1.191869365e-21
1.247308662e-21
1.3071414e-21
1.373290885e-21
1.448175177e-21
1.534820829e-21
1.637015812e-21
1.759518075e-21
1.908342912e-21
2.091161938e-21
2.317860542e-21
2.601321403e-21
2.958532588e-21
3.412165206e-21
3.992836131e-21
4.742378664e-21
5.718608415e-21
7.002323623e-21
8.707664672e-21
1.099754433e-20
1.410674428e-20
1.837657696e-20
2.430686079e-20
3.263336795e-20
4.444148958e-20
6.132801266e-20
8.561707656e-20
8.502704865e-19
2.46250283e-18
2.029297189e-17
2.08628941e-16
2.604007219e-15
8.08092839e-14
3.488391103e-12
9.925731699e-11
1.774805914e-09
2.566090198e-08
1.058969958e-21
1.110206612e-21
1.162255259e-21
1.216018206e-21
1.272691769e-21
1.333821208e-21
1.401369179e-21
1.47780366e-21
1.566213877e-21
1.670466191e-21
1.795416734e-21
1.947204469e-21
2.133658125e-21
2.364864853e-21
2.653969572e-21
3.018305492e-21
3.481003722e-21
4.073301717e-21
4.837879706e-21
5.833721602e-21
7.143253246e-21
8.882902827e-21
1.121882459e-20
1.439042416e-20
1.874564388e-20
2.479383112e-20
3.328442183e-20
4.532219886e-20
6.253084265e-20
8.72700389e-20
9.230912919e-19
2.56247502e-18
2.178143759e-17
2.270898554e-16
3.330186392e-15
8.783307625e-14
4.012212795e-12
1.104801703e-10
1.944717518e-09
2.826326463e-08
1.079927122e-21
1.132395882e-21
1.185668483e-21
1.240663792e-21
1.298601391e-21
1.361057612e-21
1.430035308e-21
1.508053469e-21
1.59826537e-21
1.704617465e-21
1.832066199e-21
1.986876848e-21
2.177038593e-21
2.412844604e-21
2.707707531e-21
3.079312919e-21
3.551261406e-21
4.155423801e-21
4.935344552e-21
5.951199534e-21
7.287074859e-21
9.061732067e-21
1.144463087e-20
1.467989111e-20
1.912221211e-20
2.52906465e-20
3.394853191e-20
4.622034801e-20
6.375702775e-20
8.895415068e-20
9.972259588e-19
2.664142929e-18
2.329306167e-17
2.458047629e-16
4.375675626e-15
1.176898341e-13
4.540953109e-12
1.217936717e-10
2.115821206e-09
3.088117742e-08
1.101296415e-21
1.15503021e-21
1.209558565e-21
1.265817196e-21
1.325049412e-21
1.38886327e-21
1.459302691e-21
1.538938797e-21
1.630990313e-21
1.739485542e-21
1.86948341e-21
2.027378219e-21
2.221323015e-21
2.461821332e-21
2.762559165e-21
3.141581732e-21
3.622968924e-21
4.239237934e-21
5.034815086e-21
6.07109237e-21
7.433849538e-21
9.244227999e-21
1.167505827e-20
1.497526644e-20
1.950643811e-20
2.579751019e-20
3.462596274e-20
4.713627969e-20
6.500700605e-20
9.066996024e-20
1.072695522e-18
2.767530013e-18
2.482810392e-17
2.64776779e-16
5.433768943e-15
1.50494945e-13
5.074588836e-12
1.384724834e-10
2.400427523e-09
3.511382982e-08
1.123086336e-21
1.178119105e-21
1.233935962e-21
1.29148976e-21
1.35204801e-21
1.417251157e-21
1.489185086e-21
1.570474191e-21
1.66440409e-21
1.775086725e-21
1.907685727e-21
2.068727201e-21
2.266531542e-21
2.511817093e-21
2.818548922e-21
3.205139415e-21
3.696157642e-21
4.32478048e-21
5.136334149e-21
6.193451415e-21
7.583639754e-21
9.430467956e-21
1.191020401e-20
1.527667413e-20
1.989848168e-20
2.631462959e-20
3.531698385e-20
4.807034187e-20
6.628121899e-20
9.241801717e-20
1.149520972e-18
2.872659404e-18
2.638682649e-17
2.840088497e-16
6.504609297e-15
1.836478277e-13
5.613105223e-12
1.624693276e-10
2.693090779e-09
3.964286666e-08
1.145305562e-21
1.20167229e-21
1.258811372e-21
1.3176931e-21
1.379609659e-21
1.446234572e-21
1.519696593e-21
1.602674564e-21
1.698522471e-21
1.811437728e-21
1.946690947e-21
2.110942872e-21
2.312684816e-21
2.56285447e-21
2.875701828e-21
3.270014097e-21
3.770859654e-21
4.412088636e-21
5.239945558e-21
6.318329147e-21
7.73650941e-21
9.620531036e-21
1.215016753e-20
1.558424088e-20
2.029850607e-20
2.684221632e-20
3.602186976e-20
4.902288737e-20
6.758010766e-20
9.419886692e-20
1.227723074e-18
2.979553505e-18
2.796948695e-17
3.035037307e-16
7.588335597e-15