/*--------------------------------*- C++ -*----------------------------------*\
| =========                 |                                                 |
| \\      /  F ield         | OpenFOAM: The Open Source CFD Toolbox           |
|  \\    /   O peration     | Version:  v2006                                 |
|   \\  /    A nd           | Website:  www.openfoam.com                      |
|    \\/     M anipulation  |                                                 |
\*---------------------------------------------------------------------------*/
FoamFile
{
    version     2.0;
    format      ascii;
    class       volScalarField;
    location    "0.15";
    object      C2H4;
}
// * * * * * * * * * * * * * * * * * * * * * * * * * * * * * * * * * * * * * //

dimensions      [0 0 0 0 0 0 0];


internalField   nonuniform List<scalar> 
168000
(
2.170893563e-07
2.174495663e-07
2.179310268e-07
2.186170463e-07
2.200586737e-07
2.225858265e-07
2.256021449e-07
2.29394025e-07
2.366226577e-07
2.456699966e-07
2.561851034e-07
2.724763402e-07
2.93396474e-07
3.172626967e-07
3.538759883e-07
3.977111601e-07
4.512402046e-07
5.301789696e-07
6.188507871e-07
7.53707939e-07
9.130715108e-07
1.143040678e-06
1.432691254e-06
1.851116191e-06
2.386548464e-06
3.199917018e-06
4.204771548e-06
5.887142315e-06
8.08145829e-06
1.138137577e-05
1.644105389e-05
2.337199138e-05
3.404981722e-05
5.043743245e-05
7.351286593e-05
0.000105589046
0.000151277313
0.0002146759672
0.0002972649542
0.0004019303698
2.219246818e-07
2.221590173e-07
2.225701565e-07
2.233019203e-07
2.246769366e-07
2.26938155e-07
2.300412369e-07
2.34381248e-07
2.412036769e-07
2.502121149e-07
2.616517662e-07
2.777726817e-07
2.98649996e-07
3.24405154e-07
3.603425132e-07
4.050725494e-07
4.614118991e-07
5.39060265e-07
6.333857401e-07
7.66723852e-07
9.329719994e-07
1.163789923e-06
1.46326495e-06
1.884108848e-06
2.439206574e-06
3.251661362e-06
4.308985581e-06
5.986697444e-06
8.247198385e-06
1.161865254e-05
1.671713102e-05
2.38411776e-05
3.472923105e-05
5.127472917e-05
7.467004369e-05
0.0001073321313
0.0001536422443
0.0002175190928
0.0003007800282
0.0004061976909
2.267221237e-07
2.269153335e-07
2.272874482e-07
2.280104354e-07
2.293334335e-07
2.314920888e-07
2.346585183e-07
2.392343203e-07
2.459577212e-07
2.550430143e-07
2.669887555e-07
2.83206604e-07
3.043211957e-07
3.312063146e-07
3.671907884e-07
4.128388715e-07
4.711516497e-07
5.489942242e-07
6.471657624e-07
7.809407462e-07
9.524311038e-07
1.185780281e-06
1.493439914e-06
1.919206053e-06
2.490604216e-06
3.309001538e-06
4.408819658e-06
6.093605384e-06
8.414690983e-06
1.185549888e-05
1.700853929e-05
2.431507647e-05
3.540937553e-05
5.21333993e-05
7.586072743e-05
0.0001090920293
0.0001560117725
0.0002203985432
0.0003043310764
0.0004104963161
2.315393748e-07
2.317181921e-07
2.320671167e-07
2.327713637e-07
2.340609205e-07
2.361824855e-07
2.39395917e-07
2.440960347e-07
2.508418006e-07
2.60052176e-07
2.72335887e-07
2.887709388e-07
3.102364422e-07
3.379227371e-07
3.743026938e-07
4.208851044e-07
4.807828836e-07
5.595500385e-07
6.606736838e-07
7.959316178e-07
9.718271121e-07
1.208664114e-06
1.523646585e-06
1.955856979e-06
2.541693232e-06
3.370388682e-06
4.506271461e-06
6.206361006e-06
8.584292798e-06
1.209341207e-05
1.731316838e-05
2.479431968e-05
3.60924778e-05
5.301286746e-05
7.708243479e-05
0.0001108692427
0.0001583898988
0.0002233120252
0.0003079169006
0.0004148275816
2.364028363e-07
2.365755499e-07
2.369098746e-07
2.375981118e-07
2.388689149e-07
2.409816904e-07
2.442349289e-07
2.490209836e-07
2.55839155e-07
2.651959204e-07
2.777522371e-07
2.944604443e-07
3.163241853e-07
3.446732441e-07
3.816219832e-07
4.291534041e-07
4.904617589e-07
5.70517889e-07
6.741610975e-07
8.114749772e-07
9.913664148e-07
1.232254627e-06
1.554136434e-06
1.993749575e-06
2.593050113e-06
3.434838568e-06
4.602697984e-06
6.323931101e-06
8.756297435e-06
1.233349743e-05
1.762942976e-05
2.527946012e-05
3.678037401e-05
5.391262779e-05
7.833309265e-05
0.0001126643274
0.0001607797848
0.0002262566029
0.0003115328042
0.0004191899019
2.413258421e-07
2.414955622e-07
2.418205431e-07
2.424979813e-07
2.437605039e-07
2.458784186e-07
2.491700718e-07
2.540304993e-07
2.609434304e-07
2.704575056e-07
2.832631125e-07
3.002723597e-07
3.225561858e-07
3.515137679e-07
3.891221349e-07
4.376176358e-07
5.002642709e-07
5.817972701e-07
6.877608624e-07
8.274574919e-07
1.011163366e-06
1.25645391e-06
1.585058992e-06
2.032710479e-06
2.64502355e-06
3.501730908e-06
4.699025655e-06
6.445610876e-06
8.930951642e-06
1.257657224e-05
1.795613352e-05
2.577098921e-05
3.747457529e-05
5.483223161e-05
7.961107e-05
0.0001144779757
0.0001631841583
0.0002292327924
0.0003151839935
0.0004235758923
2.463168326e-07
2.464851657e-07
2.46804365e-07
2.474758253e-07
2.487374469e-07
2.508686066e-07
2.54200245e-07
2.591333619e-07
2.661525728e-07
2.758310092e-07
2.888797851e-07
3.062058347e-07
3.289223667e-07
3.584714075e-07
3.967911027e-07
4.462666712e-07
5.102282081e-07
5.933416295e-07
7.015447791e-07
8.438228266e-07
1.031283129e-06
1.281213177e-06
1.616505696e-06
2.0726465e-06
2.697825031e-06
3.570679726e-06
4.795891536e-06
6.57092464e-06
9.108466247e-06
1.282324336e-05
1.829239479e-05
2.62693496e-05
3.817631859e-05
5.577126004e-05
8.09151722e-05
0.0001163108578
0.0001656051107
0.0002322402197
0.0003188701702
0.0004279966413
2.513821456e-07
2.515501452e-07
2.518661256e-07
2.525354778e-07
2.538015201e-07
2.559514501e-07
2.593259282e-07
2.643336654e-07
2.714663995e-07
2.813148737e-07
2.946077601e-07
3.122612623e-07
3.354201437e-07
3.655599915e-07
4.046240024e-07
4.550965419e-07
5.203732796e-07
6.051309766e-07
7.15553196e-07
8.605447487e-07
1.051764638e-06
1.306510778e-06
1.648534837e-06
2.113510594e-06
2.751584188e-06
3.641449697e-06
4.893738246e-06
6.699556867e-06
9.289023857e-06
1.307396507e-05
1.863756218e-05
2.677494518e-05
3.888660474e-05
5.672938239e-05
8.224446916e-05
0.000118163462
0.0001680442495
0.0002352785215
0.0003225910647
0.0004324524141
2.565269749e-07
2.566954077e-07
2.570100714e-07
2.576803098e-07
2.5895475e-07
2.611276671e-07
2.64548266e-07
2.696338205e-07
2.768856062e-07
2.869093432e-07
3.004502259e-07
3.184397817e-07
3.420499595e-07
3.727872245e-07
4.126195625e-07
4.641067643e-07
5.307107232e-07
6.171583619e-07
7.298102307e-07
8.776129701e-07
1.072632891e-06
1.332340046e-06
1.681185741e-06
2.155282199e-06
2.806382411e-06
3.713902258e-06
4.992877731e-06
6.83130423e-06
9.472784676e-06
1.33290815e-05
1.899116238e-05
2.728814337e-05
3.960632939e-05
5.770635833e-05
8.359812117e-05
0.0001200362443
0.000170502891
0.0002383475084
0.000326346403
0.0004369433917
2.617557725e-07
2.619252193e-07
2.622400072e-07
2.629134485e-07
2.641993709e-07
2.663987206e-07
2.698687498e-07
2.750356969e-07
2.824113497e-07
2.92615449e-07
3.064094842e-07
3.247429635e-07
3.488134487e-07
3.801579896e-07
4.207783832e-07
4.732986137e-07
5.412478696e-07
6.294232217e-07
7.443316132e-07
8.950256808e-07
1.093905527e-06
1.358702584e-06
1.714486873e-06
2.19795596e-06
2.862273134e-06
3.787960957e-06
5.093534173e-06
6.966042125e-06
9.659891056e-06
1.358885792e-05
1.935285669e-05
2.780927794e-05
4.033626871e-05
5.870191584e-05
8.49754992e-05
0.0001219299592
0.0001729827133
0.0002414467689
0.0003301359276
0.0004414696877
2.670724701e-07
2.672433811e-07
2.675594046e-07
2.682378685e-07
2.695377474e-07
2.717664575e-07
2.752890923e-07
2.805410519e-07
2.880450653e-07
2.984346076e-07
3.12487537e-07
3.311726308e-07
3.557127056e-07
3.876758841e-07
4.29102075e-07
4.826743043e-07
5.519902975e-07
6.41928115e-07
7.591287393e-07
9.127856071e-07
1.115596333e-06
1.385604561e-06
1.748460461e-06
2.241535298e-06
2.919293998e-06
3.863589176e-06
5.195872871e-06
7.103701288e-06
9.850471142e-06
1.385350411e-05
1.972240565e-05
2.833866514e-05
4.107709364e-05
5.971592891e-05
8.637622498e-05
0.0001238451693
0.0001754846903
0.0002445759468
0.0003339593336
0.0004460308432
2.724806242e-07
2.726533558e-07
2.729714891e-07
2.736564349e-07
2.74972314e-07
2.772329357e-07
2.808111655e-07
2.861516813e-07
2.937883809e-07
3.043684571e-07
3.186863238e-07
3.377307641e-07
3.627500066e-07
3.953439406e-07
4.375928264e-07
4.922365933e-07
5.629428421e-07
6.546771333e-07
7.742107706e-07
9.308979274e-07
1.137717108e-06
1.413054672e-06
1.783125174e-06
2.286028778e-06
2.977474062e-06
3.940775851e-06
5.300019692e-06
7.244251417e-06
1.004464179e-05
1.412319053e-05
2.00996668e-05
2.887662472e-05
4.182936626e-05
6.074834166e-05
8.779996925e-05
0.0001257823498
0.0001780096353
0.0002477346878
0.0003378107747
0.000450614919
2.779835186e-07
2.781583592e-07
2.784793041e-07
2.791719287e-07
2.805055393e-07
2.828003365e-07
2.864369626e-07
2.918694663e-07
2.996430726e-07
3.104187886e-07
3.250078143e-07
3.44419454e-07
3.699277151e-07
4.031649683e-07
4.46253184e-07
5.019885849e-07
5.741100625e-07
6.676751306e-07
7.89585728e-07
9.493691679e-07
1.160278652e-06
1.441063026e-06
1.818497664e-06
2.331448084e-06
3.036838024e-06
4.019526344e-06
5.406074175e-06
7.3876897e-06
1.024251103e-05
1.439806132e-05
2.048457096e-05
2.9423454e-05
4.259356881e-05
6.179912826e-05
8.924647952e-05
0.0001277419357
0.0001805581698
0.0002509228414
0.0003416933155
0.0004552345891
2.835842383e-07
2.837614263e-07
2.840857583e-07
2.847870652e-07
2.861399067e-07
2.884709196e-07
2.921685724e-07
2.976963811e-07
3.056110381e-07
3.165875139e-07
3.314540437e-07
3.512408797e-07
3.772482564e-07
4.111417164e-07
4.550859385e-07
5.119336278e-07
5.854964551e-07
6.809273565e-07
8.052610651e-07
9.682066174e-07
1.183291296e-06
1.469640539e-06
1.854593487e-06
2.377806888e-06
3.097408658e-06
4.099856612e-06
5.514118356e-06
7.534032777e-06
1.044418006e-05
1.467824325e-05
2.087709749e-05
2.997942979e-05
4.337012757e-05
6.286828986e-05
9.07155806e-05
0.0001297243284
0.0001831307334
0.0002541385432
0.0003456100642
0.0004598896307
2.892857233e-07
2.894654606e-07
2.897936611e-07
2.905045099e-07
2.918779058e-07
2.942469981e-07
2.980081616e-07
3.036344876e-07
3.116942795e-07
3.228766479e-07
3.380271245e-07
3.581973008e-07
3.847141163e-07
4.192769532e-07
4.640940643e-07
5.220752609e-07
5.971065489e-07
6.944392833e-07
8.2124397e-07
9.874180165e-07
1.206765175e-06
1.498798616e-06
1.891427646e-06
2.425120238e-06
3.159208178e-06
4.181789503e-06
5.624222713e-06
7.683311108e-06
1.064974498e-05
1.496385175e-05
2.12772643e-05
3.054481727e-05
4.415942337e-05
6.395585095e-05
9.220715326e-05
0.0001317298726
0.000185727956
0.0002573836094
0.0003495608323
0.0004645798218
2.950908093e-07
2.952732703e-07
2.956057504e-07
2.96326891e-07
2.9772203e-07
3.001309256e-07
3.039579615e-07
3.096859268e-07
3.178948906e-07
3.292882985e-07
3.447292491e-07
3.652910539e-07
3.923278467e-07
4.275735048e-07
4.732806855e-07
5.324171806e-07
6.089449475e-07
7.082165275e-07
8.375415275e-07
1.007011394e-06
1.230710379e-06
1.528548984e-06
1.929014931e-06
2.473404215e-06
3.222258983e-06
4.265352416e-06
5.736450174e-06
7.835565036e-06
1.085929811e-05
1.525499546e-05
2.168511957e-05
3.111987099e-05
4.496180013e-05
6.506185538e-05
9.372111689e-05
0.0001337588633
0.000188350446
0.0002606587862
0.0003535453639
0.0004693048649
3.010022574e-07
3.011875962e-07
3.01524713e-07
3.022568117e-07
3.036747779e-07
3.061250897e-07
3.100202594e-07
3.158529113e-07
3.242150474e-07
3.358246584e-07
3.5156269e-07
3.72524553e-07
4.000920722e-07
4.360342739e-07
4.826490579e-07
5.429632219e-07
6.210163458e-07
7.222648158e-07
8.541608071e-07
1.026994982e-06
1.255137034e-06
1.558903616e-06
1.967370121e-06
2.522675752e-06
3.286584043e-06
4.350575819e-06
5.850858823e-06
7.99084204e-06
1.107292916e-05
1.555177933e-05
2.210073522e-05
3.170483636e-05
4.577757198e-05
6.618636312e-05
9.525741225e-05
0.0001358115318
0.0001909987117
0.0002639641658
0.0003575633906
0.0004740626627
3.070227782e-07
3.072111327e-07
3.075532019e-07
3.082968601e-07
3.097386554e-07
3.122319085e-07
3.161973926e-07
3.221377188e-07
3.306570014e-07
3.424880002e-07
3.585297981e-07
3.799002899e-07
4.080094946e-07
4.446622495e-07
4.922025563e-07
5.537173454e-07
6.333255377e-07
7.365899724e-07
8.711089126e-07
1.04737717e-06
1.280055349e-06
1.589874698e-06
2.00650813e-06
2.572952534e-06
3.352207085e-06
4.43749233e-06
5.967503724e-06
8.149194827e-06
1.129072614e-05
1.58543068e-05
2.252420193e-05
3.229995076e-05
4.660702902e-05
6.732944846e-05
9.681598234e-05
0.0001378880136
0.0001936731676
0.0002672998328
0.0003616146348
0.0004788448271
3.131550491e-07
3.133465452e-07
3.136938501e-07
3.144496183e-07
3.159161803e-07
3.184538299e-07
3.224917451e-07
3.285426867e-07
3.37223074e-07
3.492806719e-07
3.656330018e-07
3.874208344e-07
4.160828966e-07
4.534605105e-07
5.01944668e-07
5.646836297e-07
6.458774181e-07
7.511979154e-07
8.883930109e-07
1.068166489e-06
1.305475646e-06
1.62147462e-06
2.046444089e-06
2.62425294e-06
3.419152658e-06
4.52613614e-06
6.086438156e-06
8.310680015e-06
1.151277612e-05
1.616268135e-05
2.295562519e-05
3.290544474e-05
4.745044235e-05
6.849120165e-05
9.839675239e-05
0.0001399882937
0.0001963740195
0.0002706658422
0.0003656922418
0.0004836617888
3.194017287e-07
3.195964831e-07
3.199492814e-07
3.207176698e-07
3.222098854e-07
3.24793332e-07
3.289057451e-07
3.350702092e-07
3.439156529e-07
3.56205094e-07
3.72874805e-07
3.950888351e-07
4.243151437e-07
4.624322279e-07
5.118789878e-07
5.758662654e-07
6.58676984e-07
7.660946578e-07
9.060203506e-07
1.089371599e-06
1.331408379e-06
1.653715986e-06
2.087193411e-06
2.676596011e-06
3.487446157e-06
4.616542668e-06
6.207714456e-06
8.475357235e-06
1.173916585e-05
1.647700745e-05
2.339512225e-05
3.352154287e-05
4.830806832e-05
6.967173358e-05
9.999962893e-05
0.0001421124745
0.0001991014286
0.0002740624286
0.0003697996528
0.0004885132755
3.257654689e-07
3.259635905e-07
3.263221198e-07
3.271036069e-07
3.286223228e-07
3.31252924e-07
3.354418642e-07
3.41722735e-07
3.507371889e-07
3.63263757e-07
3.802577863e-07
4.02907019e-07
4.327091851e-07
4.715806653e-07
5.220092144e-07
5.872695517e-07
6.717293353e-07
7.812863103e-07
9.239982743e-07
1.111001292e-06
1.357864154e-06
1.686611622e-06
2.128771834e-06
2.730001423e-06
3.557113804e-06
4.708748346e-06
6.331384588e-06
8.643288519e-06
1.196998223e-05
1.679739127e-05
2.384281973e-05
3.414846451e-05
4.918015085e-05
7.087115817e-05
0.0001016247883
0.0001442612176
0.0002018563173
0.0002774896319
0.0003739406626
0.0004933988716
3.322489237e-07
3.324505158e-07
3.328149973e-07
3.336100363e-07
3.351560677e-07
3.378351483e-07
3.421026174e-07
3.485027656e-07
3.576901947e-07
3.704592196e-07
3.877845982e-07
4.10878192e-07
4.412680547e-07
4.809091786e-07
5.32339148e-07
5.988978935e-07
6.850396749e-07
7.96779084e-07
9.42334228e-07
1.133064494e-06
1.384853736e-06
1.720174592e-06
2.171195451e-06
2.78448948e-06
3.628182632e-06
4.802790499e-06
6.457500548e-06
8.814537891e-06
1.220531273e-05
1.712394102e-05
2.429885171e-05
3.478642441e-05
5.006692379e-05
7.208960648e-05
0.0001032724097
0.0001464348545
0.0002046387119
0.0002809457455
0.0003781153177
0.0004983184176
3.388547575e-07
3.390599188e-07
3.394305606e-07
3.402395845e-07
3.418137222e-07
3.445425823e-07
3.488905634e-07
3.554128551e-07
3.647772429e-07
3.777941078e-07
3.954579658e-07
4.190052383e-07
4.49994871e-07
4.904212159e-07
5.428726889e-07
6.107558002e-07
6.986133103e-07
8.125792951e-07
9.610357692e-07
1.155570269e-06
1.412388069e-06
1.754418212e-06
2.214480735e-06
2.840081096e-06
3.700680456e-06
4.898707277e-06
6.58611463e-06
8.989171101e-06
1.244524564e-05
1.745676718e-05
2.476335813e-05
3.543563301e-05
5.09686125e-05
7.332721957e-05
0.0001049426722
0.000148633706
0.0002074487548
0.0002844301399
0.0003823235506
0.0005032663993
3.455856516e-07
3.45794477e-07
3.461714768e-07
3.469949026e-07
3.485979182e-07
3.513778403e-07
3.558083054e-07
3.624556096e-07
3.720009659e-07
3.852711135e-07
4.032806868e-07
4.272911204e-07
4.58892837e-07
5.001203169e-07
5.536138363e-07
6.228478847e-07
7.124556542e-07
8.286933677e-07
9.801105735e-07
1.178527826e-06
1.440478285e-06
1.789356068e-06
2.258644552e-06
2.89679779e-06
3.774635858e-06
4.996537622e-06
6.717279633e-06
9.167255451e-06
1.268987033e-05
1.779598248e-05
2.523648347e-05
3.609629637e-05
5.188543405e-05
7.458414234e-05
0.00010663575
0.0001508580615
0.0002102867884
0.000287945657
0.0003865651508
0.0005082431603
3.524443096e-07
3.526568913e-07
3.530404382e-07
3.538786703e-07
3.555113214e-07
3.583435757e-07
3.628584923e-07
3.696336881e-07
3.793640553e-07
3.928929947e-07
4.112556307e-07
4.357388788e-07
4.679652402e-07
5.100101128e-07
5.645666872e-07
6.351788632e-07
7.265722259e-07
8.45127838e-07
9.995664412e-07
1.201946531e-06
1.469135714e-06
1.825002022e-06
2.303704181e-06
2.954661679e-06
3.850078163e-06
5.096321257e-06
6.851048997e-06
9.348859685e-06
1.293927734e-05
1.814170181e-05
2.57183755e-05
3.676861559e-05
5.281759624e-05
7.586051563e-05
0.0001083518033
0.0001531081955
0.0002131530979
0.0002914922359
0.0003908396254
0.0005132537626
3.594334629e-07
3.596498908e-07
3.600401669e-07
3.608935997e-07
3.625566336e-07
3.654424833e-07
3.7004382e-07
3.769498022e-07
3.868692623e-07
4.006625751e-07
4.193857389e-07
4.443516318e-07
4.772154523e-07
5.200943255e-07
5.757354365e-07
6.477535553e-07
7.409686534e-07
8.618893583e-07
1.019411304e-06
1.225835907e-06
1.498371896e-06
1.861370232e-06
2.349677319e-06
3.013695476e-06
3.927037435e-06
5.198098684e-06
6.987476906e-06
9.53405392e-06
1.319355851e-05
1.849404188e-05
2.620918398e-05
3.745278523e-05
5.376529547e-05
7.715646426e-05
0.0001100909635
0.0001553843677
0.0002160479195
0.0002950697915
0.0003951354802
0.0005182981622
3.665558743e-07
3.667762366e-07
3.671734187e-07
3.680424391e-07
3.697365958e-07
3.726773012e-07
3.773670327e-07
3.844067177e-07
3.945193977e-07
4.085827438e-07
4.276740241e-07
4.531325757e-07
4.866469293e-07
5.303767683e-07
5.871243766e-07
6.605768843e-07
7.55650675e-07
8.789847004e-07
1.039653229e-06
1.250205647e-06
1.528198592e-06
1.898475159e-06
2.396582093e-06
3.073922482e-06
4.00554446e-06
5.301911196e-06
7.126618375e-06
9.722909604e-06
1.345280694e-05
1.885312066e-05
2.670905935e-05
3.81489901e-05
5.472871358e-05
7.847208121e-05
0.0001118532849
0.0001576868266
0.0002189714007
0.0002986785959
0.0003994648133
0.0005233763155
3.738143423e-07
3.74038726e-07
3.744429863e-07
3.753279755e-07
3.770539909e-07
3.80050813e-07
3.848309245e-07
3.920072553e-07
4.023173323e-07
4.166564559e-07
4.361235712e-07
4.620849844e-07
4.962632113e-07
5.40861345e-07
5.987378978e-07
6.736538786e-07
7.706241416e-07
8.964207603e-07
1.060300429e-06
1.275065621e-06
1.558627794e-06
1.936331582e-06
2.44443707e-06
3.135366592e-06
4.085630751e-06
5.407800887e-06
7.268529308e-06
9.915499493e-06
1.371711699e-05
1.92190563e-05
2.721815133e-05
3.885739976e-05
5.570800434e-05
7.980740744e-05
0.0001136389366
0.0001600158258
0.0002219235879
0.0003023188974
0.000403827573
0.0005284872916
3.812117048e-07
3.814401957e-07
3.81851703e-07
3.827530382e-07
3.845116462e-07
3.875658496e-07
3.924383407e-07
3.997542913e-07
4.10265998e-07
4.248867327e-07
4.447375369e-07
4.712122101e-07
5.060679232e-07
5.515520508e-07
6.105804888e-07
6.869896723e-07
7.858950189e-07
9.142045613e-07
1.081361263e-06
1.300425883e-06
1.589671735e-06
1.974954602e-06
2.493261259e-06
3.198052289e-06
4.167328542e-06
5.515810672e-06
7.413266554e-06
1.011189765e-05
1.398658434e-05
1.959196519e-05
2.773660566e-05
3.957815869e-05
5.670333755e-05
8.116273454e-05
0.0001154482728
0.0001623712787
0.0002249039038
0.0003059909232
0.0004082237733
0.0005336238324
3.887508414e-07
3.889835249e-07
3.894024451e-07
3.903205007e-07
3.921124354e-07
3.952252916e-07
4.001921795e-07
4.07650759e-07
4.183683884e-07
4.332766626e-07
4.535191502e-07
4.805176832e-07
5.160647742e-07
5.624529727e-07
6.22656737e-07
7.005895066e-07
8.014693899e-07
9.323432591e-07
1.102844247e-06
1.326296679e-06
1.621342895e-06
2.014359659e-06
2.543074123e-06
3.262004651e-06
4.250670793e-06
5.625984304e-06
7.560887955e-06
1.031217952e-05
1.426130654e-05
1.997195811e-05
2.826456946e-05
4.031147982e-05
5.771492904e-05
8.253824654e-05
0.000117281436
0.0001647531886
0.0002279122544
0.0003096909363
0.0004126536072
0.0005387937207
3.96434677e-07
3.96671638e-07
3.970981351e-07
3.98033284e-07
3.998592813e-07
4.030320707e-07
4.080953938e-07
4.156996502e-07
4.266275596e-07
4.418294011e-07
4.624717132e-07
4.900049128e-07
5.26257559e-07
5.735682896e-07
6.3497133e-07
7.144587316e-07
8.173534578e-07
9.50844145e-07
1.124758056e-06
1.352688453e-06
1.653654013e-06
2.054562534e-06
2.593895586e-06
3.327249351e-06
4.335691194e-06
5.73836639e-06
7.711452392e-06
1.051642194e-05
1.454138271e-05
2.035915832e-05
2.880221374e-05
4.105757788e-05
5.874293008e-05
8.393404986e-05
0.0001191385601
0.0001671616939
0.00023095006
0.0003134204615
0.000417117011
0.0005439969712
4.042661842e-07
4.045075074e-07
4.049417439e-07
4.058943586e-07
4.077551578e-07
4.10989172e-07
4.161509923e-07
4.239040159e-07
4.350466313e-07
4.505481722e-07
4.715986013e-07
4.996774876e-07
5.366501579e-07
5.849022732e-07
6.475290561e-07
7.286028081e-07
8.335535485e-07
9.697146507e-07
1.147111532e-06
1.379611858e-06
1.686618097e-06
2.095579361e-06
2.645746034e-06
3.393812662e-06
4.422424174e-06
5.853002421e-06
7.865019828e-06
1.072470319e-05
1.482691396e-05
2.075370168e-05
2.934971161e-05
4.181665323e-05
5.978743966e-05
8.535036368e-05
0.0001210197642
0.0001695968253
0.0002340177987
0.0003171819598
0.0004216041076
0.0005492337846
4.122483858e-07
4.12494156e-07
4.129362931e-07
4.139067464e-07
4.158030918e-07
4.190996355e-07
4.243620412e-07
4.32266968e-07
4.436287877e-07
4.594362689e-07
4.809032641e-07
5.095390759e-07
5.472465377e-07
5.964592893e-07
6.603348059e-07
7.430273092e-07
8.50076114e-07
9.889623527e-07
1.169913691e-06
1.407077758e-06
1.720248426e-06
2.137426635e-06
2.698646332e-06
3.461721466e-06
4.51090491e-06
5.969938789e-06
8.021651351e-06
1.093710307e-05
1.511800393e-05
2.11557254e-05
2.990722945e-05
4.258890212e-05
6.084871416e-05
8.678749876e-05
0.0001229252109
0.0001720591468
0.0002371156701
0.000320975489
0.0004261210997
0.000554504099
4.203843572e-07
4.206346592e-07
4.210848578e-07
4.220735234e-07
4.240061652e-07
4.273665579e-07
4.327316661e-07
4.407916805e-07
4.52377279e-07
4.684970543e-07
4.903892265e-07
5.19593427e-07
5.580507523e-07
6.082437981e-07
6.733935739e-07
7.577379227e-07
8.669277348e-07
1.008594976e-06
1.193173724e-06
1.43509724e-06
1.754558566e-06
2.180121221e-06
2.75261782e-06
3.531003256e-06
4.601169337e-06
6.089222809e-06
8.181409214e-06
1.115370299e-05
1.541475856e-05
2.15653689e-05
3.047493784e-05
4.337452629e-05
6.192699881e-05
8.82456482e-05
0.0001248551396
0.0001745489815
0.000240243749
0.0003248011914
0.0004306716249
0.0005598012882
4.286772286e-07
4.289321476e-07
4.293905681e-07
4.303978218e-07
4.323675172e-07
4.35793095e-07
4.412630532e-07
4.49481391e-07
4.612954222e-07
4.777339626e-07
5.000600892e-07
5.298443719e-07
5.690669441e-07
6.202603562e-07
6.867104596e-07
7.727404531e-07
8.841151237e-07
1.028620399e-06
1.216901008e-06
1.46368162e-06
1.789562371e-06
2.223680361e-06
2.807682332e-06
3.601686147e-06
4.69325416e-06
6.210902747e-06
8.344356876e-06
1.137458598e-05
1.571728603e-05
2.198277309e-05
3.105300975e-05
4.417373037e-05
6.302253257e-05
8.972502006e-05
0.0001268097725
0.0001770664896
0.0002434020705
0.0003286591691
0.0004352557568
0.0005651305143
4.37130187e-07
4.373898086e-07
4.378566116e-07
4.388828312e-07
4.408903457e-07
4.443824623e-07
4.499594511e-07
4.583394018e-07
4.703866024e-07
4.871505003e-07
5.099195298e-07
5.402958242e-07
5.802993449e-07
6.325136174e-07
7.002906698e-07
7.880408243e-07
9.016451289e-07
1.049046658e-06
1.241105108e-06
1.492842445e-06
1.825273995e-06
2.268121683e-06
2.863862194e-06
3.673798886e-06
4.787196872e-06
6.335027842e-06
8.510559028e-06
1.15998367e-05
1.60256966e-05
2.240808068e-05
3.164162069e-05
4.498672121e-05
6.413555027e-05
9.122582121e-05
0.0001287893148
0.000179611795
0.0002465906052
0.000332549483
0.0004398735676
0.0005704930312
4.457464788e-07
4.460108889e-07
4.46486235e-07
4.475318016e-07
4.495779093e-07
4.531379378e-07
4.588241721e-07
4.673690818e-07
4.796542744e-07
4.967502471e-07
5.199713044e-07
5.509517813e-07
5.917522771e-07
6.450083342e-07
7.141395198e-07
8.036450819e-07
9.195247373e-07
1.069881951e-06
1.265795786e-06
1.522591508e-06
1.8617079e-06
2.313463206e-06
2.92118024e-06
3.747370859e-06
4.883035761e-06
6.461648325e-06
8.680081633e-06
1.182954148e-05
1.634010268e-05
2.284143633e-05
3.224094853e-05
4.581370745e-05
6.526628244e-05
9.274825343e-05
0.0001307939563
0.000182184971
0.0002498092145
0.0003364695321
0.0004445251359
0.0005758889057
4.54529411e-07
4.547986962e-07
4.552827468e-07
4.563480445e-07
4.584335294e-07
4.620628631e-07
4.678605943e-07
4.765738676e-07
4.891019637e-07
5.065368577e-07
5.302192482e-07
5.618163259e-07
6.034301549e-07
6.577493597e-07
7.282624364e-07
8.195593958e-07
9.377610781e-07
1.091134643e-06
1.290983002e-06
1.552940848e-06
1.898878859e-06
2.359723355e-06
2.979659818e-06
3.822432102e-06
4.980809933e-06
6.590815452e-06
8.85299195e-06
1.206378834e-05
1.666061873e-05
2.328298673e-05
3.285117336e-05
4.665489897e-05
6.641495479e-05
9.429250854e-05
0.0001328238723
0.000184786018
0.0002530567472
0.0003404162361
0.0004492010623
0.0005813182498
4.634823537e-07
4.637566014e-07
4.642495185e-07
4.653349351e-07
4.674605915e-07
4.711606453e-07
4.770721625e-07
4.85957265e-07
4.987332683e-07
5.165140623e-07
5.406672772e-07
5.728936268e-07
6.153374863e-07
6.707416492e-07
7.426649589e-07
8.357900632e-07
9.563614263e-07
1.11281327e-06
1.316676925e-06
1.58390276e-06
1.93680197e-06
2.406920962e-06
3.039324798e-06
3.899013316e-06
5.080559321e-06
6.722581517e-06
9.029358562e-06
1.230266696e-05
1.698736123e-05
2.373288058e-05
3.34724774e-05
4.751050644e-05
6.75817878e-05
9.585876021e-05
0.0001348792057
0.0001874150431
0.0002563333334
0.0003443960443
0.0004539070614
0.0005867744286
4.726087422e-07
4.728880403e-07
4.733899866e-07
4.744959142e-07
4.766625474e-07
4.804347585e-07
4.864623906e-07
4.955228509e-07
5.085518596e-07
5.266856691e-07
5.513193893e-07
5.84187941e-07
6.27478874e-07
6.839902617e-07
7.573527423e-07
8.523435112e-07
9.753332062e-07
1.134926545e-06
1.342887936e-06
1.615489801e-06
1.975492659e-06
2.45507528e-06
3.100199584e-06
3.977145873e-06
5.18232471e-06
6.856999881e-06
9.209251405e-06
1.254626875e-05
1.732044871e-05
2.419126864e-05
3.410504475e-05
4.838074106e-05
6.876699677e-05
9.744715148e-05
0.0001369600438
0.0001900723625
0.0002596408929
0.0003484089374
0.0004586469674
0.0005922619465
4.819120784e-07
4.821965155e-07
4.827076548e-07
4.838344899e-07
4.860429167e-07
4.89888746e-07
4.960348625e-07
5.052742744e-07
5.185614845e-07
5.370555646e-07
5.621796661e-07
5.957036145e-07
6.398590177e-07
6.975003625e-07
7.723315592e-07
8.692262999e-07
9.946839957e-07
1.157483359e-06
1.369626632e-06
1.647714798e-06
2.014966692e-06
2.504205991e-06
3.162309123e-06
4.056861835e-06
5.286147745e-06
6.994124995e-06
9.392741783e-06
1.279468679e-05
1.766000162e-05
2.465830359e-05
3.474906132e-05
4.926581446e-05
6.99707941e-05
9.905777859e-05
0.0001390663782
0.0001927582561
0.000262979635
0.0003524549048
0.0004634207252
0.0005977826842
4.913959328e-07
4.916855986e-07
4.922060959e-07
4.933542393e-07
4.956052889e-07
4.995262216e-07
5.057932344e-07
5.152152588e-07
5.287659662e-07
5.476277161e-07
5.732522741e-07
6.074450845e-07
6.524827152e-07
7.112772245e-07
7.876073024e-07
8.864451255e-07
1.014421529e-06
1.180492792e-06
1.396903836e-06
1.680590851e-06
2.055240176e-06
2.554333211e-06
3.225678917e-06
4.138193962e-06
5.392070956e-06
7.134012417e-06
9.57990239e-06
1.304801588e-05
1.800614231e-05
2.513413998e-05
3.540471453e-05
5.01659389e-05
7.119339633e-05
0.0001006906711
0.0001411981777
0.0001954729526
0.0002663497747
0.0003565339099
0.0004682282835
0.0006033366195
5.010639467e-07
5.013589316e-07
5.018889529e-07
5.030588107e-07
5.053533248e-07
5.093508713e-07
5.15741236e-07
5.253496029e-07
5.391692068e-07
5.584061726e-07
5.845414665e-07
6.194168808e-07
6.653548651e-07
7.253262311e-07
8.031859873e-07
9.040068232e-07
1.034553703e-06
1.203964111e-06
1.424730599e-06
1.714131347e-06
2.096329577e-06
2.605477505e-06
3.290335031e-06
4.221175729e-06
5.500137772e-06
7.276718834e-06
9.77080732e-06
1.330635243e-05
1.835899484e-05
2.561893392e-05
3.607219296e-05
5.108132654e-05
7.243501653e-05
0.0001023460268
0.000143355593
0.0001982159831
0.0002697515588
0.0003606458613
0.0004730695708
0.0006089237416
5.109198339e-07
5.112202291e-07
5.117599419e-07
5.129519251e-07
5.152907587e-07
5.193664554e-07
5.258826724e-07
5.356811829e-07
5.497751879e-07
5.693950666e-07
5.960515847e-07
6.316236277e-07
6.784804679e-07
7.39652878e-07
8.190737548e-07
9.219183708e-07
1.055088577e-06
1.22790678e-06
1.453118209e-06
1.748349958e-06
2.138251719e-06
2.657659892e-06
3.35630411e-06
4.305841339e-06
5.610392538e-06
7.422302082e-06
9.965532076e-06
1.356979446e-05
1.871868474e-05
2.61128427e-05
3.675168576e-05
5.20121883e-05
7.369586786e-05
0.000104024121
0.0001455390155
0.0002009882882
0.0002731848381
0.0003647861887
0.0004779328736
0.0006145335439
5.209673825e-07
5.212732802e-07
5.218228533e-07
5.230373783e-07
5.254213997e-07
5.295768099e-07
5.362214261e-07
5.462139539e-07
5.605879732e-07
5.805986163e-07
6.077870605e-07
6.440700458e-07
6.918646287e-07
7.542627754e-07
8.352768742e-07
9.401868918e-07
1.076034381e-06
1.252330461e-06
1.482078193e-06
1.783260656e-06
2.181023796e-06
2.710901857e-06
3.423613381e-06
4.392225738e-06
5.722880533e-06
7.570821165e-06
1.016415357e-05
1.383844148e-05
1.908533843e-05
2.66160239e-05
3.744338162e-05
5.295873216e-05
7.497616536e-05
0.000105725214
0.0001477487402
0.0002037899818
0.0002766495176
0.00036895365
0.0004828295601
0.0006201748995
5.312104569e-07
5.315219501e-07
5.320815537e-07
5.333190425e-07
5.35749134e-07
5.399858487e-07
5.467614583e-07
5.569519518e-07
5.716117096e-07
5.920211266e-07
6.197524173e-07
6.567609539e-07
7.055125591e-07
7.691616509e-07
8.518017454e-07
9.588196587e-07
1.097399518e-06
1.277245023e-06
1.511622327e-06
1.818877716e-06
2.224663384e-06
2.765225362e-06
3.492290676e-06
4.480364627e-06
5.837647992e-06
7.722336267e-06
1.036675011e-05
1.411239438e-05
1.945908224e-05
2.712863392e-05
3.814746721e-05
5.392115951e-05
7.627612033e-05