/*--------------------------------*- C++ -*----------------------------------*\
| =========                 |                                                 |
| \\      /  F ield         | OpenFOAM: The Open Source CFD Toolbox           |
|  \\    /   O peration     | Version:  v2006                                 |
|   \\  /    A nd           | Website:  www.openfoam.com                      |
|    \\/     M anipulation  |                                                 |
\*---------------------------------------------------------------------------*/
FoamFile
{
    version     2.0;
    format      ascii;
    class       volScalarField;
    location    "0.15";
    object      C2H5;
}
// * * * * * * * * * * * * * * * * * * * * * * * * * * * * * * * * * * * * * //

dimensions      [0 0 0 0 0 0 0];


internalField   nonuniform List<scalar> 
168000
(
4.623886393e-18
6.158111709e-18
7.733914742e-18
9.357313662e-18
1.106023575e-17
1.286316138e-17
1.473547257e-17
1.670360977e-17
1.898148347e-17
2.144476479e-17
2.407890732e-17
2.731929672e-17
3.105557056e-17
3.513666143e-17
4.06877787e-17
4.708391453e-17
5.465691148e-17
6.532983122e-17
7.719724519e-17
9.485347979e-17
1.155704738e-16
1.452302809e-16
1.824387043e-16
2.360306639e-16
3.04495287e-16
4.083939567e-16
5.366654691e-16
7.513836103e-16
1.031363361e-15
1.452391074e-15
2.097917769e-15
2.982139609e-15
1.29114738e-13
4.673224162e-13
6.730356911e-12
9.824472625e-11
1.677928e-09
1.958921535e-08
1.700568902e-07
9.811868962e-07
4.728276789e-18
6.296650962e-18
7.90866035e-18
9.572721666e-18
1.130822164e-17
1.313200127e-17
1.504770381e-17
1.70917499e-17
1.936879061e-17
2.186465183e-17
2.461982794e-17
2.786946727e-17
3.163337724e-17
3.595286844e-17
4.14477566e-17
4.797579769e-17
5.590700918e-17
6.643912674e-17
7.902967331e-17
9.650408787e-17
1.181055647e-16
1.478781259e-16
1.863456329e-16
2.402479397e-16
3.112261921e-16
4.150068864e-16
5.499791932e-16
7.640982512e-16
1.05252594e-15
1.482679837e-15
2.133154463e-15
3.042016034e-15
1.431367958e-13
4.84602864e-13
7.135144215e-12
1.05307056e-10
1.866803116e-09
2.110968859e-08
1.818169176e-07
1.036337433e-06
4.832190444e-18
6.436681718e-18
8.085499527e-18
9.787426593e-18
1.155756343e-17
1.341295709e-17
1.537088384e-17
1.746837849e-17
1.977169324e-17
2.231036765e-17
2.514705014e-17
2.843585492e-17
3.225676493e-17
3.673016137e-17
4.225413639e-17
4.891609815e-17
5.710561533e-17
6.76800794e-17
8.07673838e-17
9.830770349e-17
1.205846362e-16
1.506850502e-16
1.902019329e-16
2.447346783e-16
3.177964512e-16
4.223351993e-16
5.627338942e-16
7.777524195e-16
1.073912487e-15
1.51291426e-15
2.170348178e-15
3.102494112e-15
1.57173967e-13
5.02324456e-13
7.551652526e-12
1.124375079e-10
2.056045395e-09
2.2649588e-08
1.936973003e-07
1.091892541e-06
4.936661955e-18
6.578112559e-18
8.264195472e-18
1.000366127e-17
1.181027199e-17
1.370190615e-17
1.570135128e-17
1.784502708e-17
2.018604741e-17
2.277200415e-17
2.567489288e-17
2.901699147e-17
3.290692612e-17
3.749802625e-17
4.309268777e-17
4.9890209e-17
5.829205922e-17
6.899911245e-17
8.247125302e-17
1.002101298e-16
1.230559905e-16
1.536066218e-16
1.940626741e-16
2.494204892e-16
3.243277198e-16
4.301810429e-16
5.751847391e-16
7.921538895e-16
1.095568633e-15
1.543285421e-15
2.209229628e-15
3.163654523e-15
1.712722178e-13
5.204753202e-13
7.979013553e-12
1.196381179e-10
2.245974379e-09
2.420768727e-08
2.065781266e-07
1.14786949e-06
5.042184088e-18
6.721170208e-18
8.445048019e-18
1.022252145e-17
1.206703987e-17
1.399721292e-17
1.603820865e-17
1.822619031e-17
2.06101821e-17
2.324577568e-17
2.620947263e-17
2.961192941e-17
3.35761878e-17
3.827016501e-17
4.395657982e-17
5.08914405e-17
5.948531368e-17
7.037013454e-17
8.417304176e-17
1.021832562e-16
1.255460061e-16
1.566189728e-16
1.979600433e-16
2.542655052e-16
3.308936945e-16
4.384186981e-16
5.875050753e-16
8.07170714e-16
1.117531929e-15
1.573934387e-15
2.249596112e-15
3.22556788e-15
1.854694446e-13
5.390450182e-13
8.416502146e-12
1.419751527e-10
2.436842577e-09
2.724216803e-08
2.25298057e-07
1.206646138e-06
5.149032086e-18
6.86612947e-18
8.628420135e-18
1.044461196e-17
1.232818988e-17
1.429832589e-17
1.638138367e-17
1.861370515e-17
2.104348041e-17
2.37303189e-17
2.675345235e-17
3.022018578e-17
3.426157485e-17
3.905305204e-17
4.484257188e-17
5.19168117e-17
6.069460958e-17
7.178065621e-17
8.588954794e-17
1.04212708e-16
1.280693183e-16
1.597096035e-16
2.019131922e-16
2.592475889e-16
3.375389644e-16
4.469689406e-16
5.998132615e-16
8.227128946e-16
1.139833932e-15
1.604965478e-15
2.291295802e-15
3.288296945e-15
1.997968367e-13
5.580242927e-13
8.863547812e-12
1.834815914e-10
2.628867851e-09
3.053735028e-08
2.442006657e-07
1.275624274e-06
5.257396204e-18
7.013238524e-18
8.814628599e-18
1.06703217e-17
1.259395521e-17
1.460515308e-17
1.673103663e-17
1.90084033e-17
2.148578654e-17
2.422522568e-17
2.730805392e-17
3.084159652e-17
3.496207045e-17
3.984984142e-17
4.574918802e-17
5.296508496e-17
6.192454358e-17
7.322490567e-17
8.762986941e-17
1.062913525e-16
1.306342833e-16
1.628722982e-16
2.059338445e-16
2.643548531e-16
3.442905868e-16
4.557824816e-16
6.121907e-16
8.38719696e-16
1.162501603e-15
1.636456163e-15
2.334215797e-15
3.351898249e-15
2.142799244e-13
5.774045011e-13
9.319732707e-12
2.25428218e-10
2.822217233e-09
3.386711865e-08
2.632844081e-07
1.345149055e-06
5.36742509e-18
7.162707055e-18
9.003934778e-18
1.089993925e-17
1.286455159e-17
1.491779258e-17
1.708738633e-17
1.941073677e-17
2.193715136e-17
2.473046625e-17
2.787390672e-17
3.147619377e-17
3.567746064e-17
4.066215803e-17
4.667583357e-17
5.403585003e-17
6.317752534e-17
7.470042105e-17
8.939913541e-17
1.084158845e-16
1.332459085e-16
1.661043141e-16
2.100294852e-16
2.695813112e-16
3.511651594e-16
4.648292804e-16
6.246939579e-16
8.551508418e-16
1.185558296e-15
1.668464445e-15
2.378272995e-15
3.416423376e-15
2.289393654e-13
8.594240197e-13
9.784731519e-12
2.678262094e-10
3.055007512e-09
3.723107081e-08
2.825478893e-07
1.415224657e-06
5.47924173e-18
7.314711771e-18
9.196557242e-18
1.113370269e-17
1.314019078e-17
1.523641789e-17
1.745066274e-17
1.982101566e-17
2.239772123e-17
2.524616427e-17
2.845140319e-17
3.212412333e-17
3.640785411e-17
4.149092228e-17
4.762236264e-17
5.5129099e-17
6.445494397e-17
7.620636756e-17
9.12004266e-17
1.10585027e-16
1.359074218e-16
1.694048272e-16
2.142051755e-16
2.749243641e-16
3.581731152e-16
4.740916606e-16
6.373629133e-16
8.719803869e-16
1.209024499e-15
1.701034272e-15
2.423407021e-15
3.481919255e-15
2.437936465e-13
1.201178266e-12
1.025825056e-11
3.106860005e-10
3.624199925e-09
4.062899714e-08
3.019896901e-07
1.485853919e-06
5.592951478e-18
7.469404691e-18
9.39268478e-18
1.137182173e-17
1.342108073e-17
1.55612304e-17
1.78210957e-17
2.023949854e-17
2.286768886e-17
2.577250931e-17
2.904084636e-17
3.27855955e-17
3.715348675e-17
4.233673198e-17
4.858886467e-17
5.624502825e-17
6.575772105e-17
7.774270882e-17
9.303576533e-17
1.127985831e-16
1.386211113e-16
1.72774073e-16
2.184645879e-16
2.803833581e-16
3.653213158e-16
4.835598822e-16
6.502262346e-16
8.891924431e-16
1.232918422e-15
1.73419953e-15
2.469574681e-15
3.548428518e-15
2.588587892e-13
1.549433092e-12
1.472638389e-11
3.540248568e-10
4.198295899e-09
4.406044204e-08
3.216084773e-07
1.557038634e-06
5.708647207e-18
7.626920224e-18
9.592485905e-18
1.161448834e-17
1.370742437e-17
1.589244005e-17
1.81989132e-17
2.066642661e-17
2.334727134e-17
2.630972263e-17
2.964250995e-17
3.346085775e-17
3.791464451e-17
4.320004033e-17
4.957555809e-17
5.738394519e-17
6.708657128e-17
7.93098003e-17
9.490662758e-17
1.150569345e-16
1.413887737e-16
1.76212873e-16
2.22810599e-16
2.85958763e-16
3.726146052e-16
4.932292968e-16
6.633050697e-16
9.067781918e-16
1.257256458e-15
1.767987025e-15
2.516745445e-15
1.124179772e-14
2.741486427e-13
1.90414446e-12
2.040161772e-11
3.978556586e-10
4.777520914e-09
4.752501109e-08
3.414026729e-07
1.629178395e-06
5.8264129e-18
7.787380431e-18
9.796115287e-18
1.186188259e-17
1.399941934e-17
1.623025809e-17
1.858434164e-17
2.110203649e-17
2.383670008e-17
2.685804334e-17
3.025666226e-17
3.415018024e-17
3.869163467e-17
4.408123933e-17
5.058273682e-17
5.854622354e-17
6.844212403e-17
8.090819115e-17
9.681420866e-17
1.173607762e-16
1.442119526e-16
1.797223736e-16
2.272456308e-16
2.916517082e-16
3.800567319e-16
5.030985228e-16
6.766155311e-16
9.247337923e-16
1.282053561e-15
1.802418545e-15
2.564901167e-15
2.234475305e-14
2.896748103e-13
2.265292865e-12
2.617011773e-11
4.421892805e-10
5.362063244e-09
5.102231199e-08
3.672278944e-07
1.712532979e-06
5.946326205e-18
7.950898754e-18
1.000371809e-17
1.211417622e-17
1.429725853e-17
1.657489468e-17
1.897760661e-17
2.154656494e-17
2.433621606e-17
2.741772268e-17
3.088357537e-17
3.485384865e-17
3.948477622e-17
4.498069918e-17
5.161074282e-17
5.973228111e-17
6.982497955e-17
8.253852835e-17
9.875956154e-17
1.197109767e-16
1.470920654e-16
1.833039036e-16
2.317718496e-16
2.974637229e-16
3.876508884e-16
5.131682788e-16
6.901703689e-16
9.430589166e-16
1.307323558e-15
1.837512526e-15
2.614033052e-15
3.363081568e-14
3.054472474e-13
2.632869315e-12
3.203086109e-11
4.870356786e-10
5.952066793e-09
5.455217833e-08
3.962951041e-07
1.796534791e-06
6.068460263e-18
8.117582646e-18
1.021543293e-17
1.237153515e-17
1.460113106e-17
1.692655851e-17
1.937893357e-17
2.200025061e-17
2.484606757e-17
2.798902137e-17
3.152352837e-17
3.557216068e-17
4.029439748e-17
4.589878711e-17
5.265995186e-17
6.094256831e-17
7.123573448e-17
8.420151085e-17
1.007436695e-16
1.221085033e-16
1.500304708e-16
1.869588969e-16
2.363912826e-16
3.033965925e-16
3.954000225e-16
5.23440639e-16
7.039800989e-16
9.617557233e-16
1.333079404e-15
1.87328518e-15
2.664138502e-15
4.510570109e-14
3.214747549e-13
3.006874259e-12
3.798313823e-11
5.324040376e-10
6.547633303e-09
6.030782232e-08
4.256184168e-07
1.881179785e-06
6.192885022e-18
8.287535438e-18
1.043139398e-17
1.263412135e-17
1.491122333e-17
1.728545723e-17
1.97885485e-17
2.246333488e-17
2.536650904e-17
2.857220833e-17
3.217680851e-17
3.630542462e-17
4.112083609e-17
4.68358763e-17
5.373076579e-17
6.217756182e-17
7.267499316e-17
8.589786811e-17
1.027674844e-16
1.245543827e-16
1.530285038e-16
1.906888515e-16
2.41105888e-16
3.094522798e-16
4.033070119e-16
5.3391856e-16
7.180537616e-16
9.808281374e-16
1.359333406e-15
1.909751284e-15
2.715219839e-15
5.677488477e-14
3.377651953e-13
3.38731631e-12
4.402646635e-11
5.783022488e-10
7.148908615e-09
6.675559388e-08
4.551964208e-07
1.96646392e-06
6.319668201e-18
8.460857701e-18
1.065173254e-17
1.290209426e-17
1.522772014e-17
1.765179817e-17
2.020667856e-17
2.29360622e-17
2.589780061e-17
2.916756007e-17
3.28437114e-17
3.705395876e-17
4.196443967e-17
4.779235019e-17
5.482360833e-17
6.34377609e-17
7.414337259e-17
8.762835037e-17
1.048319473e-16
1.270496804e-16
1.560874957e-16
1.944953086e-16
2.459175981e-16
3.156328813e-16
4.113747599e-16
5.446055816e-16
7.323994351e-16
1.000281348e-15
1.386097389e-15
1.94692474e-15
2.767283253e-15
6.864362364e-14
3.5432567e-13
3.774210857e-12
5.016051908e-11
6.247370662e-10
7.756033602e-09
7.326319406e-08
4.850272013e-07
2.052381788e-06
6.448876016e-18
8.637648259e-18
1.087657815e-17
1.317561194e-17
1.555080566e-17
1.802578907e-17
2.063355263e-17
2.341868048e-17
2.644020792e-17
2.977536037e-17
3.352454118e-17
3.781809124e-17
4.282556648e-17
4.876860453e-17
5.593892255e-17
6.472368505e-17
7.564150443e-17
8.939372447e-17
1.069379999e-16
1.295954897e-16
1.592087841e-16
1.983798426e-16
2.508283464e-16
3.219406048e-16
4.196062444e-16
5.555056378e-16
7.470245796e-16
1.020121458e-15
1.413382846e-15
1.984818987e-15
2.820337965e-15
8.071698512e-14
3.711626654e-13
4.167578929e-12
5.638505672e-11
6.717137821e-10
8.369125946e-09
7.983080574e-08
5.151087486e-07
2.140291108e-06
6.580573728e-18
8.818004966e-18
1.110605956e-17
1.345483205e-17
1.588066424e-17
1.840763877e-17
2.106940191e-17
2.391144146e-17
2.699400215e-17
3.039590016e-17
3.421961054e-17
3.859816015e-17
4.370458595e-17
4.976504828e-17
5.707716935e-17
6.603587253e-17
7.717003582e-17
9.119477227e-17
1.090865906e-16
1.321929265e-16
1.62393719e-16
2.023440569e-16
2.558400847e-16
3.283777556e-16
4.280045416e-16
5.66622939e-16
7.619362717e-16
1.040355239e-15
1.441201055e-15
2.023447271e-15
2.87439559e-15
9.299987238e-14
3.882821725e-13
4.567446566e-12
6.269984858e-11
7.192354994e-10
8.988281594e-09
8.645859746e-08
5.454389835e-07
2.236208161e-06
6.714826072e-18
9.002025316e-18
1.134030543e-17
1.373991257e-17
1.621748123e-17
1.879755795e-17
2.151446046e-17
2.441460102e-17
2.755946018e-17
3.102947761e-17
3.492924079e-17
3.939451366e-17
4.460187906e-17
5.078210405e-17
5.82388265e-17
6.737487931e-17
7.872962962e-17
9.303229032e-17
1.112786784e-16
1.348431264e-16
1.656436673e-16
2.063895834e-16
2.609547951e-16
3.349467299e-16
4.365728352e-16
5.779618987e-16
7.771413616e-16
1.060989965e-15
1.469563177e-15
2.062822845e-15
2.929469635e-15
1.054970466e-13
4.056897902e-13
4.97384539e-12
6.910459201e-11
7.763287018e-10
9.801519366e-09
9.314667801e-08
5.829874013e-07
2.332823153e-06
6.851697601e-18
9.189806936e-18
1.157944493e-17
1.403101248e-17
1.656144356e-17
1.919575964e-17
2.196896572e-17
2.492841964e-17
2.813686478e-17
3.167639821e-17
3.565376202e-17
4.020751015e-17
4.551783859e-17
5.182020824e-17
5.942438798e-17
6.874127844e-17
8.032096462e-17
9.490709001e-17
1.135152354e-16
1.375472446e-16
1.689600149e-16
2.105180833e-16
2.661744977e-16
3.416500105e-16
4.453144184e-16
5.895270894e-16
7.926465809e-16
1.082033296e-15
1.498480333e-15
2.10295909e-15
2.985575114e-15
1.182131461e-13
4.233908127e-13
5.386814255e-12
7.559890866e-11
9.459766606e-10
1.126010983e-08
9.989551399e-08
6.245606748e-07
2.430130625e-06
6.991252958e-18
9.381447983e-18
1.182360826e-17
1.432829234e-17
1.691274039e-17
1.960245986e-17
2.2433159e-17
2.545316272e-17
2.872650494e-17
3.2336975e-17
3.639351324e-17
4.103751839e-17
4.645286931e-17
5.287981105e-17
6.063436353e-17
7.013565953e-17
8.194473554e-17
9.681999798e-17
1.157972481e-16
1.403064551e-16
1.723441689e-16
2.147312485e-16
2.715012562e-16
3.484901638e-16
4.542326929e-16
6.013232151e-16
8.084586161e-16
1.103493202e-15
1.527963665e-15
2.143869607e-15
3.042728236e-15
1.311527024e-13
4.413902785e-13
5.806393069e-12
8.218351343e-11
1.117586339e-09
1.273339633e-08
1.067051846e-07
6.664740205e-07
2.528122238e-06
7.13355711e-18
9.577047489e-18
1.207292704e-17
1.463191472e-17
1.727156354e-17
2.001787805e-17
2.290728591e-17
2.598910099e-17
2.932867611e-17
3.301152876e-17
3.714884256e-17
4.188491771e-17
4.740738809e-17
5.396137653e-17
6.186927837e-17
7.15586285e-17
8.360165321e-17
9.877185661e-17
1.181257192e-16
1.431219517e-16
1.7579756e-16
2.190308037e-16
2.769371824e-16
3.554698385e-16
4.633311658e-16
6.133550961e-16
8.245841592e-16
1.125377907e-15
1.55802439e-15
2.185568261e-15
3.100946163e-15
1.443201515e-13
4.596930183e-13
6.232627744e-12
8.885913227e-11
1.291184211e-09
1.422139284e-08
1.154593161e-07
7.087279092e-07
2.626794794e-06
7.278675541e-18
9.776705644e-18
1.232753468e-17
1.494204466e-17
1.7638108e-17
2.044223756e-17
2.339159684e-17
2.653651092e-17
2.994368056e-17
3.370038829e-17
3.792010742e-17
4.275009815e-17
4.838182403e-17
5.506538253e-17
6.312967299e-17
7.301080739e-17
8.529244471e-17
1.007635246e-16
1.205016685e-16
1.459949486e-16
1.793216439e-16
2.234185084e-16
2.824844386e-16
3.625917638e-16
4.726134468e-16
6.256276605e-16
8.410299431e-16
1.147695861e-15
1.588673833e-15
2.228069204e-15
3.160246811e-15
1.577198404e-13
4.783036874e-13
6.665567684e-12
9.562649149e-11
1.466795908e-09
1.572417562e-08
1.271167052e-07
7.51321657e-07
2.728747903e-06
7.426674411e-18
9.980524047e-18
1.258756674e-17
1.525885e-17
1.801257231e-17
2.087576609e-17
2.388634732e-17
2.709567506e-17
3.057182769e-17
3.440389067e-17
3.870767479e-17
4.363346067e-17
4.937661859e-17
5.619232073e-17
6.441610306e-17
7.449283434e-17
8.701785355e-17
1.027958773e-16
1.229261336e-16
1.489266816e-16
1.829179028e-16
2.278961588e-16
2.881452404e-16
3.698587486e-16
4.820832456e-16
6.381459399e-16
8.578027671e-16
1.170455713e-15
1.619923456e-15
2.271386882e-15
3.220648675e-15
1.713560266e-13
4.972267707e-13
7.105263654e-12
1.024862973e-10
1.644444531e-09
1.724192777e-08
1.388782192e-07
7.942531345e-07
2.833823863e-06
7.577620707e-18
1.018860593e-17
1.285316115e-17
1.558250179e-17
1.839515894e-17
2.131869603e-17
2.439179844e-17
2.766688241e-17
3.121343436e-17
3.512238154e-17
3.951192141e-17
4.453541728e-17
5.039222568e-17
5.734269668e-17
6.572913943e-17
7.600536355e-17
8.877863994e-17
1.048698077e-16
1.254001712e-16
1.519184088e-16
1.865878475e-16
2.324655896e-16
2.939218584e-16
3.77273681e-16
4.917443699e-16
6.509150681e-16
8.749095147e-16
1.193666297e-15
1.651784879e-15
2.315536017e-15
3.282170672e-15
1.852328649e-13
5.164665617e-13
7.551764986e-12
1.094391986e-10
1.824152018e-09
1.877480178e-08
1.507436543e-07
8.378508316e-07
2.939614326e-06
7.731582363e-18
1.040105635e-17
1.312445854e-17
1.591317454e-17
1.878607464e-17
2.177126486e-17
2.490821721e-17
2.82504288e-17
3.186882522e-17
3.585621539e-17
4.033323405e-17
4.545639128e-17
5.14291118e-17
5.851702988e-17
6.706936809e-17
7.754906544e-17
9.057558107e-17
1.069862265e-16
1.279248578e-16
1.549714119e-16
1.903330181e-16
2.371286758e-16
2.998166195e-16
3.848395277e-16
5.016007241e-16
6.639402812e-16
8.923571677e-16
1.217336628e-15
1.684269884e-15
2.360531568e-15
3.344831981e-15
1.993543755e-13
5.360271189e-13
8.005115423e-12
1.164857291e-10
2.005939113e-09
2.032292397e-08
1.627127257e-07
8.933701449e-07
3.046118364e-06
7.888628379e-18
1.061798237e-17
1.340160244e-17
1.625104653e-17
1.918553077e-17
2.22337155e-17
2.543587692e-17
2.884661722e-17
3.253833301e-17
3.660575585e-17
4.117200973e-17
4.639681743e-17
5.248775624e-17
5.971585387e-17
6.843739034e-17
7.912462674e-17
9.240947144e-17
1.091460633e-16
1.305012906e-16
1.580869974e-16
1.941549865e-16
2.418873344e-16
3.058319088e-16
3.925593339e-16
5.116563081e-16
6.77226919e-16
9.101528159e-16
1.241475892e-15
1.71739042e-15
2.406388657e-15
3.408651864e-15
2.137243778e-13
5.559122007e-13
8.465347567e-12
1.236261085e-10
2.189825664e-09
2.188637335e-08
1.747863436e-07
9.493221298e-07
3.153335059e-06
8.048828917e-18
1.083949323e-17
1.368473951e-17
1.659630009e-17
1.959374361e-17
2.270629664e-17
2.597505749e-17
2.945575815e-17
3.322229893e-17
3.737137601e-17
4.202865599e-17
4.73571422e-17
5.356865118e-17
6.093971638e-17
6.983382285e-17
8.073275074e-17
9.428112326e-17
1.113502666e-16
1.331305883e-16
1.612664974e-16
1.980553568e-16
2.467435258e-16
3.1197017e-16
4.00436223e-16
5.219152169e-16
6.907804265e-16
9.283036658e-16
1.266093443e-15
1.751158598e-15
2.45312243e-15
3.473649498e-15
2.283463762e-13
5.76124986e-13
8.932475835e-12
1.642784174e-10
2.375831926e-09
2.346517461e-08
1.86965339e-07
1.00570612e-06
3.261292668e-06
8.212255401e-18
1.106570052e-17
1.397401974e-17
1.694912182e-17
2.001093462e-17
2.318926303e-17
2.652604576e-17
3.007816991e-17
3.392107293e-17
3.815345867e-17
4.290359119e-17
4.833782399e-17
5.467230196e-17
6.21891795e-17
7.125929792e-17
8.237415753e-17
9.619136681e-17
1.135998046e-16
1.358138924e-16
1.645112712e-16
2.020357673e-16
2.516992552e-16
3.182339071e-16
4.084733972e-16
5.323816412e-16
7.046063564e-16
9.468170473e-16
1.29119881e-15
1.785586704e-15
2.500747813e-15
3.539843553e-15
2.43223358e-13
8.502626298e-13
9.406602306e-12
2.056864505e-10
2.56395099e-09
2.574445525e-08
1.992504718e-07
1.062522296e-06
3.370273582e-06
8.378980602e-18
1.129671828e-17
1.426959667e-17
1.730970289e-17
2.043733075e-17
2.368287583e-17
2.708913588e-17
3.0714179e-17
3.463501404e-17
3.895239671e-17
4.379724475e-17
4.933933339e-17
5.579922726e-17
6.34648199e-17
7.271446362e-17
8.404958428e-17
9.814105088e-17
1.158956664e-16
1.385523675e-16
1.678227059e-16
2.060978915e-16
2.56756574e-16
3.246256853e-16
4.166741376e-16
5.430598674e-16
7.187103715e-16
9.657004205e-16
1.316801694e-15
1.820687259e-15
2.549279018e-15
9.702496666e-15
2.583597235e-13
1.204142547e-12
9.887791454e-12
2.476398065e-10
2.754183128e-09
2.907524921e-08
2.157624069e-07
1.119773151e-06
3.479962025e-06
8.549078721e-18
1.153266317e-17
1.457162758e-17
1.767823923e-17
2.087316473e-17
2.41874029e-17
2.766462958e-17
3.13641204e-17
3.53644907e-17
3.976859334e-17
4.471005748e-17
5.036215343e-17
5.694995936e-17
6.476722903e-17
7.41999841e-17
8.575978556e-17
1.001310433e-16
1.182388617e-16
1.413472025e-16
1.712022179e-16
2.102434396e-16
2.61917581e-16
3.311481315e-16
4.250418048e-16
5.539542785e-16
7.330982473e-16
9.84961381e-16
1.342911984e-15
1.856472995e-15
2.598731856e-15
2.079999529e-14
2.737599105e-13
1.563764338e-12
1.050637377e-11
2.901415553e-10
2.946539384e-09
3.24386555e-08
2.35070577e-07
1.177457863e-06
3.590358311e-06
8.722625464e-18
1.177365462e-17
1.488027366e-17
1.805493177e-17
2.13186753e-17
2.470311907e-17
2.825283652e-17
3.202833792e-17
3.610988109e-17
4.060246248e-17
4.564248185e-17
5.140677987e-17
5.812504441e-17
6.609701346e-17
7.571653989e-17
8.750553377e-17
1.021622314e-16
1.206304222e-16
1.441996113e-16
1.746512537e-16
2.144741596e-16
2.671844238e-16
3.378039363e-16
4.335798397e-16
5.650693554e-16
7.477758753e-16
1.004607666e-15
1.369539752e-15
1.892956897e-15
2.649123744e-15
3.210097603e-14
2.8942806e-13
1.929162707e-12
1.624485344e-11
3.331944195e-10
3.414430229e-09
3.583520372e-08
2.545442764e-07
1.244614046e-06
3.701466699e-06
8.899698123e-18
1.201981494e-17
1.51957002e-17
1.843998671e-17
2.17741075e-17
2.523030646e-17
2.885407457e-17
3.270718451e-17
3.687157344e-17
4.145442902e-17
4.659498233e-17
5.247372152e-17
5.932504272e-17
6.745479508e-17
7.72648282e-17
8.928761946e-17
1.042355224e-16
1.230714021e-16
1.471108341e-16
1.781712911e-16
2.187918384e-16
2.725592998e-16
3.445958541e-16
4.422917643e-16
5.764096779e-16
7.627492653e-16
1.02464716e-15
1.396695272e-15
1.930152277e-15
2.700472281e-15
4.360887837e-14
3.053682292e-13
2.300427445e-12
2.206770281e-11
3.768021244e-10
3.984476212e-09
3.926511472e-08
2.741838047e-07
1.315652454e-06
3.813285873e-06
9.080375644e-18
1.227126944e-17
1.551807678e-17
1.883361567e-17
2.223971292e-17
2.576925479e-17
2.946867015e-17
3.34010226e-17
3.76499664e-17
4.232492923e-17
4.756803568e-17
5.356350055e-17
6.055052907e-17
6.88412115e-17
7.884556328e-17
9.110685184e-17
1.063518442e-16
1.255628788e-16
1.500821378e-16
1.817638403e-16
2.231983032e-16
2.780444577e-16
3.515267049e-16
4.511811831e-16
5.879799266e-16
7.780245494e-16
1.0450879e-15
1.424389021e-15
1.968072747e-15
2.752795347e-15
5.532722933e-14
3.215845884e-13
2.677644427e-12
2.797570476e-11
4.209701529e-10
4.560891841e-09
4.272847135e-08
2.939898979e-07
1.387218236e-06
3.921817192e-06
9.264738699e-18
1.25281466e-17
1.584757743e-17
1.923603599e-17
2.271574998e-17
2.632026163e-17
3.009695857e-17
3.411022444e-17
3.844546935e-17
4.321441102e-17
4.856213136e-17
5.46766528e-17
6.180209306e-17
7.025691638e-17
8.045947684e-17
9.296405916e-17
1.085121459e-16
1.281059534e-16
1.53114817e-16
1.854304449e-16
2.276954226e-16
2.836421984e-16
3.58599375e-16
4.602517834e-16
5.997848845e-16
7.936079844e-16
1.06593808e-15
1.45263169e-15
2.006732201e-15
2.806111019e-15
6.725960575e-14
3.38081368e-13
3.06089735e-12
3.39697028e-11
4.657035871e-10
5.143714248e-09
4.622531269e-08
3.139630853e-07
1.459312553e-06
4.030316789e-06
9.452869753e-18
1.279057813e-17
1.618438085e-17
1.964747091e-17
2.32024842e-17
2.688363274e-17
3.07392843e-17
3.483517242e-17
3.925850276e-17
4.412333435e-17
4.95777718e-17
5.581372817e-17
6.308033945e-17
7.17025798e-17
8.210731844e-17
9.486008929e-17
1.107173982e-16
1.307017518e-16
1.562101953e-16
1.891726828e-16
2.322851077e-16
2.893548765e-16
3.658168185e-16
4.695073378e-16
6.118294387e-16
8.095059553e-16
1.087206056e-15
1.481434183e-15
2.046144814e-15
2.860437606e-15
7.940963647e-14
3.548628446e-13
3.450268468e-12
4.005053562e-11
5.110071304e-10
5.732972119e-09
4.975560602e-08
3.341036825e-07
1.531936536e-06
4.139494169e-06
9.644853137e-18
1.305869916e-17
1.652867053e-17
2.00681498e-17
2.370018841e-17
2.745968233e-17
3.139600132e-17
3.557625943e-17
4.008949854e-17
4.505217158e-17
5.061547282e-17
5.697529097e-17
6.438588856e-17
7.317888865e-17
8.378985595e-17
9.679581014e-17
1.129685943e-16
1.333514253e-16
1.593696256e-16
1.929921676e-16
2.369693135e-16
2.951849012e-16
3.731820584e-16
4.789517045e-16
6.241185829e-16
8.257249786e-16
1.108900351e-15
1.510807621e-15
2.086325031e-15
2.915793671e-15
9.178099975e-14
3.719333319e-13
3.845838534e-12
4.621902148e-11
5.568851242e-10
6.328682419e-09
5.33191979e-08
3.571863185e-07
1.605091424e-06
4.249350693e-06
9.840775111e-18
1.333264836e-17
1.688063498e-17
2.049830843e-17
2.42091431e-17
2.804873341e-17
3.206747346e-17
3.633388919e-17
4.093890043e-17
4.600140785e-17
5.1675764e-17
5.816192032e-17
6.571937666e-17
7.468654709e-17
8.550787599e-17
9.877211027e-17
1.152667501e-16
1.360561512e-16
1.625944915e-16
1.968905495e-16
2.417500397e-16
3.01134738e-16
3.80698188e-16
4.885888296e-16
6.366574189e-16
8.422717053e-16
1.131029656e-15
1.540763342e-15
2.127287564e-15
2.97219804e-15
1.043774204e-13
3.892971697e-13
4.247686624e-12
5.247593806e-11
6.033415837e-10
6.930845265e-09
5.815828662e-08
3.867339066e-07
1.686824023e-06
4.359888643e-06
1.004072394e-17
1.361256801e-17
1.724046791e-17
2.093818915e-17
2.472963666e-17
2.865111806e-17
3.275407474e-17
3.710847667e-17
4.180716434e-17
4.697154144e-17
5.275918908e-17
5.937421056e-17
6.708145639e-17
7.622627697e-17
8.726218447e-17
1.007898994e-16
1.176129056e-16
1.38817134e-16
1.658862079e-16
2.008695162e-16
2.466293323e-16
3.072069095e-16
3.883683721e-16
4.984227485e-16
6.494511596e-16
8.59152924e-16
1.153602837e-15
1.571312906e-15
2.169047392e-15
3.029669801e-15
1.172026666e-13
4.069587147e-13
4.655889987e-12
5.882198979e-11
6.503797844e-10
7.539485487e-09
6.466869404e-08
4.165293362e-07
1.772395629e-06
4.463845239e-06
1.024478994e-17
1.389860423e-17
1.760836839e-17
2.138804115e-17
2.526196564e-17
2.926717777e-17
3.34561897e-17
3.790044837e-17
4.269475879e-17
4.796308422e-17
5.386630636e-17
6.061277164e-17
6.847279723e-17
7.779881833e-17
8.905360707e-17
1.028501092e-16
1.200081248e-16
1.416356057e-16
1.692462223e-16
2.049307942e-16
2.516092843e-16
3.13403997e-16
3.961958487e-16
5.084575876e-16
6.625051307e-16
8.763755643e-16
1.176628938e-15
1.602468092e-15
2.211619754e-15
3.088228308e-15
1.302605468e-13
4.249223346e-13
5.070524068e-12
6.525775681e-11
6.980017239e-10
8.154676257e-09
7.124064464e-08
4.465724625e-07
1.858583785e-06
4.566331542e-06
1.045306559e-17
1.419090701e-17
1.798454107e-17
2.184812072e-17
2.580643507e-17
2.989726378e-17
3.417421377e-17
3.871024278e-17
4.360216526e-17
4.897656202e-17
5.499768915e-17
6.187822963e-17
6.989408593e-17
7.940492987e-17
9.088298982e-17
1.049536934e-16
1.224534968e-16
1.44512827e-16
1.726760152e-16
2.090761497e-16
2.566920375e-16
3.197286417e-16
4.041839306e-16
5.18697566e-16
6.758247733e-16
8.939466995e-16
1.200117181e-15
1.634240903e-15
2.255020145e-15
3.147893169e-15
1.435549063e-13
4.431924062e-13
5.491663299e-12
7.17836298e-11
7.462072118e-10
8.776482412e-09
7.787455438e-08
4.76863206e-07
1.94538749e-06
4.66943827e-06
1.066564555e-17
1.448963042e-17
1.836919637e-17
2.23186915e-17
2.636335877e-17
3.054173736e-17
3.490855365e-17
3.953831075e-17
4.452987862e-17
5.001251509e-17
5.615392621e-17
6.317122714e-17
7.134602702e-17
8.104538948e-17
9.275119963e-17
1.07101629e-16
1.249501366e-16
1.474500879e-16
1.761771017e-16
2.133073899e-16
2.618797832e-16
3.261835462e-16
4.123360063e-16
5.291469979e-16
6.894156466e-16
9.118735498e-16
1.224076972e-15
1.666643562e-15
2.299264304e-15
3.208684231e-15
1.570896224e-13
4.617733203e-13
5.919383578e-12
7.839972935e-11
8.729505366e-10
9.404956921e-09
8.45708503e-08
5.074012937e-07
2.032805809e-06
4.773165013e-06
1.088262677e-17
1.479493272e-17
1.876255067e-17
2.280002468e-17
2.69330596e-17
3.120097024e-17
3.565962766e-17
4.038511588e-17
4.547840759e-17
5.107149856e-17
5.733562221e-17
6.44924238e-17
7.282934332e-17
8.27209948e-17
9.465912491e-17
1.092949168e-16
1.274991857e-16
1.504487089e-16
1.797510319e-16
2.17626364e-16
2.671747639e-16
3.327714757e-16
4.206555424e-16
5.398102937e-16
7.032834297e-16
9.301634849e-16
1.2485179e-15
1.699688506e-15
2.344368197e-15
3.27062155e-15
1.708685968e-13
4.806694657e-13
6.353759583e-12
8.510685732e-11
1.04525397e-09
1.078655681e-08
9.133002322e-08
5.381860401e-07
2.120837446e-06
4.877511566e-06
1.110410855e-17
1.510697651e-17
1.916482653e-17
2.329239935e-17
2.751586982e-17
3.187534488e-17
3.642786614e-17
4.125113494e-17
4.644827512e-17
5.215408285e-17
5.854339821e-17
6.584249681e-17
7.434477644e-17
8.443256374e-17
9.660767616e-17
1.115345815e-16
1.301018128e-16
1.535100414e-16
1.833993925e-16
2.220349642e-16
2.725792741e-16
3.394952597e-16
4.291460851e-16
5.506919632e-16
7.17433925e-16
9.488240268e-16
1.273449739e-15
1.733388381e-15
2.390347976e-15
3.333725335e-15
1.848957428e-13
4.998852063e-13
6.794866031e-12
9.190613035e-11
1.219634605e-09
1.226916182e-08
9.815177641e-08
5.738165127e-07
2.21791694e-06
4.971492839e-06
1.133019261e-17
1.542592887e-17
1.95762529e-17
2.379610272e-17
2.811213141e-17
3.256525489e-17
3.721371188e-17
4.213685834e-17
4.744001893e-17
5.326085421e-17
5.977789219e-17
6.722214139e-17
7.589308738e-17
8.618093513e-17
9.859778665e-17
1.138216735e-16
1.327592146e-16
1.566354688e-16
1.871238072e-16
2.265351272e-16
2.780956621e-16
3.463577933e-16
4.378112614e-16
5.617966163e-16
7.318730597e-16
9.678628523e-16
1.298882451e-15
1.767756032e-15
2.437219923e-15
3.398015839e-15
1.991749655e-13
5.194248455e-13
7.242778318e-12
9.87986043e-11
1.396116001e-09
1.376748395e-08
1.050359213e-07
6.159976056e-07
2.316131038e-06
5.064169445e-06
1.156098316e-17
1.575196153e-17
1.999706535e-17
2.43114304e-17
2.872219636e-17
3.327110541e-17
3.80176205e-17
4.304279053e-17
4.845419191e-17
5.43924152e-17
6.103975953e-17
6.863207141e-17
7.747505706e-17
8.796696928e-17
1.00630413e-16
1.161572684e-16
1.354726169e-16
1.598264077e-16
1.909259381e-16
2.31128835e-16
2.837263309e-16
3.533620389e-16
4.466547815e-16
5.731289664e-16
7.466068892e-16
9.872877953e-16
1.32482618e-15
1.802804483e-15
2.485000306e-15
3.463513171e-15
2.137101285e-13
5.392925512e-13
7.697570527e-12