/*--------------------------------*- C++ -*----------------------------------*\
| =========                 |                                                 |
| \\      /  F ield         | OpenFOAM: The Open Source CFD Toolbox           |
|  \\    /   O peration     | Version:  v2006                                 |
|   \\  /    A nd           | Website:  www.openfoam.com                      |
|    \\/     M anipulation  |                                                 |
\*---------------------------------------------------------------------------*/
FoamFile
{
    version     2.0;
    format      ascii;
    class       volScalarField;
    location    "0.15";
    object      C2H6;
}
// * * * * * * * * * * * * * * * * * * * * * * * * * * * * * * * * * * * * * //

dimensions      [0 0 0 0 0 0 0];


internalField   nonuniform List<scalar> 
168000
(
3.122029382e-07
3.126399372e-07
3.132483118e-07
3.14147558e-07
3.161290336e-07
3.19666442e-07
3.239029411e-07
3.292492108e-07
3.39524049e-07
3.524050744e-07
3.67387732e-07
3.906492733e-07
4.205442593e-07
4.546584653e-07
5.070359919e-07
5.697585935e-07
6.463649663e-07
7.593666949e-07
8.863065349e-07
1.079389537e-06
1.307566986e-06
1.636853112e-06
2.051603347e-06
2.650755825e-06
3.417459738e-06
4.582158267e-06
6.021057003e-06
8.430130176e-06
1.157228579e-05
1.629761301e-05
2.354283699e-05
3.346761845e-05
4.875775005e-05
7.222400029e-05
0.0001052668655
0.0001511984472
0.0002166238398
0.0003074322656
0.0004259039035
0.0005768421959
3.191567793e-07
3.194109486e-07
3.199162982e-07
3.208792972e-07
3.227631992e-07
3.259167144e-07
3.302757275e-07
3.364068066e-07
3.460969167e-07
3.589200324e-07
3.752266731e-07
3.982423909e-07
4.280739863e-07
4.64893566e-07
5.163011025e-07
5.80304024e-07
6.609349612e-07
7.720870044e-07
9.071229577e-07
1.098029618e-06
1.336065334e-06
1.666566367e-06
2.095384538e-06
2.698000573e-06
3.492864395e-06
4.656254202e-06
6.170287154e-06
8.572688764e-06
1.180961821e-05
1.663738258e-05
2.393816685e-05
3.413947162e-05
4.9730637e-05
7.342296769e-05
0.0001069238861
0.0001536944661
0.0002200105586
0.0003115055708
0.0004309536601
0.0005830160293
3.260561245e-07
3.262493447e-07
3.266966916e-07
3.27645126e-07
3.294523524e-07
3.324565533e-07
3.369044439e-07
3.433719688e-07
3.529180182e-07
3.658492861e-07
3.828797599e-07
4.060326692e-07
4.362024146e-07
4.746396278e-07
5.261131102e-07
5.91429612e-07
6.748861693e-07
7.863150192e-07
9.268582095e-07
1.118389599e-06
1.363931631e-06
1.698056882e-06
2.138594772e-06
2.748258965e-06
3.566464116e-06
4.738363144e-06
6.31324539e-06
8.725776263e-06
1.204946014e-05
1.697653579e-05
2.43554502e-05
3.481807308e-05
5.070457021e-05
7.465254074e-05
0.0001086288856
0.0001562145601
0.0002234038605
0.000315630918
0.0004360550972
0.0005892351525
3.329839548e-07
3.331546659e-07
3.335667848e-07
3.34486338e-07
3.362435344e-07
3.391924174e-07
3.437057003e-07
3.503496071e-07
3.599257044e-07
3.730342993e-07
3.905474519e-07
4.140098784e-07
4.446806707e-07
4.842642842e-07
5.363028019e-07
6.029562268e-07
6.886818963e-07
8.014336995e-07
9.462037768e-07
1.139857978e-06
1.391707591e-06
1.730826849e-06
2.181850424e-06
2.800742237e-06
3.639621903e-06
4.826267184e-06
6.452792312e-06
8.887237393e-06
1.229232236e-05
1.731721671e-05
2.479166515e-05
3.55043274e-05
5.168273884e-05
7.591189555e-05
0.0001103783093
0.0001587594489
0.0002268094753
0.0003198050218
0.0004412077198
0.0005955014985
3.399782426e-07
3.40138353e-07
3.405275878e-07
3.414221718e-07
3.431504079e-07
3.460845903e-07
3.506529109e-07
3.574180592e-07
3.670959447e-07
3.804124085e-07
3.983144477e-07
4.221665307e-07
4.534061946e-07
4.93937801e-07
5.467896067e-07
6.148009864e-07
7.025458403e-07
8.171425262e-07
9.655199793e-07
1.162117566e-06
1.419688766e-06
1.764608779e-06
2.225511594e-06
2.855003543e-06
3.713163267e-06
4.918556951e-06
6.590871076e-06
9.055592642e-06
1.253862532e-05
1.766100807e-05
2.524453702e-05
3.619902628e-05
5.266777215e-05
7.720030773e-05
0.0001121691887
0.0001613299483
0.0002302319306
0.0003240256879
0.0004464115147
0.0006018115137
3.470581651e-07
3.472121297e-07
3.475860211e-07
3.484631056e-07
3.501774007e-07
3.531168595e-07
3.577381897e-07
3.64607933e-07
3.744196298e-07
3.879595916e-07
4.062170288e-07
4.30498683e-07
4.623385063e-07
5.037403256e-07
5.57535536e-07
6.269264421e-07
7.16586867e-07
8.332975472e-07
9.849970906e-07
1.185006062e-06
1.448038913e-06
1.799262472e-06
2.269792401e-06
2.910794638e-06
3.787587521e-06
5.014344216e-06
6.728808288e-06
9.229832777e-06
1.278872235e-05
1.800908019e-05
2.571236189e-05
3.690287342e-05
5.366183401e-05
7.851713482e-05
0.0001139991882
0.0001639270548
0.000233675133
0.0003282919798
0.0004516660908
0.0006081505752
3.542358599e-07
3.543859674e-07
3.547496148e-07
3.556161048e-07
3.573270336e-07
3.602833823e-07
3.649599448e-07
3.71931823e-07
3.818938139e-07
3.956673479e-07
4.142713547e-07
4.390051234e-07
4.714631595e-07
5.137106896e-07
5.685233365e-07
6.393166473e-07
7.308591109e-07
8.498320872e-07
1.00473794e-06
1.208442791e-06
1.476851345e-06
1.834718067e-06
2.314823784e-06
2.967982075e-06
3.863197507e-06
5.113076279e-06
6.867516198e-06
9.409276626e-06
1.304291534e-05
1.836230206e-05
2.619387269e-05
3.761650266e-05
5.466669567e-05
7.986177699e-05
0.0001158665972
0.0001665517038
0.0002371420773
0.0003326030503
0.0004569710185
0.000614539873
3.615204416e-07
3.616681815e-07
3.620252435e-07
3.628866736e-07
3.646018533e-07
3.675829971e-07
3.723188567e-07
3.793955999e-07
3.895182333e-07
4.035334395e-07
4.224853173e-07
4.476864189e-07
4.807764487e-07
5.238687093e-07
5.797460146e-07
6.519659149e-07
7.453908071e-07
8.667175144e-07
1.024800312e-06
1.232390187e-06
1.506181816e-06
1.870944561e-06
2.360689211e-06
3.026498488e-06
3.940178855e-06
5.214416162e-06
7.007628613e-06
9.593472375e-06
1.330146577e-05
1.87213242e-05
2.668813666e-05
3.834049237e-05
5.568379027e-05
8.12337603e-05
0.0001177700839
0.0001692045944
0.0002406351193
0.0003369583786
0.0004623259102
0.0006209797908
3.689193789e-07
3.690658261e-07
3.694190086e-07
3.702796526e-07
3.720047665e-07
3.7501673e-07
3.798165619e-07
3.870027185e-07
3.972938837e-07
4.11558213e-07
4.308634867e-07
4.565442036e-07
4.902790074e-07
5.34225426e-07
5.912017509e-07
6.648735517e-07
7.60198055e-07
8.839438758e-07
1.045218746e-06
1.256833517e-06
1.536066124e-06
1.907932408e-06
2.407444999e-06
3.086314435e-06
4.018648111e-06
5.318165451e-06
7.14959223e-06
9.782128863e-06
1.356460307e-05
1.908663939e-05
2.719447601e-05
3.907536867e-05
5.671440034e-05
8.263274093e-05
0.0001197084457
0.0001718863797
0.0002441565642
0.0003413576932
0.0004677303714
0.0006274705898
3.764390743e-07
3.765850339e-07
3.769363774e-07
3.777995331e-07
3.7953898e-07
3.825866773e-07
3.874551969e-07
3.947558584e-07
4.05222422e-07
4.197431452e-07
4.394091619e-07
4.655807293e-07
4.999731779e-07
5.447878372e-07
6.028914073e-07
6.780413846e-07
7.752913568e-07
9.015103641e-07
1.066015771e-06
1.281770187e-06
1.56652953e-06
1.945683904e-06
2.455131906e-06
3.147422246e-06
4.098681792e-06
5.424214669e-06
7.293728068e-06
9.975067665e-06
1.383253105e-05
1.945862747e-05
2.771240577e-05
3.982160952e-05
5.775963733e-05
8.405832945e-05
0.0001216807871
0.0001745981399
0.0002477083457
0.0003458004043
0.0004731840314
0.0006340124345
3.840851818e-07
3.842312696e-07
3.845823389e-07
3.854505878e-07
3.872078877e-07
3.902954882e-07
3.952372167e-07
4.02657538e-07
4.133059048e-07
4.28090265e-07
4.481252122e-07
4.747986095e-07
5.098619615e-07
5.555610987e-07
6.148172925e-07
6.914725859e-07
7.906787043e-07
9.194206451e-07
1.087207708e-06
1.307204104e-06
1.597591775e-06
1.984207883e-06
2.503781766e-06
3.209826821e-06
4.180333798e-06
5.532511379e-06
7.440272827e-06
1.01721896e-05
1.410543323e-05
1.983758884e-05
2.824158303e-05
4.057966641e-05
5.882046196e-05
8.551034541e-05
0.0001236865628
0.0001773406808
0.0002512918589
0.0003502860012
0.0004786864515
0.0006406034666
3.918628162e-07
3.920095111e-07
3.923615286e-07
3.932369325e-07
3.950149852e-07
3.981461154e-07
4.031653057e-07
4.10710332e-07
4.215466652e-07
4.366019199e-07
4.570144172e-07
4.842006827e-07
5.199486206e-07
5.665495564e-07
6.269825429e-07
7.05171106e-07
8.063670243e-07
9.37680579e-07
1.108807677e-06
1.333142684e-06
1.629269754e-06
2.023516797e-06
2.553421308e-06
3.273540427e-06
4.26364574e-06
5.643039741e-06
7.589406745e-06
1.037345127e-05
1.438347695e-05
2.022376759e-05
2.87818038e-05
4.134999795e-05
5.989767912e-05
8.698870878e-05
0.0001257252999
0.000180114683
0.0002549082685
0.0003548139759
0.0004842369953
0.0006471957453
3.997766998e-07
3.999243817e-07
4.002783203e-07
4.011625623e-07
4.029638174e-07
4.061416897e-07
4.11242323e-07
4.189169378e-07
4.299472491e-07
4.452806773e-07
4.660796002e-07
4.937899452e-07
5.302365425e-07
5.777572361e-07
6.393908079e-07
7.191413922e-07
8.223628479e-07
9.562971187e-07
1.130827166e-06
1.359595271e-06
1.661578937e-06
2.063625122e-06
2.604074382e-06
3.338579793e-06
4.348652987e-06
5.755807431e-06
7.741272358e-06
1.057884865e-05
1.466681687e-05
2.061737014e-05
2.933296902e-05
4.213303048e-05
6.099197934e-05
8.849338259e-05
0.0001277966369
0.0001829207692
0.0002585584648
0.0003593841131
0.000489836367
0.0006538392113
4.078312691e-07
4.079802449e-07
4.083368946e-07
4.092313786e-07
4.110579505e-07
4.142854545e-07
4.194712659e-07
4.272801866e-07
4.385103777e-07
4.541292773e-07
4.753236781e-07
5.035695203e-07
5.407292027e-07
5.891880777e-07
6.520460863e-07
7.333882424e-07
8.386726163e-07
9.752777831e-07
1.15327685e-06
1.386572306e-06
1.694534116e-06
2.104548491e-06
2.655763261e-06
3.404964499e-06
4.43538815e-06
5.870837299e-06
7.895987136e-06
1.078840558e-05
1.495559794e-05
2.101857798e-05
2.989504911e-05
4.292916037e-05
6.210397306e-05
9.002436849e-05
0.0001299003229
0.0001857595142
0.0002622430771
0.000363996797
0.000495485073
0.0006605335446
4.160307523e-07
4.161812751e-07
4.165412895e-07
4.174472108e-07
4.193009603e-07
4.225807306e-07
4.278552433e-07
4.358030361e-07
4.472389216e-07
4.631506089e-07
4.847496789e-07
5.135426465e-07
5.514301636e-07
6.00846048e-07
6.649526398e-07
7.479167262e-07
8.553028172e-07
9.946304103e-07
1.176167023e-06
1.414084873e-06
1.728149805e-06
2.146303234e-06
2.708509432e-06
3.472716092e-06
4.523883036e-06
5.988162065e-06
8.053652001e-06
1.100216566e-05
1.524995774e-05
2.142755644e-05
3.046806975e-05
4.373876732e-05
6.323420559e-05
9.158170153e-05
0.0001320361872
0.0001886314117
0.0002659630079
0.0003686524925
0.0005011828415
0.0006672784257
4.243792273e-07
4.245315096e-07
4.248954399e-07
4.258138355e-07
4.27696428e-07
4.310308973e-07
4.363974574e-07
4.44488558e-07
4.561358836e-07
4.723476938e-07
4.943607456e-07
5.23712673e-07
5.623430828e-07
6.127351969e-07
6.781149451e-07
7.627321395e-07
8.722600448e-07
1.014363045e-06
1.199507833e-06
1.442144471e-06
1.762440454e-06
2.188906147e-06
2.76233407e-06
3.541857599e-06
4.614169723e-06
6.10782096e-06
8.214357066e-06
1.122018667e-05
1.555002848e-05
2.184446108e-05
3.10520999e-05
4.456221588e-05
6.438316941e-05
9.316544452e-05
0.0001342041144
0.0001915368841
0.0002697191285
0.0003733513879
0.0005069293035
0.0006740734269
4.328806652e-07
4.33034889e-07
4.334032078e-07
4.34334993e-07
4.362479424e-07
4.396393826e-07
4.451011912e-07
4.533399267e-07
4.652043848e-07
4.817236764e-07
5.041601356e-07
5.340830598e-07
5.734717214e-07
6.248596839e-07
6.915376667e-07
7.778399762e-07
8.895510247e-07
1.034483889e-06
1.223309404e-06
1.470762888e-06
1.797420563e-06
2.232374374e-06
2.817258344e-06
3.61241327e-06
4.706281104e-06
6.229857616e-06
8.378185504e-06
1.14425366e-05
1.585593863e-05
2.226944217e-05
3.164724258e-05
4.53998574e-05
6.555131433e-05
9.477568333e-05
0.0001364040195
0.0001944762627
0.000273512167
0.000378093615
0.000512724072
0.0006809036065
4.415389639e-07
4.416952873e-07
4.420684064e-07
4.430144021e-07
4.449591034e-07
4.484096587e-07
4.539697997e-07
4.623604101e-07
4.744476546e-07
4.912818153e-07
5.141512195e-07
5.446573783e-07
5.848199515e-07
6.37223792e-07
7.052256402e-07
7.932459103e-07
9.071826236e-07
1.055001285e-06
1.247581911e-06
1.49995214e-06
1.833104753e-06
2.276725364e-06
2.873303606e-06
3.684408429e-06
4.800251153e-06
6.354318739e-06
8.545216164e-06
1.166929091e-05
1.61678142e-05
2.270264784e-05
3.225362763e-05
4.625203186e-05
6.673905577e-05
9.641252433e-05
0.0001386358211
0.0001974497414
0.000277342717
0.0003828792957
0.0005185667463
0.0006877041989
4.503579739e-07
4.505165364e-07
4.508948202e-07
4.518557729e-07
4.538335272e-07
4.573452406e-07
4.630067049e-07
4.715533625e-07
4.838690228e-07
5.010254777e-07
5.243374786e-07
5.554393121e-07
5.963917611e-07
6.498319331e-07
7.19183862e-07
8.089557848e-07
9.251618532e-07
1.075923709e-06
1.272335618e-06
1.529724443e-06
1.869507805e-06
2.321976863e-06
2.930491526e-06
3.757869395e-06
4.896115025e-06
6.481253291e-06
8.715525339e-06
1.19005307e-05
1.648577989e-05
2.314422626e-05
3.287140608e-05
4.711906936e-05
6.794678194e-05
9.807609675e-05
0.000140899412
0.0002004573112
0.0002812113292
0.0003877085084
0.0005244552422
0.0006945542756
4.593415187e-07
4.595024455e-07
4.598862204e-07
4.60862818e-07
4.628748523e-07
4.664496868e-07
4.722153924e-07
4.809222196e-07
4.934719146e-07
5.109581347e-07
5.347225027e-07
5.664326577e-07
6.081912568e-07
6.62688651e-07
7.334174823e-07
8.249756029e-07
9.434958712e-07
1.097259774e-06
1.297580905e-06
1.560092201e-06
1.906644692e-06
2.368146917e-06
2.988844175e-06
3.832823432e-06
4.993909084e-06
6.610711989e-06
8.889187973e-06
1.213634133e-05
1.68099599e-05
2.359432704e-05
3.350074586e-05
4.800129148e-05
6.91748599e-05
9.97665594e-05
0.0001431946584
0.0002034992613
0.0002851188489
0.00039258159
0.0005303909454
0.0007014534495
4.684934121e-07
4.686568165e-07
4.690463789e-07
4.700392622e-07
4.720867449e-07
4.757266008e-07
4.815994105e-07
4.904704952e-07
5.032598462e-07
5.210833581e-07
5.453099892e-07
5.776413242e-07
6.202226653e-07
6.757986221e-07
7.479318004e-07
8.413115234e-07
9.621919826e-07
1.119018232e-06
1.32332829e-06
1.591068005e-06
1.944530598e-06
2.415253896e-06
3.04838409e-06
3.90929872e-06
5.093670881e-06
6.742747003e-06
9.066278479e-06
1.237681165e-05
1.714047869e-05
2.40531022e-05
3.414182827e-05
4.889901233e-05
7.042363895e-05
0.0001014840754
0.0001455218129
0.0002065763861
0.0002890657385
0.0003974985977
0.0005363752029
0.0007084011293
4.778174708e-07
4.779834569e-07
4.783790787e-07
4.793888513e-07
4.814729043e-07
4.851796337e-07
4.911623695e-07
5.002017794e-07
5.132364219e-07
5.314048175e-07
5.561037409e-07
5.890693335e-07
6.324903348e-07
6.891666553e-07
7.627322611e-07
8.579698565e-07
9.812576403e-07
1.141207979e-06
1.349588436e-06
1.622664635e-06
1.983180943e-06
2.463316508e-06
3.109134316e-06
3.987324329e-06
5.195439123e-06
6.877411781e-06
9.246871311e-06
1.262203332e-05
1.747746149e-05
2.452070671e-05
3.479484531e-05
4.981253944e-05
7.169345394e-05
0.0001032288324
0.0001478811319
0.0002096891603
0.0002930520351
0.0004024597226
0.0005424080819
0.0007153970885
4.873175267e-07
4.874861908e-07
4.878881242e-07
4.889153596e-07
4.910370684e-07
4.948124867e-07
5.009079429e-07
5.101197375e-07
5.23405333e-07
5.41926279e-07
5.671076653e-07
6.007208202e-07
6.449987346e-07
7.027976915e-07
7.778244524e-07
8.749570623e-07
1.000700447e-06
1.163838061e-06
1.376372167e-06
1.654895075e-06
2.022611399e-06
2.512353821e-06
3.171118442e-06
4.066930211e-06
5.299253644e-06
7.014760952e-06
9.431041353e-06
1.287210051e-05
1.782103475e-05
2.499729875e-05
3.545999736e-05
5.074217413e-05
7.298462758e-05
0.0001050010324
0.0001502728719
0.0002128380433
0.0002970779433
0.0004074654046
0.0005484894848
0.0007223627396
4.969974356e-07
4.97168868e-07
4.975773488e-07
4.986225965e-07
5.007830183e-07
5.046289142e-07
5.108398678e-07
5.2022811e-07
5.33770356e-07
5.526516039e-07
5.783257738e-07
6.126000309e-07
6.577524552e-07
7.166968028e-07
7.932141037e-07
8.922797488e-07
1.020528155e-06
1.186917679e-06
1.403690476e-06
1.687772513e-06
2.062837906e-06
2.562385288e-06
3.234360622e-06
4.148147179e-06
5.405155371e-06
7.154850282e-06
9.618864212e-06
1.312710959e-05
1.817132643e-05
2.548303976e-05
3.613749132e-05
5.168821147e-05
7.42974707e-05
0.000106800883
0.0001526972825
0.0002160234493
0.0003011439533
0.0004125157976
0.0005546191075
0.0007293028681
5.06861086e-07
5.070353717e-07
5.074506227e-07
5.085144127e-07
5.107145832e-07
5.14632727e-07
5.209619473e-07
5.305307127e-07
5.443353527e-07
5.635847478e-07
5.89762181e-07
6.247113242e-07
6.707562081e-07
7.308691923e-07
8.089070852e-07
9.099446722e-07
1.04074867e-06
1.210456196e-06
1.431554534e-06
1.72131036e-06
2.10387669e-06
2.613430764e-06
3.298885597e-06
4.231006907e-06
5.513186297e-06
7.297736651e-06
9.810416408e-06
1.338715898e-05
1.852846619e-05
2.597809424e-05
3.682753877e-05
5.265093943e-05
7.563228086e-05
0.0001086285856
0.0001551545928
0.0002192457718
0.0003052504737
0.000417610814
0.0005607964341
0.0007362901884
5.169124056e-07
5.170896256e-07
5.175118584e-07
5.185947056e-07
5.208356444e-07
5.248277949e-07
5.312780517e-07
5.410314377e-07
5.551042703e-07
5.747297607e-07
6.014211044e-07
6.370591704e-07
6.840148257e-07
7.453201936e-07
8.249094069e-07
9.279587366e-07
1.061370055e-06
1.234463139e-06
1.459975701e-06
1.755522256e-06
2.145744277e-06
2.66551052e-06
3.36471871e-06
4.315541915e-06
5.623389472e-06
7.443478057e-06
1.000577554e-05
1.365234911e-05
1.889258552e-05
2.648262932e-05
3.753035419e-05
5.363063661e-05
7.69893393e-05
0.0001104843193
0.0001576449913
0.0002225053824
0.0003093978429
0.0004227503316
0.0005670115489
0.0007433246391
5.271553681e-07
5.273355997e-07
5.277650171e-07
5.288674242e-07
5.311501399e-07
5.352180504e-07
5.417921209e-07
5.517342545e-07
5.660811416e-07
5.860907865e-07
6.133068643e-07
6.496481513e-07
6.975332613e-07
7.600552705e-07
8.412272185e-07
9.463289951e-07
1.082400528e-06
1.258948207e-06
1.488965531e-06
1.790422083e-06
2.18845751e-06
2.718645269e-06
3.431885921e-06
4.401785575e-06
5.735808983e-06
7.592133629e-06
1.020502037e-05
1.392278228e-05
1.926381776e-05
2.699681395e-05
3.824615299e-05
5.462756766e-05
7.83689064e-05
0.0001123682169
0.0001601685555
0.0002258026372
0.0003135862725
0.0004279347411
0.0005732750991
0.0007504061597
5.37593998e-07
5.377773159e-07
5.382141131e-07
5.393365737e-07
5.416620672e-07
5.45807491e-07
5.525081663e-07
5.626432112e-07
5.772700859e-07
5.976720639e-07
6.254238839e-07
6.624829606e-07
7.113165887e-07
7.750800174e-07
8.578668102e-07
9.650626507e-07
1.103848471e-06
1.283921277e-06
1.518535785e-06
1.826023974e-06
2.232033563e-06
2.77285617e-06
3.500413814e-06
4.489772101e-06
5.850489953e-06
7.743763648e-06
1.040823097e-05
1.419856267e-05
1.964229801e-05
2.752081729e-05
3.897514955e-05
5.564197537e-05
7.977120235e-05
0.0001142803373
0.0001627255713
0.0002291378992
0.0003178158286
0.0004331643994
0.0005795870099
0.0007575142697
5.482323763e-07
5.484188526e-07
5.488632187e-07
5.500062196e-07
5.52375488e-07
5.566001826e-07
5.63430273e-07
5.737624363e-07
5.886753097e-07
6.094779266e-07
6.377766899e-07
6.755684035e-07
7.25370003e-07
7.904001591e-07
8.748346129e-07
9.841670584e-07
1.125722428e-06
1.309392409e-06
1.548698436e-06
1.862342329e-06
2.276489951e-06
2.828164852e-06
3.570329612e-06
4.579536553e-06
5.967478542e-06
7.898429563e-06
1.061548873e-05
1.447979635e-05
2.00281633e-05
2.805480602e-05
3.971755259e-05
5.667406662e-05
8.119646992e-05
0.0001162210979
0.0001653165032
0.0002325110444
0.0003220866291
0.0004384396328
0.0005859473016
0.0007644644506
5.590746446e-07
5.592643494e-07
5.597164686e-07
5.608804913e-07
5.632945307e-07
5.676002618e-07
5.74562602e-07
5.850961399e-07
6.003011083e-07
6.215128044e-07
6.503699126e-07
6.88909398e-07
7.396988208e-07
8.060215519e-07
8.921371992e-07
1.003649726e-06
1.148031112e-06
1.335371851e-06
1.579465679e-06
1.89939182e-06
2.32184455e-06
2.884593422e-06
3.641661188e-06
4.671114842e-06
6.086821947e-06
8.056194027e-06
1.082687649e-05
1.476659133e-05
2.042155329e-05
2.859893875e-05
4.047357168e-05
5.772414633e-05
8.264501841e-05
0.0001181907623
0.0001679415546
0.0002359220777
0.0003263990232
0.0004437608061
0.0005923562532
0.0007714597535
5.701250091e-07
5.703180111e-07
5.707780635e-07
5.719635862e-07
5.744233942e-07
5.788119392e-07
5.859093927e-07
5.966486158e-07
6.121518666e-07
6.337812236e-07
6.63208287e-07
7.025109748e-07
7.543084805e-07
8.21950184e-07
9.097812851e-07
1.023518319e-06
1.17078341e-06
1.361870046e-06
1.61084994e-06
1.937187406e-06
2.368115603e-06
2.942164481e-06
3.71443707e-06
4.764543732e-06
6.208568413e-06
8.217120918e-06
1.104247856e-05
1.505905765e-05
2.082260994e-05
2.915339202e-05
4.124345191e-05
5.879252199e-05
8.411706458e-05
0.000120189483
0.0001706009178
0.000239371197
0.0003307536401
0.0004491281184
0.0005988137729
0.0007785001984
5.81387745e-07
5.815841113e-07
5.820522735e-07
5.832597726e-07
5.857663507e-07
5.902395018e-07
5.974749648e-07
6.084242432e-07
6.242320608e-07
6.462878087e-07
6.762966534e-07
7.163782783e-07
7.692045437e-07
8.38192177e-07
9.277737309e-07
1.043780659e-06
1.193988382e-06
1.388897639e-06
1.642863881e-06
1.975744341e-06
2.415321735e-06
3.000901133e-06
3.788686454e-06
4.859860845e-06
6.332767239e-06
8.381275377e-06
1.126238081e-05
1.53573074e-05
2.123147804e-05
2.971836034e-05
4.202744202e-05
5.987948048e-05
8.561275013e-05
0.0001222175801
0.0001732947629
0.0002428588333
0.0003351511655
0.0004545414445
0.0006053007552
0.0007855860567
5.928671993e-07
5.93066996e-07
5.935434423e-07
5.947733934e-07
5.973277485e-07
6.018873156e-07
6.092637207e-07
6.204274884e-07
6.365462599e-07
6.590372831e-07
6.896399585e-07
7.305165677e-07
7.843926957e-07
8.547537866e-07
9.461215438e-07
1.064444729e-06
1.217655269e-06
1.416465481e-06
1.675520414e-06
2.015078185e-06
2.463481966e-06
3.060827e-06
3.864439214e-06
4.957104676e-06
6.459468799e-06
8.548723834e-06
1.14866707e-05
1.566145487e-05
2.164830597e-05
3.02940402e-05
4.282578022e-05
6.098530284e-05
8.713244224e-05
0.0001242754924
0.0001760233229
0.0002463855491
0.0003395918853
0.0004600008677
0.0006118291527
0.0007927172447
6.04567795e-07
6.047710873e-07
6.052559897e-07
6.065088689e-07
6.091120154e-07
6.137598282e-07
6.212801477e-07
6.326629072e-07
6.490991271e-07
6.720344709e-07
7.032432569e-07
7.449312179e-07
7.998787472e-07
8.716414044e-07
9.648318793e-07
1.085518679e-06
1.241793499e-06
1.444584636e-06
1.708832704e-06
2.055204817e-06
2.512615721e-06
3.121966233e-06
3.941725915e-06
5.056314594e-06
6.58872455e-06
8.719534045e-06
1.171543739e-05
1.597161662e-05
2.207324546e-05
3.088063127e-05
4.36387108e-05
6.211027795e-05
8.867649202e-05
0.0001263634963
0.0001787869408
0.0002499516712
0.0003440759066
0.0004655065924
0.0006184060154
0.0007996280292
6.164940336e-07
6.167008859e-07
6.171944149e-07
6.184706995e-07
6.211236607e-07
6.258615713e-07
6.335288205e-07
6.451351463e-07
6.61895422e-07
6.852842981e-07
7.17111712e-07
7.596277211e-07
8.156686353e-07
8.888615599e-07
9.839120438e-07
1.107010823e-06
1.266412686e-06
1.473266389e-06
1.742814179e-06
2.096140439e-06
2.56274284e-06
3.184343522e-06
4.020577818e-06
5.157530862e-06
6.720587055e-06
8.893775124e-06
1.194877174e-05
1.628791154e-05
2.250645138e-05
3.147833528e-05
4.446648145e-05
6.325469882e-05
9.024524168e-05
0.0001284818897
0.0001815859344
0.0002535574292
0.0003486032802
0.0004710587659
0.0006250314499
0.0008065348131
6.286504987e-07
6.28860975e-07
6.293632997e-07
6.306634692e-07
6.333672787e-07
6.381971635e-07
6.460144031e-07
6.578489456e-07
6.749400018e-07
6.987917946e-07
7.312505978e-07
7.74611688e-07
8.317684252e-07
9.064209219e-07
1.003369497e-06
1.128929647e-06
1.291522639e-06
1.50252225e-06
1.77747854e-06
2.137901592e-06
2.613883595e-06
3.24798411e-06
4.101026898e-06
5.260794642e-06
6.85511e-06
9.071517579e-06
1.21867664e-05
1.661046086e-05
2.294808167e-05
3.208735663e-05
4.530934346e-05
6.441886166e-05
9.183902748e-05
0.0001306309689
0.0001844205979
0.0002572030005
0.0003531739635
0.0004766574759
0.0006317055603
0.0008134847425
6.410418587e-07
6.412560223e-07
6.417673113e-07
6.430918481e-07
6.458475509e-07
6.507713123e-07
6.587416512e-07
6.708091405e-07
6.882378236e-07
7.125620951e-07
7.456653002e-07
7.898888494e-07
8.481843122e-07
9.243263007e-07
1.023211855e-06
1.151283812e-06
1.317133366e-06
1.53236396e-06
1.812839764e-06
2.180505162e-06
2.666058692e-06
3.312913803e-06
4.183105851e-06
5.366148015e-06
6.992348215e-06
9.252833342e-06
1.242951581e-05
1.693938822e-05
2.339829727e-05
3.270790244e-05
4.616755155e-05
6.560306523e-05
9.345817951e-05
0.0001328110228
0.0001872912028
0.00026088849
0.0003577877579
0.0004823026629
0.0006384284603
0.0008204779039
6.536728697e-07
6.538907837e-07
6.544112049e-07
6.557605948e-07
6.585692484e-07
6.635888168e-07
6.717154147e-07
6.840206633e-07
7.017939459e-07
7.266004419e-07
7.603613191e-07
8.054650583e-07
8.649226234e-07
9.42584651e-07
1.043446893e-06
1.174082157e-06
1.34325508e-06
1.5628035e-06
1.84891212e-06
2.223968391e-06
2.719289291e-06
3.379158985e-06
4.266848111e-06
5.473633994e-06
7.132357697e-06
9.437795806e-06
1.267711629e-05
1.727481963e-05
2.385726206e-05
3.334018276e-05
4.704136362e-05
6.680761006e-05
9.510302099e-05
0.0001350223261
0.0001901980003
0.0002646138984
0.000362444745
0.0004879945699
0.0006451624967
0.0008275144427
6.665483786e-07
6.667701057e-07
6.672998268e-07
6.686745596e-07
6.71537235e-07
6.766545702e-07
6.849406397e-07
6.974885463e-07
7.156135313e-07
7.409121862e-07
7.753442702e-07
8.213462914e-07
8.819898198e-07
9.612030734e-07
1.064082547e-06
1.197333703e-06
1.369898201e-06
1.593853097e-06
1.885710169e-06
2.268308886e-06
2.773597011e-06
3.446746624e-06
4.352287862e-06
5.58329654e-06
7.275195631e-06
9.626479858e-06
1.292966605e-05
1.761688354e-05
2.432514288e-05
3.398441055e-05
4.793104056e-05
6.803279783e-05
9.677386764e-05
0.0001372651275
0.0001931411951
0.0002683793791
0.0003671456623
0.0004937342197
0.0006519301105
0.0008342769878
6.796733255e-07
6.798989283e-07
6.804381168e-07
6.818386868e-07
6.847564697e-07
6.89973562e-07
6.984223711e-07
7.112179231e-07
7.29701848e-07
7.5550279e-07
7.906198865e-07
8.375386516e-07
8.993924987e-07
9.801888178e-07
1.085126919e-06
1.221047657e-06
1.397073363e-06
1.625525229e-06
1.923248779e-06
2.313544632e-06
2.829003945e-06
3.515704293e-06
4.439460049e-06
5.69518058e-06
7.420920417e-06
9.818961909e-06
1.318726524e-05
1.796571083e-05
2.480210942e-05
3.464080165e-05
4.883684603e-05
6.927893098e-05
9.847102775e-05
0.0001395396318
0.000196120912
0.0002721853849
0.0003718910169
0.0004995215842
0.0006587464853
0.0008409888155
6.930527466e-07
6.932822874e-07
6.938311111e-07
6.952580176e-07
6.982320086e-07
7.035508811e-07
7.121657545e-07
7.252140314e-07
7.440642718e-07
7.703778288e-07
8.061940211e-07
8.540483696e-07
9.17137396e-07
9.995492859e-07
1.106588281e-06
1.245233417e-06
1.424791421e-06
1.657832633e-06
1.961543127e-06
2.359693997e-06
2.885532667e-06
3.586060172e-06
4.528400398e-06
5.809332023e-06
7.569591694e-06
1.001531993e-05
1.345001595e-05
1.83214348e-05
2.528833419e-05
3.530957473e-05
4.975904622e-05
7.054631252e-05
0.0001001948055
0.0001418459768
0.000199137139
0.0002760323168
0.0003766811093
0.0005053566482
0.0006656115418
0.0008477412745
7.06691777e-07
7.069253182e-07
7.07483945e-07
7.089376925e-07
7.119690085e-07
7.173917173e-07
7.261760392e-07
7.394822153e-07
7.587062892e-07
7.85542993e-07
8.220726491e-07
8.708818069e-07
9.352313887e-07
1.019292034e-06
1.128475074e-06
1.269900575e-06
1.453063454e-06
1.69078831e-06
2.000608714e-06
2.406775743e-06
2.943206249e-06
3.657843073e-06
4.619145426e-06
5.925797784e-06
7.721270361e-06
1.021563348e-05
1.371802229e-05
1.868419117e-05
2.578399237e-05
3.599095108e-05
5.069790952e-05
7.183524642e-05
0.0001019455109
0.0001441842049
0.0002021899395
0.0002799205023
0.0003815162476
0.000511239359
0.000672525206
0.0008545343378
7.205956534e-07
7.20833257e-07
7.214018553e-07
7.22882954e-07
7.259727284e-07
7.315013646e-07
7.404585803e-07
7.540279272e-07
7.736334987e-07
8.010040909e-07
8.382618695e-07
8.880454577e-07
9.536814978e-07
1.039424777e-06
1.150795919e-06
1.295058924e-06
1.481900772e-06
1.724405536e-06
2.040461366e-06
2.45480904e-06
3.002048266e-06
3.731082443e-06
4.711732461e-06
6.044625798e-06
7.876018607e-06
1.041998372e-05
1.399139035e-05
1.905411802e-05
2.628926163e-05
3.668515425e-05
5.165370597e-05
7.314603648e-05
0.0001037234491
0.0001465545992
0.0002052794835
0.0002838502865
0.0003863967863
0.0005171695846
0.0006794873754
0.000861367992
7.347697166e-07
7.350114448e-07
7.355901832e-07
7.370991493e-07
7.40248533e-07
7.458852234e-07
7.550188411e-07
7.688567307e-07
7.888516138e-07
8.167670506e-07
8.547679084e-07
9.055459515e-07
9.724948908e-07
1.059955389e-06
1.173559613e-06
1.320718459e-06
1.511314921e-06
1.758697864e-06
2.08111725e-06
2.503813471e-06
3.062082814e-06
3.805808382e-06
4.806199654e-06
6.165865043e-06
8.033899935e-06
1.062845349e-05
1.427022825e-05
1.943135571e-05
2.680432169e-05
3.739240947e-05
5.262670641e-05
7.447898473e-05
0.0001055289253
0.000148957554
0.0002084062713
0.0002878221282
0.0003913225111
0.0005231458821
0.0006864073248
0.0008678037458
7.492194144e-07
7.494653292e-07
7.500543772e-07
7.51591733e-07
7.548018946e-07
7.60548803e-07
7.698623955e-07
7.839743027e-07
8.04366465e-07
8.328379225e-07
8.715971209e-07
9.233900561e-07
9.916788849e-07
1.080891911e-06
1.196775139e-06
1.346889385e-06
1.541317689e-06
1.793679134e-06
2.122592876e-06
2.553809043e-06
3.123334517e-06
3.882051659e-06
4.902585999e-06
6.28956556e-06
8.194979184e-06
1.084112728e-05
1.455464612e-05
1.981604674e-05
2.732935361e-05
3.811294239e-05
5.361718103e-05
7.583438899e-05
0.0001073622474
0.0001513934422
0.0002115707254
0.0002918360743
0.0003962932856
0.0005291683648
0.0006933707754
0.0008742033719
7.639503044e-07
7.642004678e-07
7.647999953e-07
7.663662695e-07
7.696383963e-07
7.754977245e-07
7.84994931e-07
7.993864361e-07
8.201840029e-07
8.49222882e-07
8.887559938e-07
9.415846803e-07
1.01124095e-06
1.10224255e-06
1.220451666e-06
1.373582121e-06
1.571921113e-06
1.829363482e-06
2.164905109e-06
2.604816199e-06
3.185828541e-06
3.959843721e-06
5.000931349e-06
6.415778475e-06
8.359322557e-06
1.105809125e-05
1.484475612e-05
2.020833556e-05
2.786453828e-05
3.884697695e-05
5.462539717e-05
7.721253762e-05
0.0001092237182