/*--------------------------------*- C++ -*----------------------------------*\
| =========                 |                                                 |
| \\      /  F ield         | OpenFOAM: The Open Source CFD Toolbox           |
|  \\    /   O peration     | Version:  v2006                                 |
|   \\  /    A nd           | Website:  www.openfoam.com                      |
|    \\/     M anipulation  |                                                 |
\*---------------------------------------------------------------------------*/
FoamFile
{
    version     2.0;
    format      ascii;
    class       volScalarField;
    location    "0.15";
    object      CH;
}
// * * * * * * * * * * * * * * * * * * * * * * * * * * * * * * * * * * * * * //

dimensions      [0 0 0 0 0 0 0];


internalField   nonuniform List<scalar> 
168000
(
2.507834848e-44
3.429497507e-44
4.314644516e-44
5.161031754e-44
5.983781679e-44
6.791695254e-44
7.55722839e-44
8.28828306e-44
9.110250577e-44
9.937964989e-44
1.074761107e-43
1.176253425e-43
1.29093607e-43
1.408338279e-43
1.579356808e-43
1.772208011e-43
1.99640159e-43
2.32885103e-43
2.686337991e-43
3.238360697e-43
3.877237401e-43
4.803246681e-43
5.961662677e-43
7.6387338e-43
9.776976121e-43
1.303538353e-42
1.70444465e-42
2.378584402e-42
3.255875582e-42
4.576434207e-42
6.60153668e-42
9.37439778e-42
2.847832029e-38
1.051523273e-37
5.443268016e-35
3.857130418e-32
1.00740779e-27
8.323966909e-24
9.103727672e-20
1.468433323e-16
2.570062813e-44
3.522260199e-44
4.436359451e-44
5.311966571e-44
6.156137041e-44
6.974460649e-44
7.762118191e-44
8.53380546e-44
9.346603405e-44
1.018128901e-43
1.104575299e-43
1.205353424e-43
1.319751963e-43
1.446992279e-43
1.613848378e-43
1.810404745e-43
2.04794179e-43
2.372504553e-43
2.75560445e-43
3.298894087e-43
3.967012166e-43
4.895130227e-43
6.093728012e-43
7.779324427e-43
9.997493186e-43
1.325000313e-42
1.747216245e-42
2.419147492e-42
3.323114408e-42
4.672248895e-42
6.712762727e-42
9.563060017e-42
3.16580189e-38
1.090706933e-37
5.800721323e-35
4.166408169e-32
1.212255714e-27
9.540841221e-24
1.072956042e-19
1.793512436e-16
2.632254551e-44
3.616690066e-44
4.560736364e-44
5.464203404e-44
6.331285132e-44
7.167348131e-44
7.976674274e-44
8.774771109e-44
9.594321814e-44
1.044209228e-43
1.133929627e-43
1.235454922e-43
1.351078158e-43
1.484080379e-43
1.650563386e-43
1.850952566e-43
2.097499313e-43
2.421527964e-43
2.821543724e-43
3.365136907e-43
4.055079455e-43
4.992575664e-43
6.224358761e-43
7.928921815e-43
1.021300525e-42
1.34878567e-42
1.788212851e-42
2.462731086e-42
3.391069374e-42
4.767918349e-42
6.830176215e-42
9.753626789e-42
3.484120517e-38
1.130891435e-37
6.168527796e-35
4.478670158e-32
1.41750205e-27
1.07732632e-23
1.237203252e-19
2.120976262e-16
2.695024639e-44
3.712750427e-44
4.687586877e-44
5.619148413e-44
6.510624592e-44
7.367753618e-44
8.19853143e-44
9.018312721e-44
9.851258768e-44
1.07147896e-43
1.163591525e-43
1.266532104e-43
1.38399482e-43
1.520974283e-43
1.68890734e-43
1.893210936e-43
2.146718026e-43
2.473831522e-43
2.886433015e-43
3.435152565e-43
4.143117526e-43
5.094106038e-43
6.355377678e-43
8.085243197e-43
1.042745881e-42
1.374258616e-42
1.828252484e-42
2.508720456e-42
3.459890085e-42
4.864044194e-42
6.95292964e-42
9.94635511e-42
3.803830359e-38
1.172049893e-37
6.545920987e-35
4.794005599e-32
1.623493373e-27
1.20202514e-23
1.607335206e-19
2.450926587e-16
2.758671691e-44
3.810614828e-44
4.817114195e-44
5.777525983e-44
6.694676086e-44
7.574668877e-44
8.427107772e-44
9.267296153e-44
1.011665058e-43
1.099727706e-43
1.19389845e-43
1.298571397e-43
1.418129852e-43
1.558322603e-43
1.728605846e-43
1.936888118e-43
2.196406338e-43
2.528401799e-43
2.951468577e-43
3.507941964e-43
4.232048009e-43
5.19893394e-43
6.487855783e-43
8.247000016e-43
1.064325154e-42
1.401015387e-42
1.867891505e-42
2.556694021e-42
3.529699217e-42
4.961071127e-42
7.080385271e-42
1.014146986e-41
4.125790926e-38
1.214158677e-37
6.932260846e-35
5.012776761e-31
1.830503556e-27
4.946965519e-23
3.304768849e-19
2.940534238e-16
2.82336862e-44
3.91049115e-44
4.949588319e-44
5.939771663e-44
6.883715705e-44
7.78779079e-44
8.662387153e-44
9.52296352e-44
1.039030683e-43
1.128885904e-43
1.225006437e-43
1.331574047e-43
1.453345483e-43
1.596441673e-43
1.769538541e-43
1.98185922e-43
2.246968944e-43
2.584759207e-43
3.017290208e-43
3.582999824e-43
4.322387544e-43
5.30665319e-43
6.62243592e-43
8.413481797e-43
1.086184038e-42
1.428801829e-42
1.907510324e-42
2.606364586e-42
3.60059957e-42
5.059328479e-42
7.212065661e-42
1.033917086e-41
4.450709689e-38
1.257196834e-37
7.327043884e-35
1.525234528e-30
2.038768893e-27
9.297660514e-23
5.018766974e-19
4.080930014e-16
2.889240025e-44
4.012573722e-44
5.085264058e-44
6.106198362e-44
7.07796653e-44
8.007125876e-44
8.904533156e-44
9.785940788e-44
1.067228481e-43
1.158941031e-43
1.256995764e-43
1.365552768e-43
1.489603403e-43
1.635494894e-43
1.811660419e-43
2.028079615e-43
2.29861679e-43
2.642688802e-43
3.084251191e-43
3.66008164e-43
4.414436588e-43
5.417068514e-43
6.759517066e-43
8.584312733e-43
1.108411534e-42
1.457460173e-42
1.947371046e-42
2.657538691e-42
3.672678807e-42
5.159061272e-42
7.347616076e-42
1.053963809e-41
4.779165832e-38
1.301144806e-37
7.729901406e-35
2.560052801e-30
2.248470556e-27
1.369402117e-22
6.749189529e-19
5.230363323e-16
2.95638727e-44
4.117035582e-44
5.224369423e-44
6.277065715e-44
7.277649423e-44
8.23281808e-44
9.153769484e-44
1.00566239e-43
1.096275504e-43
1.189904003e-43
1.289915695e-43
1.400527991e-43
1.52690715e-43
1.675575246e-43
1.854964146e-43
2.075543794e-43
2.351468686e-43
2.70210677e-43
3.152557269e-43
3.739081146e-43
4.508380652e-43
5.530101431e-43
6.899359214e-43
8.759310052e-43
1.131062805e-42
1.486894664e-42
1.987656254e-42
2.710088408e-42
3.746012796e-42
5.260453373e-42
7.486775718e-42
1.074303578e-41
5.111628097e-38
2.591995636e-36
8.140546426e-35
3.606008335e-30
4.4351652e-27
1.813551637e-22
8.495910029e-19
6.388903201e-16
3.024897605e-44
4.224031677e-44
5.367111075e-44
6.452609577e-44
7.482992688e-44
8.465074199e-44
9.410344199e-44
1.033532757e-43
1.126194448e-43
1.221795816e-43
1.323803343e-43
1.43652508e-43
1.565277794e-43
1.716743418e-43
1.899461769e-43
2.124265872e-43
2.405600231e-43
2.762994316e-43
3.222338262e-43
3.819965765e-43
4.604344539e-43
5.645738261e-43
7.042143096e-43
8.938402134e-43
1.154173074e-42
1.517049429e-42
2.028495081e-42
2.763931729e-42
3.820668113e-42
5.363644501e-42
7.62935546e-42
1.09495134e-41
5.448516024e-38
5.610103202e-36
8.55871989e-35
4.663358671e-30
2.403564832e-26
2.26218694e-22
1.025879982e-18
7.556596622e-16
3.094848779e-44
4.333703889e-44
5.513681455e-44
6.633054913e-44
7.694231873e-44
8.70413179e-44
9.674519341e-44
1.062234282e-43
1.157011225e-43
1.254642276e-43
1.358691579e-43
1.473572592e-43
1.604743862e-43
1.759045541e-43
1.94517577e-43
2.17427032e-43
2.461067279e-43
2.825365016e-43
3.293685062e-43
3.902742543e-43
4.702421365e-43
5.764001423e-43
7.188004273e-43
9.121581485e-43
1.177766014e-42
1.547894226e-42
2.069980768e-42
2.819018879e-42
3.896703978e-42
5.468742759e-42
7.775220392e-42
1.11592068e-41
5.790193285e-38
8.685657831e-36
1.997233826e-33
5.732529867e-30
4.38050026e-26
2.715247878e-22
1.203773799e-18
8.733473199e-16
3.166312031e-44
4.446185383e-44
5.664264323e-44
6.81862187e-44
7.911608324e-44
8.950245432e-44
9.94656797e-44
1.091795905e-43
1.188753913e-43
1.288471921e-43
1.394612329e-43
1.511701298e-43
1.645337293e-43
1.8025215e-43
1.992134641e-43
2.225587521e-43
2.517917134e-43
2.889248757e-43
3.366668796e-43
3.987440151e-43
4.802688052e-43
5.884933606e-43
7.337052684e-43
9.308877933e-43
1.201858796e-42
1.579415294e-42
2.112182478e-42
2.87532276e-42
3.974173805e-42
5.575834026e-42
7.924275592e-42
1.751652359e-39
6.136974322e-38
1.181827333e-35
4.482634523e-33
6.813839815e-30
6.375099334e-26
3.172682385e-22
1.383258147e-18
1.000012223e-15
3.239354201e-44
4.561603897e-44
5.819038649e-44
7.009529047e-44
8.135368346e-44
9.203680955e-44
1.022677332e-43
1.122247256e-43
1.221452295e-43
1.323315212e-43
1.431597937e-43
1.550943674e-43
1.687091902e-43
1.847208879e-43
2.040370681e-43
2.278251628e-43
2.576193863e-43
2.954683889e-43
3.441350787e-43
4.074099365e-43
4.905213588e-43
6.008589081e-43
7.489383912e-43
9.500343493e-43
1.226465073e-42
1.611609473e-42
2.155153272e-42
2.932832261e-42
4.053126423e-42
5.684988436e-42
8.076465207e-42
4.2700602e-39
6.489122678e-38
1.500778022e-35
7.008892372e-33
7.907556928e-30
8.388010479e-26
3.634438668e-22
2.311793614e-18
1.34261533e-15
3.314039248e-44
4.680084116e-44
5.978181307e-44
7.205995549e-44
8.36576305e-44
9.464713143e-44
1.051542857e-43
1.153618966e-43
1.255137651e-43
1.359204212e-43
1.469681733e-43
1.591333673e-43
1.730042863e-43
1.893144855e-43
2.089918894e-43
2.332299494e-43
2.635940805e-43
3.021713427e-43
3.517787768e-43
4.162768022e-43
5.010063415e-43
6.135028958e-43
7.645085762e-43
9.696043894e-43
1.251596743e-42
1.644480449e-42
2.19893547e-42
2.991547569e-42
4.133607101e-42
5.796265616e-42
8.231762913e-42
6.830076027e-39
6.846864558e-38
1.825410198e-35
9.575560242e-33
9.013926971e-30
1.041972932e-25
4.100494767e-22
3.633192851e-18
1.687878674e-15
3.390429345e-44
4.80174938e-44
6.14186899e-44
7.408242473e-44
8.603048657e-44
9.733624992e-44
1.081283692e-43
1.185942794e-43
1.28984267e-43
1.396172465e-43
1.50889828e-43
1.632906638e-43
1.774226599e-43
1.940367138e-43
2.140816429e-43
2.387770149e-43
2.697201751e-43
3.09038324e-43
3.596034625e-43
4.253498357e-43
5.117301772e-43
6.26431863e-43
7.804242149e-43
9.896053904e-43
1.277264963e-42
1.678036353e-42
2.243564277e-42
3.051476889e-42
4.215658392e-42
5.909718256e-42
8.39016199e-42
9.433000433e-39
7.210400019e-38
2.155724553e-35
1.218232824e-32
1.013317669e-29
1.247060631e-25
1.199288933e-21
4.966234629e-18
2.035785619e-15
3.468585682e-44
4.926722936e-44
6.310279619e-44
7.616494067e-44
8.847487017e-44
1.001070768e-43
1.111931168e-43
1.21925168e-43
1.325601412e-43
1.434254959e-43
1.549283486e-43
1.675699299e-43
1.819680805e-43
1.988914447e-43
2.193102314e-43
2.444704525e-43
2.7600215e-43
3.160741216e-43
3.676145875e-43
4.346345598e-43
5.226992944e-43
6.396526436e-43
7.966935439e-43
1.010045477e-42
1.303480718e-42
1.712288238e-42
2.289070217e-42
3.112634145e-42
4.299320825e-42
6.025394571e-42
8.551671309e-42
1.208007985e-38
7.579907859e-38
2.491729001e-35
1.482898579e-32
1.126550094e-29
1.454114377e-25
2.211976335e-21
6.310854774e-18
2.386319563e-15
3.54856906e-44
5.055128879e-44
6.483593431e-44
7.830978706e-44
9.099346243e-44
1.029626086e-43
1.143517662e-43
1.253579771e-43
1.362449304e-43
1.473488124e-43
1.590874672e-43
1.719749805e-43
1.866444528e-43
2.038826772e-43
2.246817315e-43
2.503145322e-43
2.824446133e-43
3.232836895e-43
3.758176457e-43
4.441367237e-43
5.339201945e-43
6.531722982e-43
8.1332479e-43
1.030933285e-42
1.330255141e-42
1.747249113e-42
2.335480788e-42
3.175037373e-42
4.38463347e-42
6.143340105e-42
8.716311993e-42
1.477251138e-38
7.955549652e-38
2.833437454e-35
1.751539089e-32
1.24110665e-29
1.66318269e-25
3.234060621e-21
7.666966248e-18
2.739458278e-15
3.630440351e-44
5.187092885e-44
6.661993852e-44
8.051929736e-44
9.358901367e-44
1.059059309e-43
1.176076625e-43
1.288962456e-43
1.400423152e-43
1.513909841e-43
1.633710626e-43
1.765097767e-43
1.914558243e-43
2.090145528e-43
2.302003893e-43
2.563136942e-43
2.890523147e-43
3.306721334e-43
3.842182196e-43
4.538622664e-43
5.453994908e-43
6.669980842e-43
8.30326263e-43
1.052277888e-42
1.357599676e-42
1.78293334e-42
2.382821569e-42
3.238707602e-42
4.471634407e-42
6.263598991e-42
8.88411481e-42
1.751144946e-38
8.337473047e-38
3.180868816e-35
2.024143952e-32
1.357000414e-29
1.874306107e-25
4.265570526e-21
9.034477687e-18
3.179549103e-15
3.714260852e-44
5.322742799e-44
6.845668219e-44
8.279586209e-44
9.626434987e-44
1.089402236e-43
1.209642628e-43
1.325436401e-43
1.439561165e-43
1.555559479e-43
1.677831646e-43
1.811784316e-43
1.964063932e-43
2.142913656e-43
2.358706182e-43
2.624725469e-43
2.958301541e-43
3.382447072e-43
3.92822007e-43
4.638172996e-43
5.571439316e-43
6.811374449e-43
8.477064166e-43
1.074088754e-42
1.385526157e-42
1.819356248e-42
2.431116973e-42
3.30366808e-42
4.560361107e-42
6.386214844e-42
9.05511815e-42
2.029801151e-38
8.725814495e-38
3.534046431e-35
2.300703164e-32
1.474239058e-29
2.087517679e-25
5.306532535e-21
1.041329458e-17
4.079420193e-15
3.800092577e-44
5.46220913e-44
7.034808412e-44
8.514193564e-44
9.902237913e-44
1.120687667e-43
1.244251409e-43
1.363039583e-43
1.479902986e-43
1.598477922e-43
1.723279592e-43
1.859852158e-43
2.015005156e-43
2.197175701e-43
2.416970004e-43
2.68795867e-43
3.027831876e-43
3.460068156e-43
4.016348384e-43
4.740081014e-43
5.691604166e-43
6.955980105e-43
8.654738903e-43
1.096375736e-42
1.414046847e-42
1.856533906e-42
2.480390763e-42
3.369943733e-42
4.65085074e-42
6.511231361e-42
9.229366459e-42
2.313328301e-38
9.120701574e-38
3.892998591e-35
2.581203575e-32
2.956142923e-29
4.90617055e-25
6.356963749e-21
1.575848113e-17
4.985839198e-15
3.887998499e-44
5.605625471e-44
7.229611399e-44
8.756004236e-44
1.018660978e-43
1.152949456e-43
1.279939923e-43
1.401811342e-43
1.521489739e-43
1.642707617e-43
1.77009793e-43
1.909345632e-43
2.06742712e-43
2.252977872e-43
2.4768429e-43
2.752886014e-43
3.099166326e-43
3.539640178e-43
4.106626899e-43
4.844411164e-43
5.81456009e-43
7.103876036e-43
8.836375393e-43
1.119149051e-42
1.443174446e-42
1.894482978e-42
2.530666395e-42
3.437560808e-42
4.743140431e-42
6.638692743e-42
9.40690901e-42
2.601832193e-38
9.522254995e-38
4.257759987e-35
2.865628724e-32
2.135594018e-28
1.657970873e-24
7.416937464e-21
2.325671598e-17
5.898754902e-15
3.978042752e-44
5.753128878e-44
7.430279742e-44
9.005278243e-44
1.047985967e-43
1.186222575e-43
1.316746397e-43
1.441792428e-43
1.564364067e-43
1.688292617e-43
1.818331792e-43
1.960310768e-43
2.121376736e-43
2.310368107e-43
2.538374155e-43
2.819558705e-43
3.172358728e-43
3.621220338e-43
4.199116931e-43
4.951229588e-43
5.940379468e-43
7.255142486e-43
9.022064575e-43
1.142419282e-42
1.472922091e-42
1.933220642e-42
2.581967264e-42
3.50654662e-42
4.837267464e-42
6.768643956e-42
9.587798943e-42
2.895416221e-38
9.930589693e-38
4.628366261e-35
3.154010034e-32
3.996853852e-28
2.837087122e-24
8.486466133e-21
3.081628724e-17
6.81808907e-15
4.070290808e-44
5.904860202e-44
7.637022061e-44
9.26228373e-44
1.078230666e-43
1.220543169e-43
1.354710387e-43
1.483025053e-43
1.608570192e-43
1.735278635e-43
1.86802802e-43
2.012795343e-43
2.176902683e-43
2.369396123e-43
2.601614853e-43
2.888029718e-43
3.247464639e-43
3.704867503e-43
4.293881439e-43
5.06060418e-43
6.069136519e-43
7.409861813e-43
9.211899941e-43
1.166197372e-42
1.503303351e-42
1.972764537e-42
2.634316866e-42
3.576929393e-42
4.933269436e-42
6.90113089e-42
9.772092496e-42
3.194181647e-38
1.034581592e-37
5.004858375e-35
3.446379415e-32
5.879681147e-28
4.027977042e-24
1.555564391e-20
3.843727984e-17
7.743811708e-15
4.164809643e-44
6.060964412e-44
7.850053475e-44
9.527297504e-44
1.109428047e-43
1.255948618e-43
1.39387284e-43
1.525552952e-43
1.654153965e-43
1.783713098e-43
1.919235232e-43
2.066848945e-43
2.234055469e-43
2.430113479e-43
2.666617917e-43
2.95835385e-43
3.324541386e-43
3.790642272e-43
4.390985106e-43
5.172604648e-43
6.200907401e-43
7.568118595e-43
9.405977679e-43
1.190494629e-42
1.534332228e-42
2.01313275e-42
2.687738917e-42
3.648738154e-42
5.031184387e-42
7.036200441e-42
9.959848379e-42
3.498227751e-38
1.076804e-37
5.387280394e-35
3.742768801e-32
7.784354135e-28
5.230701706e-24
3.167209424e-20
4.611957047e-17
9.291800331e-15
4.261667877e-44
6.221590885e-44
8.069596025e-44
9.800605552e-44
1.141612199e-43
1.2924776e-43
1.434276153e-43
1.569421444e-43
1.701162927e-43
1.833645209e-43
1.972003879e-43
2.122523031e-43
2.292887492e-43
2.49257363e-43
2.733438164e-43
3.030587771e-43
3.403648131e-43
3.878607044e-43
4.49049442e-43
5.287302592e-43
6.335770309e-43
7.729999737e-43
9.604396796e-43
1.215322721e-42
1.566023141e-42
2.054343792e-42
2.742257441e-42
3.722002665e-42
5.131050888e-42
7.173900528e-42
1.015112724e-41
3.807651807e-38
1.119736441e-37
5.775677606e-35
4.043209248e-32
9.711123593e-28
6.445407718e-24
4.793250086e-20
5.386277508e-17
1.142465304e-14
4.360935915e-44
6.386893696e-44
8.295879085e-44
1.008250355e-43
1.174818388e-43
1.330170152e-43
1.475964237e-43
1.614677492e-43
1.749646376e-43
1.885126004e-43
2.026386305e-43
2.179870989e-43
2.353453103e-43
2.556831991e-43
2.802132364e-43
3.104790078e-43
3.484845934e-43
3.968826091e-43
4.592477753e-43
5.404771583e-43
6.473805565e-43
7.895594577e-43
9.807259218e-43
1.240693684e-42
1.598390936e-42
2.096416612e-42
2.79789683e-42
3.796753381e-42
5.232908101e-42
7.31428004e-42
1.034599116e-41
4.122548798e-38
1.163388733e-37
6.170094054e-35
4.347729314e-32
1.166022773e-27
7.672217162e-24
6.433658212e-20
6.235526937e-17
1.357200891e-14
4.46268607e-44
6.557031895e-44
8.529139768e-44
1.037329737e-43
1.209083116e-43
1.369067731e-43
1.518982586e-43
1.661369776e-43
1.799655427e-43
1.938208425e-43
2.082436818e-43
2.238948207e-43
2.41580867e-43
2.622945999e-43
2.8727593e-43
3.181021361e-43
3.568197815e-43
4.061365632e-43
4.697005444e-43
5.525087246e-43
6.615095717e-43
8.06499498e-43
1.001466989e-42
1.266619922e-42
1.631450878e-42
2.139370591e-42
2.854681893e-42
3.87302143e-42
5.336795818e-42
7.457388726e-42
1.054450314e-41
4.443010687e-38
1.207770164e-37
6.570568865e-35
4.656352518e-32
1.363189179e-27
8.911231193e-24
8.08839447e-20
9.508056274e-17
1.573384911e-14
4.56699269e-44
6.732169777e-44
8.76962333e-44
1.067330359e-43
1.24444418e-43
1.409213283e-43
1.563378343e-43
1.709548756e-43
1.851243086e-43
1.992947383e-43
2.140211753e-43
2.299812141e-43
2.480012645e-43
2.690975178e-43
2.945379831e-43
3.259344267e-43
3.653768827e-43
4.156293907e-43
4.80414988e-43
5.64832735e-43
6.759725638e-43
8.238295446e-43
1.022673686e-42
1.29311421e-42
1.665218657e-42
2.183225556e-42
2.912637894e-42
3.950838597e-42
5.442754463e-42
7.603276959e-42
1.07467266e-41
4.769124918e-38
1.252889346e-37
6.977131354e-35
4.969088621e-32
1.562633132e-27
1.016251312e-23
9.757584704e-20
1.280608915e-16
1.7910155e-14
4.673932275e-44
6.912477161e-44
9.017583576e-44
1.098285002e-43
1.280940733e-43
1.450651305e-43
1.609200368e-43
1.759266747e-43
1.904464322e-43
2.049399834e-43
2.19976955e-43
2.362522382e-43
2.546125639e-43
2.760981209e-43
3.020056965e-43
3.339823568e-43
3.741626131e-43
4.253681257e-43
4.913985582e-43
5.774571895e-43
6.907782613e-43
8.415593209e-43
1.044357137e-42
1.320189702e-42
1.699710387e-42
2.228001786e-42
2.971790584e-42
4.030237322e-42
5.550825092e-42
7.75199531e-42
1.095272476e-41
5.10097183e-38
1.298753579e-37
7.389794792e-35
1.051515809e-30
1.764376632e-27
1.142608275e-23
1.144134382e-19
1.61295863e-16
2.032377396e-14
4.783583597e-44
7.098129658e-44
9.273283265e-44
1.130227621e-43
1.31861334e-43
1.493427918e-43
1.656499314e-43
1.810577994e-43
1.959376141e-43
2.107624854e-43
2.261170821e-43
2.427140736e-43
2.614210487e-43
2.833028004e-43
3.096855927e-43
3.422526239e-43
3.831839071e-43
4.353600209e-43
5.026589295e-43
5.903903205e-43
7.05935645e-43
8.596988326e-43
1.066528794e-42
1.347859935e-42
1.734942617e-42
2.273720031e-42
3.032166225e-42
4.111250703e-42
5.661049427e-42
7.903593783e-42
1.116255938e-41
5.438620064e-38
2.511729453e-36
7.8086499e-35
2.073103846e-30
1.968412214e-27
2.969463139e-23
1.313977688e-19
1.947855831e-16
2.500127086e-14
4.896027812e-44
7.289308944e-44
9.536994525e-44
1.163193399e-43
1.357504047e-43
1.537590928e-43
1.705327697e-43
1.863538748e-43
2.016037666e-43
2.167683718e-43
2.324478438e-43
2.493731295e-43
2.684332332e-43
2.907181779e-43
3.175844235e-43
3.507521529e-43
3.924479253e-43
4.456125554e-43
5.142040074e-43
6.036406025e-43
7.214539566e-43
8.782583786e-43
1.089200447e-42
1.376138836e-42
1.770932336e-42
2.320401518e-42
3.09379162e-42
4.193912529e-42
5.773470068e-42
8.058120267e-42
1.403475284e-39
5.782170362e-38
5.638097232e-36
8.233754211e-35
3.108150597e-30
2.174740206e-27
7.367201408e-23
2.440111874e-19
2.285315224e-16
2.970913528e-14
5.011348578e-44
7.486203043e-44
9.808999278e-44
1.197218799e-43
1.397656443e-43
1.583189909e-43
1.755739979e-43
1.918207348e-43
2.074510217e-43
2.229639978e-43
2.389757607e-43
2.562360525e-43
2.756558703e-43
2.983511137e-43
3.257091785e-43
3.594881049e-43
4.019620633e-43
4.561334445e-43
5.260419377e-43
6.172167613e-43
7.373427096e-43
8.972485602e-43
1.11238423e-42
1.405040728e-42
1.807696976e-42
2.36806797e-42
3.156694134e-42
4.278257298e-42
5.888130402e-42
8.215627815e-42
3.922701343e-39
6.131724355e-38
8.81528377e-36
1.490031193e-34
4.156732108e-30
2.383372622e-27
1.180800104e-22
4.190886711e-19
2.625331961e-16
3.444738061e-14
5.129632173e-44
7.689006609e-44
1.008958966e-43
1.232341624e-43
1.439115724e-43
1.630276266e-43
1.80779264e-43
1.9746443e-43
2.134857401e-43
2.293559557e-43
2.457075958e-43
2.633097348e-43
2.830959597e-43
3.062087148e-43
3.340670927e-43
3.684678852e-43
4.117339602e-43
4.669306477e-43
5.381811167e-43
6.311277845e-43
7.536116992e-43
9.166802912e-43
1.136092633e-42
1.43458034e-42
1.845254428e-42
2.416741616e-42
3.220901719e-42
4.364320236e-42
6.005074762e-42
8.376174676e-42
6.488275627e-39
6.487376989e-38
1.204360133e-35
2.662435398e-33
5.21891587e-30
1.681196058e-26
1.629256146e-22
5.956671221e-19
3.568242548e-16
3.921618972e-14
5.250967608e-44
7.897921213e-44
1.037906849e-43
1.268601071e-43
1.481928763e-43
1.678903318e-43
1.861544268e-43
2.032912369e-43
2.197145192e-43
2.35951083e-43
2.52650363e-43
2.706013227e-43
2.907607569e-43
3.142983438e-43
3.426656559e-43
3.776991521e-43
4.217715076e-43
4.780123793e-43
5.506302002e-43
6.453829311e-43
7.702710121e-43
9.365648082e-43
1.160338509e-42
1.464772815e-42
1.883623051e-42
2.466445214e-42
3.286442939e-42
4.452137342e-42
6.124348652e-42
8.539819809e-42
9.100988341e-39
6.849221357e-38
1.532384909e-35
5.212849773e-33
6.294794126e-30
3.644223493e-26
2.082117442e-22
7.737492603e-19
4.742700649e-16
4.401550611e-14
5.375446749e-44
8.113155645e-44
1.067774968e-43
1.306037789e-43
1.526144178e-43
1.729126375e-43
1.917055636e-43
2.093076665e-43
2.261442032e-43
2.427564724e-43
2.598113372e-43
2.781182264e-43
2.986577825e-43
3.226276284e-43
3.515126214e-43
3.871898267e-43
4.320828594e-43
4.893871173e-43
5.633981139e-43
6.599917425e-43
7.873310381e-43
9.569136808e-43
1.185135086e-42
1.495633719e-42
1.922821678e-42
2.517202059e-42
3.353346991e-42
4.541745419e-42
6.245998676e-42
8.706623229e-42
1.176165002e-38
7.217353169e-38
1.865679196e-35
7.800590915e-33
7.384502503e-30
5.629189208e-26
2.539394947e-22
9.533417593e-19
5.925877735e-16
5.310660974e-14
5.503164439e-44
8.334926215e-44
1.098595874e-43
1.344693942e-43
1.571812406e-43
1.781002817e-43
1.974389799e-43
2.155204737e-43
2.32781892e-43
2.497794808e-43
2.671980628e-43
2.858681294e-43
3.067948314e-43
3.3120447e-43
3.606160158e-43
3.96948102e-43
4.426764412e-43
5.010636138e-43
5.764940642e-43
6.749640524e-43
8.048024799e-43
9.777388223e-43
1.210495977e-42
1.527179051e-42
1.962869635e-42
2.569036004e-42
3.42164373e-42
4.633182095e-42
6.370072492e-42
8.876645718e-42
1.4471083e-38
7.591869546e-38
2.204317588e-35
1.042603014e-32
8.488166753e-30
7.636221298e-26
3.001093841e-22
1.134449423e-18
7.117792985e-16
6.301380361e-14
5.634218617e-44
8.563457069e-44
1.130403325e-43
1.384613272e-43
1.618985777e-43
1.834592183e-43
2.033612177e-43
2.219366665e-43
2.396349516e-43
2.5702774e-43
2.748183651e-43
2.938589986e-43
3.151799831e-43
3.400370547e-43
3.699841488e-43
4.069824533e-43
4.535609611e-43
5.130509056e-43
5.899275482e-43
6.903099986e-43
8.226963647e-43
9.990525007e-43
1.236435188e-42
1.559425256e-42
2.003786747e-42
2.621971477e-42
3.491363685e-42
4.726485837e-42
6.496618797e-42
9.049948967e-42
1.723012191e-38
7.972868715e-38
2.548373442e-35
1.308953674e-32
9.605903305e-30
9.66541878e-26
3.46720982e-22
1.317075112e-18
8.318465127e-16
7.298288666e-14
5.768710451e-44
8.798980514e-44
1.163232335e-43
1.425841162e-43
1.667718593e-43
1.889956252e-43
2.094790655e-43
2.28563517e-43
2.467110241e-43
2.64509167e-43
2.826803601e-43
3.020990949e-43
3.238216122e-43
3.491338631e-43
3.796256238e-43
4.173016483e-43
4.647454197e-43
5.253583251e-43
6.037083657e-43
7.060400337e-43
8.410240554e-43
1.02086735e-42
1.262967132e-42
1.592389233e-42
2.045593358e-42
2.676033495e-42
3.562538086e-42
4.821695965e-42
6.625687318e-42
9.226595644e-42
2.003961311e-38
8.360449803e-38
2.897918816e-35
1.579147117e-32
1.073781968e-29
1.171684032e-25
3.937722647e-22
1.855293202e-18
9.527914627e-16
8.301398316e-14
5.906744464e-44
9.04173735e-44
1.197119228e-43
1.468424703e-43
1.718067202e-43
1.947159139e-43
2.157995681e-43
2.354085706e-43
2.540180385e-43
2.722319747e-43
2.907924654e-43
3.105969842e-43
3.327283991e-43
3.585036813e-43
3.895493487e-43
4.279147585e-43
4.762391217e-43
5.37995511e-43
6.178466297e-43
7.22164937e-43
8.597972624e-43
1.043196382e-42
1.290106642e-42
1.626088353e-42
2.08831034e-42
2.731247687e-42
3.635198879e-42
4.918852671e-42
6.757328808e-42
9.406649418e-42
2.29004141e-38
8.754712585e-38
3.253024327e-35
1.85321762e-32
1.188401537e-29
1.379048659e-25
8.616713255e-22
3.198532018e-18
1.236945144e-15
9.31073015e-14
6.04842867e-44
9.291977221e-44
1.232101687e-43
1.512412767e-43
1.770090091e-43
2.006267387e-43
2.223300365e-43
2.424796579e-43
2.615642222e-43
2.802046836e-43
2.991634123e-43
3.193615484e-43
3.419093417e-43
3.681556124e-43
3.99764547e-43
4.388311702e-43
4.88051687e-43
5.509724207e-43
6.323527789e-43
7.386958264e-43
8.790280555e-43
1.066052997e-42
1.317868979e-42
1.660540466e-42
2.131959111e-42
2.787640304e-42
3.709378747e-42
5.017997029e-42
6.891595045e-42
9.59017499e-42
2.581339278e-38
9.155757283e-38
3.613759012e-35
2.131196261e-32
1.304457162e-29
1.588644335e-25
1.884201286e-21
4.553037933e-18
1.588660764e-15
1.111467652e-13
6.193874712e-44
9.549958972e-44
1.268218815e-43
1.557856073e-43
1.823847964e-43
2.067350064e-43
2.290780589e-43
2.49784905e-43
2.693581123e-43
2.884361337e-43
3.078022572e-43
3.284019984e-43
3.513737669e-43
3.780990881e-43
4.102807699e-43
4.500605963e-43
5.001930625e-43
5.642993415e-43
6.472375896e-43
7.556441706e-43
8.987288765e-43
1.089451001e-42
1.346269847e-42
1.695763917e-42
2.176561647e-42
2.845238245e-42
3.785111129e-42
5.119171004e-42
7.028538826e-42
9.777238088e-42
2.877942682e-38
9.563684431e-38
3.980190353e-35
2.413108689e-32
1.421953821e-29
1.800496289e-25
2.916397782e-21
5.918804368e-18
1.942910544e-15
1.315801749e-13
6.343198003e-44
9.815951018e-44
1.305511187e-43
1.604807271e-43
1.879403834e-43
2.130478865e-43
2.360515116e-43
2.573327459e-43
2.774085679e-43
2.969354967e-43
3.167183944e-43
3.377278853e-43
3.611313436e-43
3.883438812e-43
4.211079085e-43
4.616130889e-43
5.126735351e-43
5.779869038e-43
6.625121882e-43
7.73021802e-43
9.189125521e-43
1.11340461e-42
1.375325408e-42
1.73177756e-42
2.222140503e-42
2.904069066e-42
3.862430235e-42
5.222417467e-42
7.168213957e-42
9.967905451e-42
3.179940285e-38
9.978594844e-38
4.352384978e-35
2.698972261e-32
1.540891092e-29
2.014626877e-25
3.958326173e-21
7.295827721e-18
2.299690365e-15
1.521372834e-13
6.496517878e-44
1.009023174e-43
1.344020915e-43
1.65332101e-43
1.936823119e-43
2.195728215e-43
2.432585703e-43
2.651319343e-43
2.857247825e-43
3.057122886e-43
3.259215689e-43
3.473491143e-43
3.711920948e-43
3.989001184e-43
4.322562063e-43
4.734990518e-43
5.255037436e-43
5.920460937e-43
6.781880648e-43
7.9084093e-43
9.395923068e-43
1.137928474e-42
1.405052293e-42
1.768600774e-42
2.268718824e-42
2.964161008e-42
3.941371067e-42
5.327780196e-42
7.310675231e-42
1.016224479e-41
3.487421545e-38
1.040058972e-37
4.730410852e-35
2.98879252e-32
1.343542836e-28
2.231054371e-25
5.01005357e-21
8.684095601e-18
2.658996383e-15
1.728180087e-13
6.653957742e-44
1.037308986e-43
1.383791706e-43
1.703454025e-43
1.996173734e-43
2.263175385e-43
2.507077222e-43
2.731915563e-43
2.943162975e-43
3.147763838e-43
3.3542189e-43
3.572759579e-43
3.815664118e-43
4.097782934e-43
4.437362731e-43
4.857292537e-43
5.386946926e-43
6.064882663e-43
6.942770858e-43
8.091141542e-43
9.607817772e-43
1.163037681e-42
1.435467617e-42
1.806253476e-42
2.316320364e-42
3.025543006e-42
4.021969429e-42
5.435303871e-42
7.455978372e-42
1.036032471e-41
3.800476542e-38
1.082977028e-37
5.114334904e-35
3.28260486e-32
3.212423641e-28
1.278960411e-24
6.071657092e-21
1.008357685e-17
3.020823278e-15
1.936223105e-13
6.815645229e-44
1.06648249e-43
1.424868927e-43
1.755265222e-43
2.057526194e-43
2.332900596e-43
2.584077784e-43
2.815210435e-43
3.031930154e-43
3.241380285e-43
3.452298451e-43
3.675190698e-43
3.922650679e-43
4.209892815e-43
4.555590981e-43
4.983148423e-43
5.522577665e-43
6.213251594e-43
7.107915086e-43
8.278544788e-43
9.824950259e-43
1.188747781e-42
1.466588996e-42
1.84475614e-42
2.364969505e-42
3.088244713e-42
4.104261943e-42
5.545034061e-42
7.604179937e-42
1.05622145e-41
4.119195693e-38
1.126623727e-37
5.504224149e-35
3.580458474e-32
5.103843575e-28
2.465554886e-24
7.143090178e-21
1.410434615e-17
3.907811485e-15
2.32357706e-13
6.981712371e-44
1.096574759e-43
1.467299675e-43
1.80881576e-43
2.120953719e-43
2.404987146e-43
2.663678869e-43
2.90130187e-43
3.123652144e-43
3.338078554e-43
3.553563149e-43
3.780895e-43
4.03299233e-43
4.325443535e-43
4.67736065e-43
5.112673585e-43
5.662047429e-43
6.365689086e-43
7.277439957e-43
8.470753273e-43
1.004746556e-42
1.215074792e-42
1.49843456e-42
1.884129809e-42
2.414691272e-42
3.152296512e-42
4.188286057e-42
5.657017192e-42
7.755337115e-42
1.076798388e-41
4.443669298e-38
1.171009014e-37
5.900146243e-35
3.882399911e-32
7.018058707e-28
3.664730437e-24
8.224323239e-21
2.171221635e-17
4.829233279e-15
2.74343549e-13
7.15229576e-44
1.127618029e-43
1.511132843e-43
1.864169147e-43
2.186532343e-43
2.47952153e-43
2.745975457e-43
2.990291511e-43
3.21843563e-43
3.437968986e-43
3.658125882e-43
3.889987098e-43
4.14680489e-43
4.44455191e-43
4.802789668e-43
5.245987514e-43
5.805478087e-43
6.522320613e-43
7.451476298e-43
8.667905571e-43
1.027551328e-42
1.242035221e-42
1.531022971e-42
1.924396115e-42
2.465511352e-42
3.217729539e-42
4.274080056e-42
5.771300516e-42
7.909507317e-42
1.09777023e-41
4.773986798e-38
1.216142533e-37
6.302167736e-35
4.188472746e-32