/*--------------------------------*- C++ -*----------------------------------*\
| =========                 |                                                 |
| \\      /  F ield         | OpenFOAM: The Open Source CFD Toolbox           |
|  \\    /   O peration     | Version:  v2006                                 |
|   \\  /    A nd           | Website:  www.openfoam.com                      |
|    \\/     M anipulation  |                                                 |
\*---------------------------------------------------------------------------*/
FoamFile
{
    version     2.0;
    format      ascii;
    class       volScalarField;
    location    "0.15";
    object      CH2;
}
// * * * * * * * * * * * * * * * * * * * * * * * * * * * * * * * * * * * * * //

dimensions      [0 0 0 0 0 0 0];


internalField   nonuniform List<scalar> 
168000
(
1.874158278e-29
2.005154515e-29
2.138372514e-29
2.274690721e-29
2.420442667e-29
2.57949806e-29
2.744870462e-29
2.92047618e-29
3.142466524e-29
3.388919337e-29
3.655683664e-29
4.007617388e-29
4.427328791e-29
4.890091066e-29
5.55200601e-29
6.324608661e-29
7.249176706e-29
8.581934248e-29
1.006589346e-28
1.230079281e-28
1.492788146e-28
1.870536383e-28
2.345106986e-28
3.029783984e-28
3.904937143e-28
5.234055218e-28
6.874965248e-28
9.622994556e-28
1.320608275e-27
1.859480547e-27
2.685715194e-27
3.81745315e-27
1.566827637e-25
5.664589719e-25
1.748066186e-23
1.037346339e-21
1.049016891e-18
7.056985218e-16
3.290857287e-13
3.57307412e-11
1.916208095e-29
2.049538989e-29
2.185550734e-29
2.325753654e-29
2.473838504e-29
2.63273587e-29
2.802206444e-29
2.987778625e-29
3.206604319e-29
3.455088482e-29
3.737752544e-29
4.088854382e-29
4.509922732e-29
5.004143298e-29
5.656422636e-29
6.444802743e-29
7.415955919e-29
8.728221536e-29
1.030563679e-28
1.251558427e-28
1.525605949e-28
1.904724536e-28
2.395403369e-28
3.084001998e-28
3.991339399e-28
5.31888011e-28
7.045618994e-28
9.785893522e-28
1.347714827e-27
1.898266558e-27
2.730831723e-27
3.89411045e-27
1.736723259e-25
5.873964236e-25
1.85849677e-23
1.118508668e-21
1.251822822e-18
8.023515169e-16
3.780607306e-13
4.095241889e-11
1.957965437e-29
2.094397657e-29
2.233490843e-29
2.376979405e-29
2.527678848e-29
2.688474857e-29
2.861792835e-29
3.053272743e-29
3.273308928e-29
3.525478195e-29
3.817904131e-29
4.172407219e-29
4.599135421e-29
5.112847044e-29
5.767164564e-29
6.571652952e-29
7.575823925e-29
8.891925615e-29
1.053304922e-28
1.275028151e-28
1.557706856e-28
1.940964317e-28
2.445055665e-28
3.141682655e-28
4.075685762e-28
5.412880606e-28
7.20911151e-28
9.960835019e-28
1.3751083e-27
1.936983567e-27
2.778454198e-27
3.971538195e-27
1.906802202e-25
6.088683954e-25
1.972125052e-23
1.200453934e-21
1.45502307e-18
9.002394033e-16
4.275369581e-13
4.621240165e-11
1.999914314e-29
2.139721258e-29
2.282062651e-29
2.428755497e-29
2.582364374e-29
2.745916419e-29
2.922917095e-29
3.118915509e-29
3.341948647e-29
3.598509409e-29
3.898269744e-29
4.258124786e-29
4.692266497e-29
5.220303981e-29
5.882314561e-29
6.703154954e-29
7.734058921e-29
9.065974638e-29
1.075608693e-28
1.299785188e-28
1.589714448e-28
1.978684621e-28
2.494771152e-28
3.20192308e-28
4.159536606e-28
5.513520483e-28
7.368713146e-28
1.014535576e-27
1.402847255e-27
1.97587619e-27
2.828237879e-27
4.049839736e-27
2.077621412e-25
6.308605042e-25
2.088714162e-23
1.283205538e-21
1.658960752e-18
9.992842266e-16
4.987928252e-13
5.15123245e-11
2.042278029e-29
2.185584891e-29
2.331296974e-29
2.481268359e-29
2.638022246e-29
2.804732102e-29
2.98537507e-29
3.185465283e-29
3.412276189e-29
3.673569814e-29
3.979758626e-29
4.345906371e-29
4.788210444e-29
5.328421203e-29
6.000959179e-29
6.838387314e-29
7.893213333e-29
9.246926005e-29
1.097890153e-28
1.325464946e-28
1.62196931e-28
2.017578831e-28
2.544963331e-28
3.264212001e-28
4.243837335e-28
5.619188224e-28
7.526645739e-28
1.033776497e-27
1.430979871e-27
2.01512503e-27
2.87992328e-27
4.129105527e-27
2.249640057e-25
6.533601036e-25
2.208066278e-23
3.21722835e-21
1.863907005e-18
1.924199424e-15
7.086894736e-13
5.795729154e-11
2.085171787e-29
2.232069235e-29
2.381259209e-29
2.534621433e-29
2.694703582e-29
2.864798901e-29
3.049123857e-29
3.253227672e-29
3.484202238e-29
3.750434041e-29
4.062766893e-29
4.43570281e-29
4.886537408e-29
5.43810173e-29
6.122669531e-29
6.976938703e-29
8.054533007e-29
9.433133208e-29
1.120368976e-28
1.351881127e-28
1.654660479e-28
2.057486524e-28
2.595878363e-28
3.328265634e-28
4.329160091e-28
5.728868356e-28
7.684426432e-28
1.053690952e-27
1.459546627e-27
2.054863655e-27
2.933316035e-27
4.209415966e-27
2.423236043e-25
6.763559787e-25
2.330025773e-23
7.497616761e-21
2.070095761e-18
2.98794292e-15
9.206344022e-13
6.899888501e-11
2.12867004e-29
2.279244424e-29
2.432014222e-29
2.588883445e-29
2.752442868e-29
2.926083215e-29
3.11417159e-29
3.322337159e-29
3.557704731e-29
3.82903118e-29
4.147476919e-29
4.527502195e-29
4.987100537e-29
5.549787622e-29
6.247253857e-29
7.118638893e-29
8.218641169e-29
9.6238369e-29
1.14316426e-28
1.378941436e-28
1.687895985e-28
2.098328087e-28
2.647667057e-28
3.393931718e-28
4.415852189e-28
5.841929187e-28
7.843098751e-28
1.074201126e-27
1.488582103e-27
2.095191264e-27
2.988271627e-27
4.290843466e-27
2.598718711e-25
6.998376591e-25
2.454478659e-23
1.182340276e-20
2.277706378e-18
4.062851532e-15
1.134610292e-12
8.012798199e-11
2.172829328e-29
2.327169493e-29
2.483619304e-29
2.644107929e-29
2.811273529e-29
2.988590613e-29
3.180543049e-29
3.39286406e-29
3.632791443e-29
3.909352335e-29
4.233983267e-29
4.621316235e-29
5.089869687e-29
5.663708704e-29
6.374638365e-29
7.263432697e-29
8.385866641e-29
9.818714947e-29
1.166343285e-28
1.406603255e-28
1.721740674e-28
2.140068566e-28
2.700425813e-28
3.461133717e-28
4.504126807e-28
5.95798579e-28
8.003387944e-28
1.095255427e-27
1.518116248e-27
2.136182138e-27
3.044683684e-27
4.373454107e-27
2.776338367e-25
1.464169872e-24
2.581336197e-23
1.619573912e-20
3.00279939e-18
5.148795396e-15
1.350601503e-12
9.134525091e-11
2.217696202e-29
2.375894723e-29
2.536124596e-29
2.700341225e-29
2.871230714e-29
3.052344079e-29
3.248269132e-29
3.464855341e-29
3.709484167e-29
3.991414172e-29
4.322345399e-29
4.717170654e-29
5.194861971e-29
5.779997011e-29
6.504809168e-29
7.411321094e-29
8.556400548e-29
1.001766022e-28
1.189946594e-28
1.434850303e-28
1.756236453e-28
2.182697686e-28
2.754219924e-28
3.529838572e-28
4.594118066e-28
6.076811767e-28
8.165805374e-28
1.116820627e-27
1.548175338e-27
2.177892569e-27
3.102474932e-27
4.457308e-27
2.956319013e-25
2.396519483e-24
2.710518273e-23
2.061570211e-20
8.277107461e-18
6.245706845e-15
1.568592124e-12
1.026511466e-10
2.263310659e-29
2.425463971e-29
2.589574828e-29
2.757625824e-29
2.93235101e-29
3.117374534e-29
3.317383597e-29
3.538350175e-29
3.787811907e-29
4.075244595e-29
4.412609559e-29
4.815099322e-29
5.302113308e-29
5.898739752e-29
6.637783726e-29
7.562333643e-29
8.730370774e-29
1.022067117e-28
1.214000923e-28
1.463680325e-28
1.791413135e-28
2.226218807e-28
2.809096868e-28
3.600038198e-28
4.685914283e-28
6.198282481e-28
8.330718744e-28
1.138876388e-27
1.578782727e-27
2.220365965e-27
3.161590097e-27
4.542459759e-27
3.138854784e-25
3.346604565e-24
7.75331569e-23
2.508507242e-20
1.359685503e-17
7.353438809e-15
1.788567205e-12
1.140459557e-10
2.309708099e-29
2.475916478e-29
2.644010853e-29
2.816001879e-29
2.994671783e-29
3.183716674e-29
3.387921984e-29
3.613385801e-29
3.867807863e-29
4.160877095e-29
4.50481775e-29
4.915140953e-29
5.411667114e-29
6.020003997e-29
6.773596676e-29
7.716515416e-29
8.907877118e-29
1.04277981e-28
1.238525891e-28
1.493098594e-28
1.827294212e-28
2.270642834e-28
2.865093917e-28
3.671738944e-28
4.779577906e-28
6.322338589e-28
8.498399379e-28
1.161411432e-27
1.60995944e-27
2.263636676e-27
3.221990119e-27
1.386550912e-26
3.324113492e-25
4.314305051e-24
1.427549658e-22
2.960517852e-20
1.896413153e-17
8.471863977e-15
2.010509055e-12
1.258833221e-10
2.356920628e-29
2.527288186e-29
2.699470789e-29
2.875507984e-29
3.058230717e-29
3.251407112e-29
3.459921176e-29
3.689999672e-29
3.949508053e-29
4.248348479e-29
4.599011346e-29
5.017337366e-29
5.523570053e-29
6.143848265e-29
6.912292711e-29
7.87392071e-29
9.089007754e-29
1.063911705e-28
1.263537466e-28
1.523114467e-28
1.863899935e-28
2.315984864e-28
2.922242521e-28
3.744955634e-28
4.875157336e-28
6.448962649e-28
8.669054075e-28
1.184420862e-27
1.641724659e-27
2.307732629e-27
3.283651795e-27
2.731842212e-26
3.512235741e-25
5.299567803e-24
2.090486951e-22
3.417714205e-20
2.438068169e-17
9.600855708e-15
2.577878337e-12
1.472449491e-10
2.404977968e-29
2.579612686e-29
2.755990825e-29
2.936181641e-29
3.12306559e-29
3.320483547e-29
3.533419183e-29
3.768230176e-29
4.032950632e-29
4.337697921e-29
4.695232502e-29
5.12173262e-29
5.637870591e-29
6.270328019e-29
7.053922957e-29
8.034609919e-29
9.273846865e-29
1.085471706e-28
1.289049775e-28
1.553739569e-28
1.901248949e-28
2.362262357e-28
2.980570859e-28
3.819708237e-28
4.972693855e-28
6.578164157e-28
8.842846543e-28
1.207904282e-27
1.67409612e-27
2.352677455e-27
3.346563893e-27
4.099322235e-26
3.703342169e-25
6.302368368e-24
2.764025948e-22
3.880198995e-20
2.984783906e-17
1.07403603e-14
3.327015911e-12
1.687724442e-10
2.453908127e-29
2.6329219e-29
2.813605803e-29
2.998059602e-29
3.189214221e-29
3.390984408e-29
3.608455004e-29
3.848116852e-29
4.118175534e-29
4.428966531e-29
4.793524691e-29
5.228372626e-29
5.754618636e-29
6.3994983e-29
7.19854309e-29
8.198647933e-29
9.462478121e-29
1.10746942e-28
1.315076047e-28
1.584986825e-28
1.939359162e-28
2.409494139e-28
3.04010534e-28
3.896020023e-28
5.072225615e-28
6.70997001e-28
9.019911866e-28
1.231864485e-27
1.707090449e-27
2.398491948e-27
3.410723117e-27
5.489683642e-26
3.897539426e-25
7.322708054e-24
3.448085153e-22
4.348066964e-20
3.536654652e-17
1.737726302e-14
4.082753942e-12
1.904647701e-10
2.50373788e-29
2.687246577e-29
2.872349642e-29
3.06117813e-29
3.256714489e-29
3.462948703e-29
3.685068555e-29
3.929700411e-29
4.205224272e-29
4.522197144e-29
4.893932887e-29
5.337304985e-29
5.873865537e-29
6.531415003e-29
7.346212343e-29
8.36610326e-29
9.654986254e-29
1.129914866e-28
1.341629118e-28
1.616869949e-28
1.978248198e-28
2.457699878e-28
3.100871505e-28
3.973916553e-28
5.173789881e-28
6.844418431e-28
9.200366233e-28
1.256306529e-27
1.740723436e-27
2.445195056e-27
3.476132474e-27
6.903590019e-26
4.094922795e-25
8.360610435e-24
4.142609132e-22
4.821399513e-20
4.09381556e-17
2.567350891e-14
4.845056047e-12
2.123208916e-10
2.554493125e-29
2.742616665e-29
2.932255661e-29
3.125573213e-29
3.325604415e-29
3.536415989e-29
3.763300623e-29
4.013022723e-29
4.294139815e-29
4.617434202e-29
4.996503634e-29
5.44857895e-29
5.995664194e-29
6.666135502e-29
7.496992962e-29
8.537047526e-29
9.851457745e-29
1.152818351e-28
1.3687217e-28
1.649403178e-28
2.017933651e-28
2.506899818e-28
3.162894577e-28
4.053425121e-28
5.277424257e-28
6.981555139e-28
9.384313503e-28
1.281237092e-27
1.775010261e-27
2.492804619e-27
3.54279992e-27
8.341678478e-26
4.295578335e-25
9.416117586e-24
4.847560429e-22
5.300266317e-20
4.656397179e-17
3.404673611e-14
5.61387288e-12
2.343394226e-10
2.606199159e-29
2.79906159e-29
2.993356829e-29
3.191280751e-29
3.395922247e-29
3.611426386e-29
3.843192863e-29
4.09812679e-29
4.384966518e-29
4.714723691e-29
5.101285062e-29
5.562245427e-29
6.120069162e-29
6.803718968e-29
7.650949896e-29
8.711555175e-29
1.005198112e-28
1.176190415e-28
1.396366526e-28
1.682601127e-28
2.058433219e-28
2.557114646e-28
3.226199812e-28
4.13457446e-28
5.383167321e-28
7.121430922e-28
9.571849639e-28
1.306664026e-27
1.809965675e-27
2.541337875e-27
3.610737299e-27
9.804563182e-26
4.499584655e-25
1.048928697e-23
5.562911555e-22
5.784721979e-20
5.22450857e-17
4.249717996e-14
6.389152642e-12
2.589819608e-10
2.658880878e-29
2.856610472e-29
3.055685964e-29
3.258336705e-29
3.467706559e-29
3.688020616e-29
3.924787799e-29
4.185056736e-29
4.477750085e-29
4.814113106e-29
5.208326901e-29
5.678357007e-29
6.247136755e-29
6.944226517e-29
7.808150618e-29
8.889703274e-29
1.025664706e-28
1.200041812e-28
1.424576436e-28
1.716478723e-28
2.099764783e-28
2.608365445e-28
3.290812721e-28
4.217394577e-28
5.491058923e-28
7.264100128e-28
9.763065691e-28
1.332596041e-27
1.845604161e-27
2.590811826e-27
3.679959516e-27
1.12928384e-25
4.707014368e-25
1.158018971e-23
6.288636057e-22
6.274798527e-20
5.798238655e-17
5.102505738e-14
7.17084175e-12
2.971313272e-10
2.712562945e-29
2.9152923e-29
3.119275895e-29
3.326777235e-29
3.540996343e-29
3.766240063e-29
4.008128857e-29
4.273857815e-29
4.572537553e-29
4.915651436e-29
5.31768049e-29
5.796967993e-29
6.376925111e-29
7.0877213e-29
7.96866502e-29
9.071571402e-29
1.04655485e-28
1.224383503e-28
1.453364427e-28
1.751051175e-28
2.141946458e-28
2.660673682e-28
3.35675922e-28
4.301916659e-28
5.601140312e-28
7.409619732e-28
9.958049829e-28
1.359042491e-27
1.881940047e-27
2.641243476e-27
3.750483905e-27
1.28070812e-25
4.917935327e-25
1.268891218e-23
7.024699212e-22
8.091675172e-20
8.351671891e-17
5.96305084e-14
8.845436165e-12
3.355582871e-10
2.767269915e-29
2.975136062e-29
3.184159593e-29
3.396638813e-29
3.615831101e-29
3.846126829e-29
4.093260395e-29
4.364576421e-29
4.669377289e-29
5.019389166e-29
5.429398794e-29
5.918134432e-29
6.509494243e-29
7.23426854e-29
8.13256534e-29
9.257241566e-29
1.067878062e-28
1.249226662e-28
1.482743682e-28
1.786333955e-28
2.184996626e-28
2.714061223e-28
3.424065733e-28
4.388173022e-28
5.713454157e-28
7.558048756e-28
1.015688872e-27
1.386013229e-27
1.918987614e-27
2.692650002e-27
3.822329728e-27
1.43478538e-25
5.132411704e-25
1.381556049e-23
7.771057602e-22
2.630785814e-19
1.762361672e-16
6.831413343e-14
1.100652919e-11
3.742606693e-10
2.823026339e-29
3.036170866e-29
3.250370287e-29
3.46795833e-29
3.692250928e-29
3.9277238e-29
4.180227752e-29
4.457260116e-29
4.768319012e-29
5.125378289e-29
5.543536423e-29
6.041914151e-29
6.644906088e-29
7.383935562e-29
8.299926132e-29
9.446798164e-29
1.089644087e-28
1.274582681e-28
1.512727596e-28
1.822342808e-28
2.228933968e-28
2.768550349e-28
3.492759267e-28
4.476197078e-28
5.828044536e-28
7.709447933e-28
1.035966846e-27
1.413518504e-27
1.956761176e-27
2.74504886e-27
3.895517779e-27
1.591570545e-25
5.350504569e-25
1.49602436e-23
8.527793456e-22
4.473469691e-19
2.698898368e-16
7.707603441e-14
1.318530014e-11
4.132351568e-10
2.879856852e-29
3.098426032e-29
3.317941556e-29
3.540773178e-29
3.770296589e-29
4.011074706e-29
4.269077288e-29
4.551957667e-29
4.869413811e-29
5.233672323e-29
5.660149658e-29
6.168366779e-29
6.783224529e-29
7.536791811e-29
8.470824237e-29
9.640327958e-29
1.111862904e-28
1.300463179e-28
1.543329792e-28
1.859093755e-28
2.273777489e-28
2.824163785e-28
3.562867464e-28
4.566023308e-28
5.944956898e-28
7.863879504e-28
1.056647524e-27
1.441568895e-27
1.995275139e-27
2.798457846e-27
3.970070077e-27
1.751117384e-25
5.572272475e-25
1.61230869e-23
9.294990269e-22
6.337503503e-19
3.644786185e-16
1.017122435e-13
1.53817735e-11
4.524804782e-10
2.937786241e-29
3.161931173e-29
3.386907418e-29
3.61512134e-29
3.850009596e-29
4.096224189e-29
4.359856441e-29
4.648719078e-29
4.972714177e-29
5.344326342e-29
5.779296473e-29
6.297553782e-29
6.924515434e-29
7.692908866e-29
8.645338782e-29
9.837920073e-29
1.134544727e-28
1.326880008e-28
1.574564136e-28
1.896603102e-28
2.319546538e-28
2.880924727e-28
3.634418637e-28
4.657687254e-28
6.064238028e-28
8.021407111e-28
1.077739579e-27
1.47017527e-27
2.034544051e-27
2.852895128e-27
4.046009604e-27
1.913478593e-25
5.797771854e-25
1.730422527e-23
1.007273158e-21
8.223162564e-19
4.600073608e-16
1.502598334e-13
1.759591371e-11
5.045278059e-10
2.996839511e-29
3.226716262e-29
3.4573024e-29
3.691041458e-29
3.931432275e-29
4.183217859e-29
4.452613778e-29
4.747595644e-29
5.078274038e-29
5.457397005e-29
5.901036572e-29
6.429538492e-29
7.068846677e-29
7.852360462e-29
8.823551181e-29
1.0039666e-28
1.157700007e-28
1.353845263e-28
1.606444751e-28
1.934887459e-28
2.366260833e-28
2.938856866e-28
3.707441809e-28
4.751225498e-28
6.185936016e-28
8.182095746e-28
1.099251773e-27
1.499348754e-27
2.074582641e-27
2.908379251e-27
4.123360089e-27
2.07870578e-25
6.02705707e-25
1.850379733e-23
1.086109864e-21
1.0130695e-18
5.564877058e-16
1.992410587e-13
1.982761009e-11
5.686161652e-10
3.057041934e-29
3.292811699e-29
3.529161607e-29
3.768572904e-29
4.014607831e-29
4.272102361e-29
4.547399047e-29
4.848639988e-29
5.186148805e-29
5.572942591e-29
6.025431419e-29
6.56438614e-29
7.216288167e-29
8.015222509e-29
9.005545147e-29
1.024565962e-28
1.181339441e-28
1.381371291e-28
1.638986031e-28
1.973963747e-28
2.41394048e-28
2.997984412e-28
3.781966729e-28
4.846675663e-28
6.310100229e-28
8.346011729e-28
1.121192974e-27
1.529100716e-27
2.115405835e-27
2.964929115e-27
4.202145804e-27
2.246849311e-25
6.260180173e-25
1.97219378e-23
1.166016609e-21
1.206033649e-18
6.539293477e-16
2.486550706e-13
2.215960407e-11
6.331403174e-10
3.118419095e-29
3.360248361e-29
3.60252078e-29
3.84775584e-29
4.099580414e-29
4.362925427e-29
4.644263234e-29
4.951906116e-29
5.296395406e-29
5.691023042e-29
6.152544274e-29
6.702163887e-29
7.366911881e-29
8.181573113e-29
9.191406715e-29
1.045599723e-28
1.205473974e-28
1.409470697e-28
1.672202652e-28
2.01384922e-28
2.462605994e-28
3.05833212e-28
3.858023898e-28
4.944076404e-28
6.436781296e-28
8.513222718e-28
1.143572183e-27
1.559442752e-27
2.157028777e-27
3.022563926e-27
4.282391355e-27
2.417957925e-25
6.497190366e-25
2.095876615e-23
1.246999537e-21
1.401230985e-18
7.523403186e-16
2.98500684e-13
2.741619821e-11
6.980996962e-10
3.180996938e-29
3.429057654e-29
3.677416356e-29
3.928631281e-29
4.186395175e-29
4.455735943e-29
4.743258619e-29
5.057449466e-29
5.409072343e-29
5.811700003e-29
6.282440233e-29
6.842940861e-29
7.520791896e-29
8.351492612e-29
9.381224268e-29
1.067077757e-28
1.230114807e-28
1.438156356e-28
1.706109586e-28
2.054561478e-28
2.512278319e-28
3.119925309e-28
3.935644584e-28
5.043467405e-28
6.566031097e-28
8.683797719e-28
1.166398537e-27
1.590386683e-27
2.19946682e-27
3.081303101e-27
4.36412146e-27
2.592077924e-25
6.738133215e-25
2.221437146e-23
1.329061178e-21
1.598682834e-18
8.517256438e-16
3.487816894e-13
3.2713758e-11
7.634937415e-10
3.244801796e-29
3.499271559e-29
3.753885514e-29
4.01124115e-29
4.275098327e-29
4.550583999e-29
4.844438827e-29
5.165326959e-29
5.524239733e-29
5.935036866e-29
6.415186268e-29
6.986788197e-29
7.67800442e-29
8.525063602e-29
9.575088567e-29
1.08901019e-28
1.255273401e-28
1.467441421e-28
1.740722113e-28
2.096118479e-28
2.562978849e-28
3.182789884e-28
4.01486084e-28
5.144889383e-28
6.697902757e-28
8.857807114e-28
1.189681327e-27
1.62194455e-27
2.242735533e-27
3.14116609e-27
4.447360728e-27
2.769251799e-25
6.983047269e-25
2.348879321e-23
5.517226237e-21
1.798410955e-18
9.520868945e-16
3.995015478e-13
3.805222037e-11
8.325972458e-10
3.309860429e-29
3.570922671e-29
3.831966231e-29
4.095628327e-29
4.365737198e-29
4.647520951e-29
4.947858892e-29
5.275597059e-29
5.641959362e-29
6.061098819e-29
6.550851274e-29
7.133779075e-29
7.838627834e-29
8.702370975e-29
9.773092796e-29
1.111407398e-28
1.280961486e-28
1.497339333e-28
1.776055832e-28
2.138538561e-28
2.614729441e-28
3.246952353e-28
4.095705517e-28
5.248384092e-28
6.832450651e-28
9.03532269e-28
1.213430007e-27
1.654128613e-27
2.286850707e-27
3.202172066e-27
4.532133123e-27
2.949515774e-25
1.439168487e-24
2.478231003e-23
9.787545713e-21
2.00040794e-18
1.440702137e-15
4.50663424e-13
4.34316023e-11
9.351989725e-10
3.376200057e-29
3.644044244e-29
3.911697323e-29
4.181836711e-29
4.458360293e-29
4.746599476e-29
5.053575305e-29
5.388319818e-29
5.762294738e-29
6.189952899e-29
6.689506115e-29
7.283988769e-29
8.002742735e-29
8.883501965e-29
9.975332602e-29
1.134280021e-28
1.307191066e-28
1.527863832e-28
1.812126678e-28
2.181840452e-28
2.667552439e-28
3.312439849e-28
4.178212279e-28
5.353994324e-28
6.96973041e-28
9.216417671e-28
1.237654195e-27
1.686951365e-27
2.331828439e-27
3.264339289e-27
1.200152047e-26
3.132923199e-25
2.404629783e-24
2.609509799e-23
1.411410986e-20
2.204674095e-18
2.515944407e-15
6.017703157e-13
4.885214002e-11
1.038466814e-09
3.443848383e-29
3.718670225e-29
3.993118495e-29
4.26991126e-29
4.55301734e-29
4.84787363e-29
5.161646077e-29
5.503556944e-29
5.885311146e-29
6.321668037e-29
6.831223674e-29
7.43749469e-29
8.170431981e-29
9.06854619e-29
1.018190615e-28
1.157638963e-28
1.333974431e-28
1.559028963e-28
1.848950931e-28
2.226043288e-28
2.721470688e-28
3.379280144e-28
4.262415618e-28
5.461763922e-28
7.109798934e-28
9.401166755e-28
1.262363691e-27
1.720425532e-27
2.377685098e-27
3.327688068e-27
2.544852137e-26
3.319527874e-25
3.385758639e-24
2.903259052e-23
1.849723569e-20
2.411221291e-18
3.601714814e-15
8.182627157e-13
5.431375561e-11
1.142401065e-09
3.512833625e-29
3.794835292e-29
4.076270381e-29
4.35989805e-29
4.649759351e-29
4.951398904e-29
5.272130796e-29
5.621371848e-29
6.011075701e-29
6.456315119e-29
6.976078903e-29
7.594376439e-29
8.341780741e-29
9.257595703e-29
1.039291417e-28
1.181495397e-28
1.361324158e-28
1.590849091e-28
1.886545228e-28
2.271166627e-28
2.776507552e-28
3.447501667e-28
4.34835087e-28
5.57173779e-28
7.252714404e-28
9.589646152e-28
1.287568475e-27
1.754564086e-27
2.42443738e-27
3.392240774e-27
3.914213657e-26
3.50938001e-25
4.382649891e-24
9.498316313e-23
2.293720443e-20
6.333254594e-18
4.698184346e-15
1.036611123e-12
6.403492424e-11
1.247005735e-09
3.583184541e-29
3.872574888e-29
4.161194589e-29
4.451844319e-29
4.748638675e-29
5.057232278e-29
5.385090684e-29
5.741829711e-29
6.139657411e-29
6.593967041e-29
7.124148883e-29
7.754715863e-29
8.516876544e-29
9.450745049e-29
1.060846002e-28
1.205860781e-28
1.389253127e-28
1.623338907e-28
1.924926582e-28
2.317230468e-28
2.83268693e-28
3.517133525e-28
4.436054224e-28
5.683961903e-28
7.398536303e-28
9.781933624e-28
1.31327872e-27
1.789380255e-27
2.472102402e-27
3.458020008e-27
5.308653684e-26
3.7025288e-25
5.395548662e-24
1.619035373e-22
2.743440072e-20
1.161551706e-17
5.805424315e-15
1.256818898e-12
7.540631433e-11
1.352279585e-09
3.654930451e-29
3.951925258e-29
4.247933743e-29
4.545798516e-29
4.849709047e-29
5.165432287e-29
5.500588657e-29
5.864997542e-29
6.271127236e-29
6.734698767e-29
7.275512877e-29
7.918597107e-29
8.695809345e-29
9.648091321e-29
1.082864975e-28
1.230746854e-28
1.417774525e-28
1.656513444e-28
1.964112387e-28
2.364255258e-28
2.890033277e-28
3.588205513e-28
4.525562743e-28
5.798483324e-28
7.547325437e-28
9.978108525e-28
1.339504799e-27
1.824887535e-27
2.520697669e-27
3.525048742e-27
6.728599924e-26
3.899024812e-25
6.424689412e-24
2.298027209e-22
3.198939049e-20
1.695680719e-17
6.923461483e-15
1.478894295e-12
8.686212342e-11
1.504698329e-09
3.728101266e-29
4.032923479e-29
4.336531528e-29
4.641810355e-29
4.953025651e-29
5.276059072e-29
5.618689389e-29
5.990944237e-29
6.405558147e-29
6.878587394e-29
7.430252398e-29
8.086106677e-29
8.878671577e-29
9.849734224e-29
1.105359219e-28
1.256165652e-28
1.446901855e-28
1.690388085e-28
2.004120437e-28
2.412261918e-28
2.948571614e-28
3.660748137e-28
4.61691438e-28
5.915350221e-28
7.699143959e-28
1.017825185e-27
1.366257288e-27
1.861099695e-27
2.570241052e-27
3.593350197e-27
8.174486134e-26
4.098919341e-25
7.470300655e-24
2.986904189e-22
3.660269833e-20
2.235746934e-17
8.052308491e-15
1.70284325e-12
9.840253719e-11
1.666351792e-09
3.802727509e-29
4.115607497e-29
4.427032727e-29
4.739930859e-29
5.058645168e-29
5.38917444e-29
5.739459372e-29
6.119740649e-29
6.543025196e-29
7.025712214e-29
7.588451263e-29
8.257333507e-29
9.065558222e-29
1.005577615e-28
1.128339897e-28
1.282129512e-28
1.47664895e-28
1.724978572e-28
2.044968938e-28
2.461271848e-28
3.008327548e-28
3.734792626e-28
4.710147992e-28
6.034611882e-28
7.854055392e-28
1.038244625e-27
1.393546973e-27
1.898030781e-27
2.620750783e-27
3.662947897e-27
9.646752386e-26
4.302264245e-25
8.53260699e-24
3.685762816e-22
4.127480985e-20
2.781776959e-17
9.191954793e-15
1.928669301e-12
1.100277369e-10
1.829015083e-09
3.878840334e-29
4.200016155e-29
4.519483266e-29
4.840212412e-29
5.166625835e-29
5.504841931e-29
5.862966979e-29
6.251459649e-29
6.68360558e-29
7.176154781e-29
7.750195671e-29
8.432369021e-29
9.256566873e-29
1.026632222e-28
1.151818466e-28
1.308651082e-28
1.507029977e-28
1.760301024e-28
2.08667652e-28
2.511306948e-28
3.069327292e-28
3.810370955e-28
4.805303357e-28
6.156318737e-28
8.01212466e-28
1.059077613e-27
1.421384858e-27
1.935695121e-27
2.672245441e-27
3.733865697e-27
1.114584476e-25
4.509111837e-25
9.611828916e-24
4.394697252e-22
4.600617334e-20
3.333786542e-17
1.034235088e-14
2.319076834e-12
1.217379208e-10
1.99269023e-09
3.956471555e-29
4.286189234e-29
4.613930256e-29
4.942708811e-29
5.277027502e-29
5.623126871e-29
5.989282531e-29
6.386176196e-29
6.827378708e-29
7.329998981e-29
7.915574265e-29
8.611307205e-29
9.451797814e-29
1.04814804e-28
1.175806679e-28
1.33574333e-28
1.538059453e-28
1.796371941e-28
2.12926225e-28
2.562389635e-28
3.131597674e-28
3.887515856e-28
4.902421198e-28
6.28052238e-28
8.173418114e-28
1.080332762e-27
1.449782169e-27
1.974107327e-27
2.724743958e-27
3.806127788e-27
1.2672215e-25
4.719514742e-25
1.070818238e-23
5.113796996e-22
5.079720344e-20
3.891775821e-17
1.461141257e-14
3.080595358e-12
1.406563237e-10
2.157380632e-09
4.035653667e-29
4.374167481e-29
4.71042204e-29
5.047475315e-29
5.389911691e-29
5.744096444e-29
6.118478365e-29
6.523967406e-29
6.974426277e-29
7.487331107e-29
8.08467821e-29
8.794244684e-29
9.651354088e-29
1.070136157e-28
1.2003166e-28
1.363419553e-28
1.56975225e-28
1.833208223e-28
2.172745649e-28
2.614542851e-28
3.19516616e-28
3.966260843e-28
5.001543197e-28
6.40727559e-28
8.338003564e-28
1.102018869e-27
1.478750357e-27
2.013282293e-27
2.778265604e-27
3.879758704e-27
1.422632011e-25
4.933525796e-25
1.182187834e-23
5.843143141e-22
5.564823858e-20
4.455767837e-17
2.298826956e-14
3.848501451e-12
1.625861176e-10
2.387875764e-09
4.116419863e-29
4.463992643e-29
4.809008229e-29
5.154568697e-29
5.505341653e-29
5.86781975e-29
6.250628902e-29
6.664912627e-29
7.124832346e-29
7.648239932e-29
8.257601265e-29
8.981280798e-29
9.855341581e-29
1.092607957e-28
1.225360607e-28
1.391693387e-28
1.60212361e-28
1.870827178e-28
2.217146705e-28
2.667790086e-28
3.260060871e-28
4.046640224e-28
5.102712016e-28
6.536632354e-28
8.505950312e-28
1.124144912e-27
1.508301103e-27
2.053235206e-27
2.832829991e-27
3.954783323e-27
1.5808622e-25
5.151197968e-25
1.295312286e-23
6.582802497e-22
6.055948542e-20
5.025830427e-17
3.144431534e-14
4.62279138e-12
1.846739179e-10
2.638545552e-09
4.198804064e-29
4.555707502e-29
4.909739754e-29
5.264047303e-29
5.623382432e-29
5.994367878e-29
6.385810717e-29
6.809093509e-29
7.278683407e-29
7.812816787e-29
8.434439867e-29
9.172517681e-29
1.00638691e-28
1.115575132e-28
1.250951404e-28
1.420578816e-28
1.635189156e-28
1.909246537e-28
2.262485884e-28
2.722155391e-28
3.326310595e-28
4.128689125e-28
5.205971321e-28
6.668647897e-28
8.677329181e-28
1.146720059e-27
1.538446324e-27
2.093981537e-27
2.888457061e-27
4.031226851e-27
1.741958708e-25
5.372584343e-25
1.410211923e-23
7.332820111e-22
6.553092498e-20
5.602023707e-17
3.998008521e-14
5.4034631e-12
2.069194678e-10
2.890732826e-09
4.282840936e-29
4.649355913e-29
5.012668908e-29
5.3759711e-29
5.744100924e-29
6.12381397e-29
6.524102619e-29
6.956594087e-29
7.436068472e-29
7.981155645e-29
8.615293214e-29
9.368060347e-29
1.027704848e-28
1.139049693e-28
1.277102031e-28
1.450090185e-28
1.6689649e-28
1.948484466e-28
2.30878415e-28
2.777663394e-28
3.393944811e-28
4.212443505e-28
5.311365802e-28
6.803378702e-28
8.85221255e-28
1.169753672e-27
1.569198176e-27
2.135537044e-27
2.945167074e-27
4.109114807e-27
1.905968564e-25
5.597738173e-25
1.526907478e-23
8.093209992e-22
1.846612183e-19
6.184396795e-17
4.859612883e-14
6.190509581e-12
2.293225277e-10
3.14443658e-09
4.368565914e-29
4.744982834e-29
5.117849394e-29
5.490401736e-29
5.867565947e-29
6.256233296e-29
6.66558572e-29
7.107500857e-29
7.597079154e-29
8.153353205e-29
8.800263348e-29
9.568016781e-29
1.049499463e-28
1.163043974e-28
1.303825873e-28
1.480242208e-28
1.703467259e-28
1.988559578e-28
2.356062974e-28
2.834339315e-28
3.462993705e-28
4.29794018e-28
5.418941193e-28
6.940882541e-28
9.030674387e-28
1.193255307e-27
1.600569054e-27
2.177917769e-27
3.002980581e-27
4.18847298e-27
2.072939096e-25
5.826712694e-25
1.645419348e-23
8.864064456e-22
3.696781359e-19
1.461321273e-16
5.729307782e-14
6.983913156e-12
2.518827656e-10
3.399656318e-09
4.456015227e-29
4.842634364e-29
5.225336372e-29
5.607402598e-29
5.993848301e-29
6.391703324e-29
6.810343517e-29
7.261902859e-29
7.76180975e-29
8.329508979e-29
8.989455246e-29
9.772498029e-29
1.071782569e-28
1.187570647e-28
1.331136669e-28
1.51104998e-28
1.738713066e-28
2.029490949e-28
2.404344353e-28
2.892208989e-28
3.533488186e-28
4.385216843e-28
5.528744302e-28
7.081218501e-28
9.212790283e-28
1.217234721e-27
1.632571595e-27
2.221140022e-27
3.061918384e-27
4.269327359e-27
2.242917776e-25
6.059560837e-25
1.765767947e-23
9.645512003e-22
5.569258596e-19
2.403788485e-16
6.607055056e-14
8.368695284e-12
2.898561152e-10
3.767879188e-09
4.545225918e-29
4.942357782e-29
5.335186508e-29
5.727038871e-29
6.123020843e-29
6.530303799e-29
6.958461975e-29
7.419891767e-29
7.930357333e-29
8.509725386e-29
9.18297692e-29
9.981618292e-29
1.094566308e-28
1.212642729e-28
1.359048529e-28
1.542528991e-28
1.77471958e-28
2.071298132e-28
2.453650827e-28
2.951298874e-28
3.605459911e-28
4.474312083e-28
5.64082303e-28
7.224447015e-28
9.398637483e-28
1.241701874e-27
1.665218679e-27
2.265220371e-27
3.122001448e-27
4.351704001e-27
2.415951975e-25
6.296334806e-25
1.887973872e-23
1.043767416e-21
7.464297062e-19
3.356247494e-16
7.492830449e-14
1.056138528e-11
3.28919093e-10
4.15719909e-09
4.636235871e-29
5.044201585e-29
5.447458027e-29
5.849377601e-29
6.255158554e-29
6.672116821e-29
7.110029609e-29
7.581561971e-29
8.102821845e-29
8.694107844e-29
9.380939505e-29
1.019549503e-28
1.117863161e-28
1.238273594e-28
1.387575936e-28
1.574695135e-28
1.811504504e-28
2.114001168e-28
2.504005487e-28
3.011636075e-28
3.678941297e-28
4.565265408e-28
5.755226396e-28
7.370629888e-28
9.588294926e-28
1.266666933e-27
1.69852343e-27
2.310175622e-27
3.183250732e-27
4.435628774e-27
2.592088569e-25
6.537085167e-25