/*--------------------------------*- C++ -*----------------------------------*\
| =========                 |                                                 |
| \\      /  F ield         | OpenFOAM: The Open Source CFD Toolbox           |
|  \\    /   O peration     | Version:  v2006                                 |
|   \\  /    A nd           | Website:  www.openfoam.com                      |
|    \\/     M anipulation  |                                                 |
\*---------------------------------------------------------------------------*/
FoamFile
{
    version     2.0;
    format      ascii;
    class       volScalarField;
    location    "0.15";
    object      CH2(S);
}
// * * * * * * * * * * * * * * * * * * * * * * * * * * * * * * * * * * * * * //

dimensions      [0 0 0 0 0 0 0];


internalField   nonuniform List<scalar> 
168000
(
9.995693942e-31
1.076393815e-30
1.154569753e-30
1.234584014e-30
1.319905962e-30
1.412660239e-30
1.509037205e-30
1.611216922e-30
1.739197171e-30
1.880874009e-30
2.033998487e-30
2.234722432e-30
2.47337686e-30
2.736245743e-30
3.110734102e-30
3.547356495e-30
4.069382255e-30
4.820639859e-30
5.656956642e-30
6.915416009e-30
8.394447829e-30
1.052050263e-29
1.319117723e-29
1.704379754e-29
2.196798059e-29
2.944611054e-29
3.867840973e-29
5.413938451e-29
7.429853347e-29
1.046163808e-28
1.511016224e-28
2.147749349e-28
9.612588992e-27
3.481527838e-26
1.081992957e-24
6.048401704e-23
6.297836834e-20
4.771773405e-17
2.458835824e-14
2.782843488e-12
1.022003786e-30
1.100243059e-30
1.180082185e-30
1.262350124e-30
1.349071597e-30
1.441862021e-30
1.540613384e-30
1.648400659e-30
1.774727029e-30
1.917637249e-30
2.079700626e-30
2.280037234e-30
2.519541951e-30
2.800084444e-30
3.16924145e-30
3.614785524e-30
4.163002851e-30
4.902815446e-30
5.791692446e-30
7.036166246e-30
8.578993276e-30
1.071277998e-29
1.347408965e-29
1.734878759e-29
2.245404635e-29
2.992331645e-29
3.963849395e-29
5.5055855e-29
7.582356071e-29
1.067985154e-28
1.536399254e-28
2.190877648e-28
1.065750517e-26
3.610300385e-26
1.150365449e-24
6.520838906e-23
7.518213336e-20
5.428635675e-17
2.827538426e-14
3.190460735e-12
1.04428373e-30
1.124347612e-30
1.206003194e-30
1.290197892e-30
1.378477146e-30
1.472434008e-30
1.573423015e-30
1.684580888e-30
1.811680572e-30
1.95674162e-30
2.124330973e-30
2.32664782e-30
2.569404004e-30
2.860927652e-30
3.231295861e-30
3.68594501e-30
4.252746555e-30
4.99477369e-30
5.919497331e-30
7.168107861e-30
8.759505631e-30
1.091659717e-29
1.375337765e-29
1.767325673e-29
2.292854544e-29
3.045214267e-29
4.05582892e-29
5.604007604e-29
7.736473039e-29
1.089767671e-28
1.563192153e-28
2.234439408e-28
1.170354868e-26
3.742360403e-26
1.220717775e-24
6.997833486e-23
8.740962621e-20
6.093890371e-17
3.200014445e-14
3.601068171e-12
1.066666496e-30
1.148702151e-30
1.232263786e-30
1.318341403e-30
1.408342333e-30
1.503937764e-30
1.607074975e-30
1.72084012e-30
1.849706224e-30
1.997310548e-30
2.169077808e-30
2.374467711e-30
2.621454272e-30
2.921071795e-30
3.295821841e-30
3.759711919e-30
4.341575091e-30
5.092542444e-30
6.044842886e-30
7.307286761e-30
8.939492025e-30
1.112874156e-29
1.403302007e-29
1.801212559e-29
2.340025622e-29
3.101832068e-29
4.145619425e-29
5.707818926e-29
7.89253369e-29
1.111648984e-28
1.591200966e-28
2.278492772e-28
1.275414494e-26
3.877619427e-26
1.292903277e-24
7.479521661e-23
9.968149378e-20
6.767007709e-17
3.740277642e-14
4.014793428e-12
1.089270872e-30
1.173347e-30
1.258881696e-30
1.346883797e-30
1.438737235e-30
1.536193331e-30
1.641458073e-30
1.757598051e-30
1.888666146e-30
2.039004466e-30
2.214448174e-30
2.423439461e-30
2.675075251e-30
2.981584637e-30
3.36230677e-30
3.835570118e-30
4.430920531e-30
5.194188021e-30
6.170062443e-30
7.451652998e-30
9.120867986e-30
1.134748831e-29
1.431534306e-29
1.836251787e-29
2.387449732e-29
3.161278426e-29
4.234470898e-29
5.816068252e-29
8.050809077e-29
1.133730702e-28
1.620279703e-28
2.323088632e-28
1.381211798e-26
4.015999679e-26
1.366799475e-24
1.869849459e-22
1.120140516e-19
1.335187331e-16
5.34908759e-14
4.516987139e-12
1.112158264e-30
1.19832566e-30
1.285893003e-30
1.375882307e-30
1.469690302e-30
1.569133688e-30
1.676549634e-30
1.795024007e-30
1.928510539e-30
2.081698604e-30
2.260663016e-30
2.47353497e-30
2.730026931e-30
3.042971759e-30
3.430509836e-30
3.913289269e-30
4.521481782e-30
5.298785568e-30
6.296390642e-30
7.600159074e-30
9.304696696e-30
1.157193496e-29
1.460173142e-29
1.872283702e-29
2.435448747e-29
3.222982045e-29
4.323236873e-29
5.928106819e-29
8.211526925e-29
1.156087971e-28
1.650319012e-28
2.368272219e-28
1.487979204e-26
4.157432182e-26
1.442310012e-24
4.352627179e-22
1.244213764e-19
2.093017488e-16
6.973597132e-14
5.374223278e-12
1.135368435e-30
1.223676003e-30
1.313333248e-30
1.405374903e-30
1.501220835e-30
1.602740901e-30
1.712354845e-30
1.833192676e-30
1.96922715e-30
2.12535388e-30
2.307824094e-30
2.524747262e-30
2.786227372e-30
3.105480637e-30
3.500323284e-30
3.992774075e-30
4.61360841e-30
5.405908533e-30
6.424496856e-30
7.752286012e-30
9.491585746e-30
1.18016336e-29
1.489303348e-29
1.909222644e-29
2.484218056e-29
3.28658754e-29
4.412504426e-29
6.043496856e-29
8.374881778e-29
1.178776603e-28
1.681237584e-28
2.414084275e-28
1.595906968e-26
4.301852538e-26
1.519364314e-24
6.861737062e-22
1.369142611e-19
2.858801871e-16
8.613673524e-14
6.238252925e-12
1.158931604e-30
1.249429918e-30
1.34123373e-30
1.435391098e-30
1.533347489e-30
1.63701848e-30
1.748887891e-30
1.872143248e-30
2.010820403e-30
2.169965586e-30
2.355984198e-30
2.577082725e-30
2.843659802e-30
3.169239904e-30
3.571705571e-30
4.07399365e-30
4.707484817e-30
5.515375938e-30
6.554759202e-30
7.907794158e-30
9.681899818e-30
1.203638756e-29
1.518979153e-29
1.947025551e-29
2.533877585e-29
3.351878354e-29
4.502681575e-29
6.161948096e-29
8.541042125e-29
1.201838387e-28
1.712975575e-28
2.460561974e-28
1.705149035e-26
9.034005813e-26
1.597907437e-24
9.397847757e-22
1.827344708e-19
3.632447961e-16
1.026919688e-13
7.109127973e-12
1.182872658e-30
1.275614563e-30
1.369621789e-30
1.465956382e-30
1.566089798e-30
1.671979422e-30
1.786166207e-30
1.911901976e-30
2.053302546e-30
2.215543177e-30
2.405176546e-30
2.630555663e-30
2.902333827e-30
3.234323439e-30
3.644648787e-30
4.156948555e-30
4.803218168e-30
5.627127574e-30
6.687405511e-30
8.066591936e-30
9.875874601e-30
1.227613901e-29
1.549237282e-29
1.985673822e-29
2.584502782e-29
3.418727115e-29
4.594056005e-29
6.283273603e-29
8.710155795e-29
1.225304995e-28
1.745489507e-28
2.507739137e-28
1.815843174e-26
1.480659466e-25
1.677889778e-24
1.196158354e-21
5.215880124e-19
4.413907554e-16
1.194004526e-13
7.98688373e-12
1.207212983e-30
1.302253618e-30
1.398521787e-30
1.497094089e-30
1.599468027e-30
1.707641018e-30
1.824208726e-30
1.952490774e-30
2.096689839e-30
2.262102324e-30
2.455426988e-30
2.685184976e-30
2.962269547e-30
3.300780026e-30
3.719162626e-30
4.241655348e-30
4.900880161e-30
5.741162526e-30
6.822586024e-30
8.228666636e-30
1.007367773e-29
1.252090679e-29
1.580104441e-29
2.025162905e-29
2.63614333e-29
3.487063703e-29
4.686834581e-29
6.407358952e-29
8.882354164e-29
1.249200849e-28
1.778748284e-28
2.555646489e-28
1.928108782e-26
2.068899113e-25
4.614310051e-24
1.455397725e-21
8.633608596e-19
5.203075871e-16
1.362610406e-13
8.871542458e-12
1.231971504e-30
1.329368264e-30
1.427955961e-30
1.528826242e-30
1.633502822e-30
1.744022574e-30
1.863035299e-30
1.993930459e-30
2.141000869e-30
2.30966179e-30
2.506759008e-30
2.740992291e-30
3.023491247e-30
3.368647176e-30
3.795266428e-30
4.328139279e-30
5.000526747e-30
5.85750902e-30
6.960410968e-30
8.394047858e-30
1.027544129e-29
1.277075219e-29
1.611601593e-29
2.065496366e-29
2.688834357e-29
3.556854728e-29
4.781169946e-29
6.53414069e-29
9.057755525e-29
1.273545272e-28
1.812729929e-28
8.288279984e-28
2.04204907e-26
2.668045179e-25
8.410800443e-24
1.717579947e-21
1.208187251e-18
5.999862213e-16
1.532723768e-13
9.789950236e-12
1.257165384e-30
1.356977903e-30
1.457945049e-30
1.561173985e-30
1.668214971e-30
1.781144406e-30
1.902666476e-30
2.036241939e-30
2.186255771e-30
2.358242165e-30
2.559195737e-30
2.798000983e-30
3.08602502e-30
3.437957618e-30
3.872985185e-30
4.416430761e-30
5.102207367e-30
5.976209721e-30
7.100970051e-30
8.562788179e-30
1.048127916e-29
1.30257601e-29
1.643746426e-29
2.106682541e-29
2.742603087e-29
3.628090373e-29
4.877178437e-29
6.663591262e-29
9.236467793e-29
1.298353977e-28
1.847421388e-28
1.656226454e-27
2.157750513e-26
3.278064761e-25
1.226968596e-23
1.982770078e-21
1.556179278e-18
6.804176361e-16
1.972270519e-13
1.14315235e-11
1.282810517e-30
1.385100666e-30
1.488508735e-30
1.594157856e-30
1.703625287e-30
1.819027394e-30
1.943123392e-30
2.079446616e-30
2.232475851e-30
2.407865346e-30
2.612760738e-30
2.85623568e-30
3.149897971e-30
3.508742376e-30
3.952347502e-30
4.506563634e-30
5.205969225e-30
6.097314612e-30
7.244342623e-30
8.734952915e-30
1.069129615e-29
1.328602868e-29
1.676554787e-29
2.14873266e-29
2.797472742e-29
3.70077598e-29
4.974952155e-29
6.795708444e-29
9.418590747e-29
1.32364026e-28
1.88281634e-28
2.497271523e-27
2.275287306e-26
3.898942715e-25
1.619028263e-23
2.251027682e-21
1.907422614e-18
7.615980052e-16
2.553583639e-13
1.308584319e-11
1.308921877e-30
1.413753784e-30
1.51966597e-30
1.627797972e-30
1.739754587e-30
1.857692795e-30
1.984427705e-30
2.123566505e-30
2.27968339e-30
2.458554295e-30
2.667478304e-30
2.915722046e-30
3.215138011e-30
3.581032242e-30
4.033384543e-30
4.598574254e-30
5.311859246e-30
6.220877606e-30
7.390602997e-30
8.910614692e-30
1.090559292e-29
1.355166377e-29
1.710041529e-29
2.191659809e-29
2.853464779e-29
3.774926675e-29
5.074567092e-29
6.930507942e-29
9.604217924e-29
1.349415817e-28
1.918912932e-28
3.352389203e-27
2.394725042e-26
4.530679846e-25
2.017211606e-23
2.522407715e-21
2.261977838e-18
1.247831248e-15
3.140018555e-13
1.47528296e-11
1.335513782e-30
1.44295386e-30
1.5514352e-30
1.662114176e-30
1.776623712e-30
1.897162167e-30
2.026601555e-30
2.168624254e-30
2.327901528e-30
2.510332921e-30
2.723373562e-30
2.976486688e-30
3.281773855e-30
3.65485849e-30
4.116129471e-30
4.692501014e-30
5.419924952e-30
6.346954945e-30
7.539823271e-30
9.089850578e-30
1.112426855e-29
1.382277597e-29
1.744221012e-29
2.235478363e-29
2.91060016e-29
3.850563959e-29
5.176088612e-29
7.068018208e-29
9.793438156e-29
1.37569131e-28
1.955712854e-28
4.221987609e-27
2.51612232e-26
5.173290746e-25
2.421486356e-23
2.79695739e-21
2.619931779e-18
1.856307893e-15
3.731547034e-13
1.643240317e-11
1.362600082e-30
1.472717062e-30
1.583834548e-30
1.697126159e-30
1.814253567e-30
1.937457357e-30
2.069667549e-30
2.214643135e-30
2.3771542e-30
2.563226021e-30
2.780472506e-30
3.038557135e-30
3.349835089e-30
3.730253225e-30
4.200617141e-30
4.788384055e-30
5.530214851e-30
6.475604488e-30
7.692074842e-30
9.272740562e-30
1.134742195e-29
1.409947909e-29
1.779107423e-29
2.280203671e-29
2.968900034e-29
3.927713549e-29
5.279575142e-29
7.208276815e-29
9.986336836e-29
1.402476774e-28
1.993220584e-28
5.106458577e-27
2.639532069e-26
5.826801462e-25
2.831830709e-23
3.074717121e-21
2.981368308e-18
2.470430619e-15
4.328130785e-13
1.812445739e-11
1.390194308e-30
1.503059283e-30
1.616881948e-30
1.732853561e-30
1.85266518e-30
1.97860051e-30
2.113648762e-30
2.261647038e-30
2.427466102e-30
2.617259239e-30
2.83880201e-30
3.101961835e-30
3.419352222e-30
3.80724956e-30
4.286883925e-30
4.886265102e-30
5.642778597e-30
6.606885399e-30
7.84742923e-30
9.459366775e-30
1.157515259e-29
1.438188943e-29
1.814714963e-29
2.325851894e-29
3.028386102e-29
4.006404014e-29
5.385080665e-29
7.351327927e-29
1.018299697e-28
1.429781909e-28
2.031442782e-28
6.006179823e-27
2.765002637e-26
6.491247564e-25
3.248228663e-23
3.35571858e-21
3.346357495e-18
3.090216689e-15
4.929729614e-13
2.001116066e-11
1.418309777e-30
1.533996251e-30
1.650595252e-30
1.769316057e-30
1.891879753e-30
2.0206141e-30
2.158568738e-30
2.309660461e-30
2.478862667e-30
2.672459054e-30
2.898389833e-30
3.166730175e-30
3.490356747e-30
3.885881699e-30
4.374967616e-30
4.986187353e-30
5.757667065e-30
6.740858038e-30
8.005958552e-30
9.649813093e-30
1.180756098e-29
1.467012553e-29
1.851057977e-29
2.372439905e-29
3.089080776e-29
4.086665925e-29
5.492656403e-29
7.497220546e-29
1.03835e-28
1.457616278e-28
2.070387836e-28
6.92151683e-27
2.892578678e-26
7.166673089e-25
3.670664818e-23
3.639980344e-21
3.714956466e-18
3.715682011e-15
5.53630194e-13
2.289789844e-11
1.446959682e-30
1.565543626e-30
1.684992323e-30
1.806533429e-30
1.931918716e-30
2.063520958e-30
2.204451514e-30
2.358708521e-30
2.531370062e-30
2.728852766e-30
2.959264628e-30
3.232892495e-30
3.562881176e-30
3.966184986e-30
4.464907359e-30
5.088195417e-30
5.87493238e-30
6.877583936e-30
8.167735798e-30
9.844164963e-30
1.204474893e-29
1.496430809e-29
1.888151038e-29
2.419985246e-29
3.151007256e-29
4.168531329e-29
5.602351955e-29
7.646007297e-29
1.058792657e-28
1.485989448e-28
2.110065496e-28
7.852824502e-27
3.022301926e-26
7.853131507e-25
4.09911896e-23
4.723328399e-21
5.433707838e-18
4.346836857e-15
6.842151911e-13
2.580564151e-11
1.476157161e-30
1.597717072e-30
1.7200911e-30
1.844525633e-30
1.972803778e-30
2.107344307e-30
2.251321638e-30
2.408816961e-30
2.585015185e-30
2.786468503e-30
3.021455947e-30
3.300480106e-30
3.63695907e-30
4.048195927e-30
4.556743619e-30
5.192335265e-30
5.994627937e-30
7.01712582e-30
8.332835015e-30
1.004250933e-29
1.228681978e-29
1.526456004e-29
1.926009005e-29
2.468506089e-29
3.214189544e-29
4.25203343e-29
5.714216072e-29
7.797743602e-29
1.0796357e-28
1.514911082e-28
2.150486599e-28
8.800448605e-27
3.154211846e-26
8.550688504e-25
4.533565815e-23
1.568484155e-20
1.173500272e-17
4.98372526e-15
8.528981144e-13
2.87342256e-11
1.50591535e-30
1.630532318e-30
1.75590967e-30
1.883312855e-30
2.014556974e-30
2.152107803e-30
2.299204192e-30
2.460012167e-30
2.639825678e-30
2.845335227e-30
3.084994259e-30
3.36952531e-30
3.712625062e-30
4.131952203e-30
4.650518158e-30
5.29865421e-30
6.116808413e-30
7.159547639e-30
8.501331432e-30
1.024493466e-29
1.253387853e-29
1.557100663e-29
1.964647065e-29
2.518021226e-29
3.278652431e-29
4.337206387e-29
5.82829719e-29
7.95248712e-29
1.100887183e-28
1.544391001e-28
2.191662845e-28
9.764726927e-27
3.288345996e-26
9.25941155e-25
4.974053244e-23
2.677311581e-20
1.809978805e-17
5.626354699e-15
1.022960878e-12
3.16833997e-11
1.536247433e-30
1.664005212e-30
1.792466309e-30
1.922915557e-30
2.057200708e-30
2.197835565e-30
2.348124826e-30
2.512321185e-30
2.695829942e-30
2.905482745e-30
3.149910956e-30
3.440061412e-30
3.789914875e-30
4.217492681e-30
4.74627402e-30
5.407200892e-30
6.241529785e-30
7.304914612e-30
8.673301562e-30
1.045153097e-29
1.278603198e-29
1.588377564e-29
2.004080759e-29
2.568550049e-29
3.344421479e-29
4.424085213e-29
5.944643795e-29
8.110297368e-29
1.122555208e-28
1.574439216e-28
2.233606619e-28
1.074599016e-26
3.424740386e-26
9.979378259e-25
5.420629849e-23
3.798986226e-20
2.452812435e-17
7.470808778e-15
1.194405391e-12
3.465306761e-11
1.567166674e-30
1.698151761e-30
1.829779538e-30
1.963354527e-30
2.100757795e-30
2.244552214e-30
2.398109779e-30
2.56577175e-30
2.753057151e-30
2.966941724e-30
3.216238374e-30
3.512122741e-30
3.868865336e-30
4.304857424e-30
4.844055531e-30
5.518025274e-30
6.368849349e-30
7.453293271e-30
8.84882328e-30
1.066238988e-29
1.30433889e-29
1.620299746e-29
2.044326011e-29
2.620112544e-29
3.411523003e-29
4.512705707e-29
6.063304677e-29
8.27123548e-29
1.144647962e-28
1.605065949e-28
2.276330853e-28
1.174456238e-26
3.563429723e-26
1.071067215e-24
5.873344257e-23
4.93367376e-20
3.102034113e-17
1.112565728e-14
1.36722888e-12
3.854224071e-11
1.598686458e-30
1.732988173e-30
1.867868156e-30
2.004650918e-30
2.145251501e-30
2.292282907e-30
2.449185918e-30
2.620392304e-30
2.811537277e-30
3.029743712e-30
3.28400981e-30
3.585744667e-30
3.949514395e-30
4.394087701e-30
4.943908296e-30
5.63117865e-30
6.498825744e-30
7.604751512e-30
9.027975908e-30
1.08776047e-29
1.33060601e-29
1.652880529e-29
2.085399138e-29
2.672729287e-29
3.479984052e-29
4.603104425e-29
6.184329116e-29
8.435364045e-29
1.16717373e-28
1.636281633e-28
2.319848895e-28
1.276076097e-26
3.704447441e-26
1.145337903e-24
6.332243751e-23
6.081523488e-20
3.75772296e-17
1.481315146e-14
1.541422705e-12
4.329632541e-11
1.630820311e-30
1.768530886e-30
1.906751282e-30
2.046826283e-30
2.190705576e-30
2.341053371e-30
2.50138076e-30
2.676212028e-30
2.871301109e-30
3.093921155e-30
3.353259538e-30
3.660963614e-30
4.031901138e-30
4.485225994e-30
5.04587921e-30
5.746713649e-30
6.631518976e-30
7.759358636e-30
9.210840281e-30
1.109727052e-29
1.357415858e-29
1.686133522e-29
2.127316867e-29
2.726421435e-29
3.549832391e-29
4.695318675e-29
6.307767012e-29
8.602747011e-29
1.190140909e-28
1.6680969e-28
2.3641744e-28
1.379489569e-26
3.847825549e-26
1.220758231e-24
6.797371789e-23
7.242677229e-20
4.419944858e-17
1.853322745e-14
1.723446374e-12
4.808273728e-11
1.66358193e-30
1.8047966e-30
1.946448382e-30
2.089902612e-30
2.237144291e-30
2.390889936e-30
2.554722508e-30
2.733260869e-30
2.932380283e-30
3.159507423e-30
3.424022832e-30
3.737817085e-30
4.116065805e-30
4.578316018e-30
5.150016467e-30
5.864684258e-30
6.766990449e-30
7.917185405e-30
9.397498824e-30
1.132148427e-29
1.384779966e-29
1.720072643e-29
2.170096351e-29
2.781210727e-29
3.621096498e-29
4.789386512e-29
6.433668981e-29
8.773449618e-29
1.213558018e-28
1.700522554e-28
2.409321212e-28
1.484726626e-26
3.993594307e-26
1.297335595e-24
7.268764124e-23
8.417269067e-20
5.088754392e-17
2.228579602e-14
2.133789257e-12
5.29014343e-11
1.696985205e-30
1.841802305e-30
1.986979305e-30
2.133902364e-30
2.284592471e-30
2.441819566e-30
2.60924008e-30
2.791569565e-30
2.994807303e-30
3.226536832e-30
3.496335988e-30
3.816343679e-30
4.202049809e-30
4.673402732e-30
5.256369574e-30
5.985145835e-30
6.905302996e-30
8.078304091e-30
9.588035618e-30
1.155034483e-29
1.412710104e-29
1.754712125e-29
2.21375517e-29
2.83711948e-29
3.693805551e-29
4.885346752e-29
6.562086436e-29
8.947538363e-29
1.237433695e-28
1.733569521e-28
2.455303236e-28
1.591815746e-26
4.141781739e-26
1.37507551e-24
7.74643549e-23
9.605427317e-20
5.764185716e-17
2.607114253e-14
2.547330017e-12
5.775237492e-11
1.731044236e-30
1.879565302e-30
2.028364311e-30
2.1788485e-30
2.333075527e-30
2.493869897e-30
2.664963142e-30
2.851169678e-30
3.058615574e-30
3.295044668e-30
3.570236346e-30
3.896583111e-30
4.289895751e-30
4.77053236e-30
5.364989373e-30
6.108155136e-30
7.046520917e-30
8.242788524e-30
9.782536474e-30
1.178395311e-29
1.441218295e-29
1.790066532e-29
2.258311348e-29
2.894170594e-29
3.767989431e-29
4.983238984e-29
6.693071639e-29
9.12508098e-29
1.261776698e-28
1.767248742e-28
2.502134317e-28
1.70078306e-26
4.29241155e-26
1.453980419e-24
3.203928109e-22
1.080728292e-19
6.446249506e-17
2.988952752e-14
2.964063732e-12
6.286233021e-11
1.765773353e-30
1.918103231e-30
2.070624094e-30
2.224764508e-30
2.382619487e-30
2.54706926e-30
2.721922138e-30
2.912093627e-30
3.123839426e-30
3.365067219e-30
3.645762317e-30
3.978576241e-30
4.379647447e-30
4.869752408e-30
5.475928059e-30
6.233770343e-30
7.190710012e-30
8.410714154e-30
9.981089004e-30
1.202241212e-29
1.470316824e-29
1.826150764e-29
2.303783355e-29
2.952387548e-29
3.84367872e-29
5.083103589e-29
6.82667776e-29
9.306146444e-29
1.28659591e-28
1.801571002e-28
2.549827938e-28
1.811650843e-26
8.879183849e-26
1.534067573e-24
5.680863922e-22
1.202279129e-19
9.907347409e-17
3.374118926e-14
3.383991726e-12
7.029417314e-11
1.801187131e-30
1.957434089e-30
2.113779811e-30
2.271674437e-30
2.433251028e-30
2.601446723e-30
2.78014832e-30
2.974374711e-30
3.190514144e-30
3.436641797e-30
3.722953408e-30
4.062365092e-30
4.471349951e-30
4.971111693e-30
5.589239208e-30
6.36205109e-30
7.337937628e-30
8.582158094e-30
1.018378269e-29
1.226582708e-29
1.500018248e-29
1.862980076e-29
2.350190121e-29
3.011794409e-29
3.920904708e-29
5.184981753e-29
6.962958917e-29
9.490805027e-29
1.311900388e-28
1.836546575e-28
7.14174129e-28
1.924451905e-26
1.485676558e-25
1.615347872e-24
8.190423495e-22
1.325195428e-19
1.756756693e-16
4.529575947e-14
3.807132439e-12
7.777426533e-11
1.837300409e-30
1.99757625e-30
2.157853105e-30
2.319602921e-30
2.484997505e-30
2.657032112e-30
2.839673785e-30
3.038047148e-30
3.258676003e-30
3.509806771e-30
3.801850249e-30
4.147992883e-30
4.565049577e-30
5.074660363e-30
5.704977801e-30
6.493058501e-30
7.488272697e-30
8.757199188e-30
1.039070895e-29
1.251430551e-29
1.530335406e-29
1.900570078e-29
2.397551039e-29
3.072415831e-29
3.999699396e-29
5.288915493e-29
7.101970224e-29
9.679128328e-29
1.337699339e-28
1.872186885e-28
1.541203765e-27
2.039219335e-26
2.093135059e-25
1.791147629e-24
1.073279071e-21
1.449484331e-19
2.530279066e-16
6.188940617e-14
4.233479791e-12
8.530262805e-11
1.874128301e-30
2.03854849e-30
2.202866132e-30
2.368575209e-30
2.537886981e-30
2.71385605e-30
2.900531502e-30
3.103146102e-30
3.328362296e-30
3.584601597e-30
3.882494627e-30
4.235504051e-30
4.660793931e-30
5.180449929e-30
5.823200259e-30
6.626855225e-30
7.641785782e-30
8.935918061e-30
1.060196124e-29
1.276795729e-29
1.561281429e-29
1.938936754e-29
2.445885978e-29
3.134277067e-29
4.080095509e-29
5.394947677e-29
7.243767829e-29
9.871189312e-29
1.364002156e-28
1.908504519e-28
2.383400515e-27
2.155984008e-26
2.710352599e-25
5.630053271e-24
1.330812866e-21
3.96702858e-19
3.311423675e-16
7.862531135e-14
4.98883585e-12
9.28795518e-11
1.911686213e-30
2.08037e-30
2.248841581e-30
2.41861719e-30
2.591948258e-30
2.771949987e-30
2.962755348e-30
3.169707721e-30
3.399611365e-30
3.661066849e-30
3.964929512e-30
4.324944286e-30
4.758631938e-30
5.288533293e-30
5.943964472e-30
6.76350547e-30
7.798549125e-30
9.11839718e-30
1.081763507e-29
1.302689475e-29
1.592869748e-29
1.978096465e-29
2.495215285e-29
3.197403973e-29
4.1621265e-29
5.503122043e-29
7.388408958e-29
1.006706239e-28
1.390818469e-28
1.945512191e-28
3.241020872e-27
2.27477618e-26
3.337480935e-25
9.525409477e-24
1.591666046e-21
7.360673468e-19
4.100241323e-16
9.550373272e-14
5.871676316e-12
1.005049469e-10
1.949989852e-30
2.123060408e-30
2.295802699e-30
2.469755424e-30
2.647210905e-30
2.831346231e-30
3.026380139e-30
3.237769167e-30
3.472462641e-30
3.739244254e-30
4.04919909e-30
4.416360563e-30
4.858613875e-30
5.398964783e-30
6.06732984e-30
6.903075051e-30
7.958636696e-30
9.304720916e-30
1.103782813e-29
1.329123279e-29
1.625114105e-29
2.01806596e-29
2.545559801e-29
3.261823014e-29
4.245826569e-29
5.613483227e-29
7.535951952e-29
1.026682349e-28
1.418158125e-28
1.983222824e-28
4.114327863e-27
2.395626947e-26
3.974665223e-25
1.347774055e-23
1.855871435e-21
1.079224123e-18
4.896751074e-16
1.125253027e-13
6.761070812e-12
1.112745944e-10
1.989055243e-30
2.166639797e-30
2.343773315e-30
2.522017165e-30
2.703705292e-30
2.892077979e-30
3.091441667e-30
3.307368651e-30
3.546956671e-30
3.819176724e-30
4.135348802e-30
4.509801172e-30
4.960791405e-30
5.511800186e-30
6.193357305e-30
7.045631427e-30
8.122124247e-30
9.494975605e-30
1.126264035e-29
1.356108892e-29
1.658028564e-29
2.058862387e-29
2.596940864e-29
3.327561276e-29
4.331230673e-29
5.726076784e-29
7.686456306e-29
1.047055006e-28
1.446031178e-28
2.021649482e-28
5.003588234e-27
2.518567856e-26
4.622046937e-25
1.748761138e-23
2.12345946e-21
1.426195308e-18
5.700961934e-16
1.296904764e-13
7.657033751e-12
1.22663242e-10
2.028898743e-30
2.211128722e-30
2.392777861e-30
2.575430389e-30
2.761462615e-30
2.954179355e-30
3.15797673e-30
3.37854547e-30
3.623135162e-30
3.900908396e-30
4.223425373e-30
4.605315756e-30
5.065217614e-30
5.62709679e-30
6.322109395e-30
7.191243752e-30
8.289089361e-30
9.689249609e-30
1.149217396e-29
1.383658338e-29
1.691627513e-29
2.100503302e-29
2.649380321e-29
3.394646479e-29
4.418374537e-29
5.840949211e-29
7.839982699e-29
1.067832112e-28
1.474447884e-28
2.060805399e-28
5.909072618e-27
2.643630798e-26
5.279765127e-25
2.155558367e-23
2.394458288e-21
1.776997996e-18
6.512866387e-16
1.46999525e-13
8.559579208e-12
1.341230328e-10
2.069537046e-30
2.256548232e-30
2.442841399e-30
2.630023824e-30
2.820514933e-30
3.01768544e-30
3.226023175e-30
3.451340045e-30
3.701041011e-30
3.984484664e-30
4.313476856e-30
4.702955352e-30
5.171947047e-30
5.744913417e-30
6.453650265e-30
7.339982919e-30
8.459611509e-30
9.887633386e-30
1.172653356e-29
1.411783919e-29
1.725925685e-29
2.143006678e-29
2.70290054e-29
3.46310698e-29
4.507294677e-29
5.958147973e-29
7.996593025e-29
1.089021728e-28
1.503418695e-28
2.100703994e-28
6.831055339e-27
2.770847943e-26
5.947956302e-25
2.568220548e-23
2.668893919e-21
2.131642304e-18
7.332429163e-16
1.771446353e-13
9.468722565e-12
1.456541097e-10
2.110987202e-30
2.302919881e-30
2.493989639e-30
2.685826975e-30
2.880895196e-30
3.082632305e-30
3.295619925e-30
3.525793955e-30
3.780718348e-30
4.069952223e-30
4.405552666e-30
4.802772423e-30
5.281035749e-30
5.865310471e-30
6.588045746e-30
7.491921612e-30
8.633772109e-30
1.009021955e-29
1.196582624e-29
1.440498227e-29
1.760938154e-29
2.186390916e-29
2.757524414e-29
3.532971793e-29
4.598028409e-29
6.077721525e-29
8.156350428e-29
1.110632071e-28
1.53295426e-28
2.141358877e-28
7.769814198e-27
2.900251655e-26
6.626754155e-25
2.986799777e-23
2.946790404e-21
2.490128322e-18
1.044973421e-15
2.36236671e-13
1.092520748e-11
1.572567123e-10
2.153266628e-30
2.350265755e-30
2.546248967e-30
2.742870156e-30
2.942637276e-30
3.149057051e-30
3.366807025e-30
3.60194998e-30
3.862212576e-30
4.157359108e-30
4.499703623e-30
4.904820906e-30
5.39254131e-30
5.988349978e-30
6.725363387e-30
7.647134358e-30
8.811654582e-30
1.029710294e-29
1.22101616e-29
1.469814151e-29
1.796680357e-29
2.230674852e-29
2.81327538e-29
3.604270599e-29
4.690613871e-29
6.199719337e-29
8.319319319e-29
1.132671522e-28
1.563065422e-28
2.18278385e-28
8.725630243e-27
3.031874425e-26
7.31628929e-25
3.41134325e-23
3.22816737e-21
2.852470851e-18
1.659362248e-15
2.958243662e-13
1.261044235e-11
1.730897339e-10
2.196393118e-30
2.398608483e-30
2.599646468e-30
2.801184515e-30
3.005776004e-30
3.216997841e-30
3.439625675e-30
3.679852136e-30
3.945570411e-30
4.246754735e-30
4.595981997e-30
5.009156251e-30
5.506522906e-30
6.114095635e-30
6.865672509e-30
7.80569758e-30
8.993344417e-30
1.050838071e-29
1.245965187e-29
1.499744888e-29
1.833168095e-29
2.275877774e-29
2.870177424e-29
3.677033755e-29
4.785090038e-29
6.324191914e-29
8.485565413e-29
1.155148623e-28
1.593763212e-28
2.224992908e-28
9.698787532e-27
3.165748829e-26
8.016689275e-25
3.841889855e-23
3.513036805e-21
3.218713472e-18
2.279559055e-15
3.55907431e-13
1.43078195e-11
1.902241078e-10
2.240384855e-30
2.447971261e-30
2.654209951e-30
2.860802064e-30
3.070347202e-30
3.28649394e-30
3.514118273e-30
3.759545725e-30
4.030839924e-30
4.338189944e-30
4.694441546e-30
5.11583547e-30
5.623041347e-30
6.242612858e-30
7.009044254e-30
7.967689658e-30
9.178929229e-30
1.072415234e-29
1.271441199e-29
1.530303946e-29
1.870417547e-29
2.322019424e-29
2.928255097e-29
3.751292317e-29
4.881496742e-29
6.451190825e-29
8.655155741e-29
1.178072076e-28
1.625058848e-28
2.268000232e-28
1.068957288e-26
3.301907511e-26
8.72807997e-25
4.278465809e-23
3.801397605e-21
3.588894807e-18
2.905603101e-15
4.164857068e-13
1.601731917e-11
2.074622085e-10
2.285260426e-30
2.498377868e-30
2.709967973e-30
2.921755714e-30
3.136387717e-30
3.357585751e-30
3.590328455e-30
3.841077368e-30
4.118070589e-30
4.431717048e-30
4.795137572e-30
5.224917182e-30
5.742159124e-30
6.373968833e-30
7.155551641e-30
8.133190982e-30
9.368498829e-30
1.09445198e-29
1.297455964e-29
1.56150516e-29
1.908445276e-29
2.369120016e-29
2.987533524e-29
3.827078047e-29
4.979874689e-29
6.580768719e-29
8.828158674e-29
1.201450748e-28
1.656963728e-28
2.311820176e-28
1.169827549e-26
3.440383219e-26
9.450589717e-25
4.721079261e-23
1.096609802e-20
3.963046413e-18
3.537534699e-15
4.775586479e-13
1.773892297e-11
2.24803967e-10
2.331038831e-30
2.549852685e-30
2.766949865e-30
2.984079301e-30
3.203935457e-30
3.430314855e-30
3.668301135e-30
3.92449506e-30
4.207313324e-30
4.527389878e-30
4.898126959e-30
5.336461661e-30
5.863940465e-30
6.508232566e-30
7.305269619e-30
8.302284015e-30
9.562145289e-30
1.116958754e-29
1.32402154e-29
1.593362699e-29
1.947268247e-29
2.417200244e-29
3.048038419e-29
3.90442343e-29
5.080265479e-29
6.71297935e-29
9.004643936e-29
1.22529366e-28
1.689489413e-28
2.35646725e-28
1.272518642e-26
3.581208691e-26
1.018434481e-24
5.169783945e-23
2.209941049e-20
9.689099413e-18
4.175400174e-15
5.391248834e-13
1.947260537e-11
2.422493495e-10
2.377739498e-30
2.602420718e-30
2.825185759e-30
3.04780762e-30
3.273029429e-30
3.504724055e-30
3.748082553e-30
4.009848206e-30
4.298620545e-30
4.625263834e-30
5.003468231e-30
5.450530894e-30
5.988451382e-30
6.645474944e-30
7.45827513e-30
8.475053357e-30
9.759963007e-30
1.13994626e-29
1.351150278e-29
1.625891072e-29
1.986903828e-29
2.466281295e-29
3.109796097e-29
3.983361694e-29
5.182711623e-29
6.847877595e-29
9.184682612e-29
1.249609989e-28
1.722647605e-28
2.401956074e-28
1.377059758e-26
3.724416477e-26
1.09294716e-24
5.624654653e-23
3.336696037e-20
1.609418738e-17
4.819171535e-15
6.470033272e-13
2.234738541e-11
2.667176655e-10
2.425382292e-30
2.656107616e-30
2.884706615e-30
3.11297646e-30
3.343709776e-30
3.580857412e-30
3.829720318e-30
4.097187677e-30
4.39204621e-30
4.725395932e-30
5.111221602e-30
5.567188626e-30
6.115759728e-30
6.785768787e-30
7.614647167e-30
8.651585811e-30
9.962048784e-30
1.163425472e-29
1.378854831e-29
1.659105143e-29
2.027369805e-29
2.516384858e-29
3.172833489e-29
4.06392682e-29
5.287256565e-29
6.985519474e-29
9.36834715e-29
1.274409054e-28
1.756450097e-28
2.448301306e-28
1.483480029e-26
3.87003868e-26
1.168609762e-24
6.085762117e-23
4.477027107e-20
2.25671803e-17
5.468830992e-15
8.181525036e-13
2.530325511e-11
2.925049391e-10
2.473987534e-30
2.710939693e-30
2.94554425e-30
3.179622634e-30
3.416017816e-30
3.658760294e-30
3.913263456e-30
4.186565855e-30
4.487645876e-30
4.827844862e-30
5.221449029e-30
5.686500421e-30
6.245935258e-30
6.929188912e-30
7.774466837e-30
8.831970446e-30
1.01685019e-29
1.187407635e-29
1.407148166e-29
1.693020137e-29
2.068684397e-29
2.567533141e-29
3.237178155e-29
4.146153562e-29
5.393944697e-29
7.12596217e-29
9.555711366e-29
1.299700309e-28
1.79090868e-28
2.495517497e-28
1.59180828e-26
4.018106394e-26
1.245434817e-24