/*--------------------------------*- C++ -*----------------------------------*\
| =========                 |                                                 |
| \\      /  F ield         | OpenFOAM: The Open Source CFD Toolbox           |
|  \\    /   O peration     | Version:  v2006                                 |
|   \\  /    A nd           | Website:  www.openfoam.com                      |
|    \\/     M anipulation  |                                                 |
\*---------------------------------------------------------------------------*/
FoamFile
{
    version     2.0;
    format      ascii;
    class       volScalarField;
    location    "0.15";
    object      CH2O;
}
// * * * * * * * * * * * * * * * * * * * * * * * * * * * * * * * * * * * * * //

dimensions      [0 0 0 0 0 0 0];


internalField   nonuniform List<scalar> 
168000
(
2.757852142e-07
2.761538593e-07
2.766732474e-07
2.774488685e-07
2.791795298e-07
2.822835152e-07
2.860041031e-07
2.907038124e-07
2.997541979e-07
3.111047613e-07
3.243098333e-07
3.448220852e-07
3.711889656e-07
4.012791233e-07
4.474875141e-07
5.028254766e-07
5.704154213e-07
6.701237427e-07
7.821316188e-07
9.525077442e-07
1.153852694e-06
1.444419746e-06
1.810403352e-06
2.339109297e-06
3.015667754e-06
4.043428224e-06
5.313150768e-06
7.438982538e-06
1.02117066e-05
1.438146526e-05
2.077485054e-05
2.953275136e-05
4.301169871e-05
6.368263314e-05
9.276462095e-05
0.0001331527447
0.0001906215036
0.0002703043362
0.0003740318348
0.0005040928512
2.819279084e-07
2.82134663e-07
2.825626373e-07
2.833941384e-07
2.850382265e-07
2.878027891e-07
2.916311146e-07
2.97023342e-07
3.055570879e-07
3.168560754e-07
3.312294832e-07
3.51524398e-07
3.778348942e-07
4.103124568e-07
4.556644526e-07
5.121319714e-07
5.832733751e-07
6.813490759e-07
8.005012578e-07
9.689566733e-07
1.179000802e-06
1.470639819e-06
1.849037312e-06
2.380799534e-06
3.082207049e-06
4.108812611e-06
5.44483567e-06
7.56478022e-06
1.042113534e-05
1.468128734e-05
2.112370054e-05
3.012561318e-05
4.386869475e-05
6.473877876e-05
9.422262449e-05
0.0001353468223
0.000193594865
0.0002738769159
0.0003784426705
0.0005092913529
2.880224604e-07
2.881749881e-07
2.885513222e-07
2.893695409e-07
2.90945497e-07
2.935777732e-07
2.974841318e-07
3.031729906e-07
3.115791274e-07
3.229731421e-07
3.379850938e-07
3.584007233e-07
3.850092636e-07
4.189141803e-07
4.643240417e-07
5.219504802e-07
5.955852376e-07
6.939049226e-07
8.179168104e-07
9.869233211e-07
1.203591168e-06
1.498428205e-06
1.887167446e-06
2.425149101e-06
3.147153617e-06
4.181267905e-06
5.570986058e-06
7.69986891e-06
1.063277852e-05
1.498056554e-05
2.149192291e-05
3.072442987e-05
4.472661242e-05
6.582188427e-05
9.572284438e-05
0.0001375620628
0.000196574006
0.0002774951402
0.0003828986478
0.0005145279895
2.94142174e-07
2.942744297e-07
2.946192422e-07
2.954115345e-07
2.96942881e-07
2.99525868e-07
3.034895186e-07
3.093336701e-07
3.177658961e-07
3.293160048e-07
3.447536103e-07
3.654420416e-07
3.92492409e-07
4.274087587e-07
4.733169477e-07
5.321229108e-07
6.077598799e-07
7.072467596e-07
8.349884842e-07
1.005868071e-06
1.228101821e-06
1.527345623e-06
1.925337661e-06
2.471461967e-06
3.211710211e-06
4.258836959e-06
5.694126206e-06
7.842346727e-06
1.084708691e-05
1.528119183e-05
2.187685106e-05
3.132999965e-05
4.558826099e-05
6.693122393e-05
9.726215296e-05
0.0001397990986
0.0001995639571
0.0002811561274
0.0003873968581
0.0005198043889
3.003205933e-07
3.004430936e-07
3.007672865e-07
3.01537105e-07
3.030424425e-07
3.056120016e-07
3.096237961e-07
3.155745433e-07
3.240961823e-07
3.358293423e-07
3.516097952e-07
3.726417494e-07
4.001938063e-07
4.359464641e-07
4.825720664e-07
5.425761145e-07
6.19994718e-07
7.211093858e-07
8.520342459e-07
1.02551102e-06
1.252793567e-06
1.557156031e-06
1.96386572e-06
2.519343825e-06
3.276605285e-06
4.340276103e-06
5.81597081e-06
7.990908109e-06
1.106443149e-05
1.558456286e-05
2.227647773e-05
3.194302115e-05
4.64559565e-05
6.806615961e-05
9.883793816e-05
0.0001420579486
0.0002025686932
0.0002848557238
0.0003919236925
0.0005250963638
3.065746585e-07
3.066913351e-07
3.070015654e-07
3.077555031e-07
3.092480898e-07
3.118218564e-07
3.158799976e-07
3.219226323e-07
3.305619453e-07
3.424919465e-07
3.585856735e-07
3.799963694e-07
4.080777257e-07
4.445980327e-07
4.920558734e-07
5.532770402e-07
6.323858275e-07
7.35365767e-07
8.692220038e-07
1.045708949e-06
1.27781091e-06
1.587735714e-06
2.002940568e-06
2.568575614e-06
3.342279448e-06
4.424801541e-06
5.937690505e-06
8.144662478e-06
1.128512406e-05
1.589171134e-05
2.268929935e-05
3.256411533e-05
4.733160509e-05
6.922612541e-05
0.000100448145
0.0001443393017
0.0002055916442
0.0002885949648
0.0003964947019
0.0005303253459
3.129150916e-07
3.130279612e-07
3.133287286e-07
3.140728791e-07
3.15562048e-07
3.181502715e-07
3.222567151e-07
3.283890558e-07
3.371605846e-07
3.492963121e-07
3.65695509e-07
3.875048333e-07
4.161314159e-07
4.533977365e-07
5.01753143e-07
5.642116137e-07
6.449809831e-07
7.499570638e-07
8.866425e-07
1.066390665e-06
1.303236194e-06
1.619023024e-06
2.04267775e-06
2.619039578e-06
3.408999936e-06
4.511925552e-06
6.060090285e-06
8.303008752e-06
1.150943103e-05
1.620340412e-05
2.31141978e-05
3.31938415e-05
4.8216767e-05
7.041059293e-05
0.0001020912682
0.0001466448486
0.0002086354393
0.0002923734527
0.0004011095128
0.0005355957671
3.193499436e-07
3.194603168e-07
3.197548471e-07
3.204940929e-07
3.219865649e-07
3.245962196e-07
3.287545475e-07
3.349789959e-07
3.438918671e-07
3.562404622e-07
3.729462675e-07
3.951676425e-07
4.243516058e-07
4.623630648e-07
5.11657704e-07
5.753748157e-07
6.578051029e-07
7.648580097e-07
9.04346727e-07
1.087523017e-06
1.329118618e-06
1.650990603e-06
2.08315092e-06
2.670676272e-06
3.476930554e-06
4.601350779e-06
6.183729441e-06
8.465548235e-06
1.173758313e-05
1.652021521e-05
2.355035001e-05
3.383271004e-05
4.911270465e-05
7.161802135e-05
0.0001037661359
0.0001489752037
0.0002117019816
0.0002961907308
0.0004057677878
0.0005409079439
3.258858122e-07
3.259946323e-07
3.262853095e-07
3.270234188e-07
3.285242066e-07
3.311606056e-07
3.353749386e-07
3.416955019e-07
3.507566714e-07
3.633247023e-07
3.803419828e-07
4.029862395e-07
4.327388545e-07
4.715037628e-07
5.217679512e-07
5.867660341e-07
6.708723951e-07
7.80059821e-07
9.22365165e-07
1.109093006e-06
1.355489771e-06
1.683630027e-06
2.124409775e-06
2.723459714e-06
3.546174147e-06
4.692902136e-06
6.309002151e-06
8.632024e-06
1.19697828e-05
1.684257946e-05
2.399715787e-05
3.44811852e-05
5.00205478e-05
7.284897694e-05
0.0001054716901
0.0001513309404
0.0002147920032
0.0003000465612
0.0004104691838
0.0005462620917
3.325283529e-07
3.326363246e-07
3.329249444e-07
3.33664823e-07
3.351778042e-07
3.378452799e-07
3.421197737e-07
3.485409387e-07
3.577564597e-07
3.705503354e-07
3.878855666e-07
4.109626121e-07
4.412952293e-07
4.808260064e-07
5.320846458e-07
5.983868814e-07
6.841921281e-07
7.955617858e-07
9.407176942e-07
1.131098342e-06
1.382371944e-06
1.716943322e-06
2.16649028e-06
2.777383137e-06
3.616798235e-06
4.786483015e-06
6.436191689e-06
8.802278598e-06
1.220620991e-05
1.717083206e-05
2.445419342e-05
3.513968876e-05
5.094127551e-05
7.410334467e-05
0.0001072058108
0.0001537130077
0.0002179086448
0.0003039404269
0.0004152133783
0.0005516583463
3.3928256e-07
3.393902206e-07
3.39678158e-07
3.404220788e-07
3.419503546e-07
3.446525811e-07
3.489912198e-07
3.555175292e-07
3.648930468e-07
3.779191521e-07
3.955795515e-07
4.190990669e-07
4.50023379e-07
4.903343461e-07
5.426098253e-07
6.102401571e-07
6.97771355e-07
8.11367139e-07
9.594187167e-07
1.153542474e-06
1.409782556e-06
1.750938284e-06
2.209420525e-06
2.832450864e-06
3.68885038e-06
4.882047146e-06
6.565506928e-06
8.976224509e-06
1.244702638e-05
1.750523808e-05
2.492115409e-05
3.580779487e-05
5.187573404e-05
7.538096576e-05
0.0001089689496
0.0001561221135
0.0002210531304
0.0003078718804
0.0004199999899
0.0005570903384
3.461529518e-07
3.462607171e-07
3.465490445e-07
3.472988207e-07
3.488449444e-07
3.51585116e-07
3.559916464e-07
3.62627546e-07
3.721684923e-07
3.854332244e-07
4.034263908e-07
4.273981092e-07
4.58926183e-07
5.000326176e-07
5.533462582e-07
6.223293479e-07
7.116161887e-07
8.27481052e-07
9.784798113e-07
1.176431943e-06
1.437736519e-06
1.785625903e-06
2.2532241e-06
2.88867372e-06
3.762367303e-06
4.979580552e-06
6.697106914e-06
9.153823441e-06
1.269237989e-05
1.784601292e-05
2.539785985e-05
3.648636406e-05
5.282463242e-05
7.668176981e-05
0.0001107610625
0.0001585588555
0.0002242264823
0.0003118404765
0.0004248064767
0.0005623943183
3.531436998e-07
3.532518978e-07
3.535414668e-07
3.542985771e-07
3.558647036e-07
3.586456488e-07
3.631235777e-07
3.6987337e-07
3.795850432e-07
3.93094818e-07
4.114285762e-07
4.358623838e-07
4.680066309e-07
5.099243742e-07
5.642971652e-07
6.346583783e-07
7.25732393e-07
8.439096608e-07
9.979111156e-07
1.199775e-06
1.466247482e-06
1.82101895e-06
2.297922048e-06
2.946066469e-06
3.837380212e-06
5.079090005e-06
6.831117425e-06
9.335071842e-06
1.294240693e-05
1.819333872e-05
2.588422329e-05
3.71761213e-05
5.378857892e-05
7.800572427e-05
0.0001125818318
0.0001610237808
0.0002274294815
0.0003158460263
0.0004296439297
0.0005677394823
3.602587228e-07
3.603676169e-07
3.606591172e-07
3.614247933e-07
3.630127816e-07
3.658370433e-07
3.703896597e-07
3.772575007e-07
3.871451013e-07
4.009063519e-07
4.195886826e-07
4.444946473e-07
4.772677904e-07
5.200130929e-07
5.754660756e-07
6.472314829e-07
7.401256523e-07
8.606596007e-07
1.01772205e-06
1.223580854e-06
1.495328499e-06
1.857131221e-06
2.343534025e-06
3.004646387e-06
3.913917886e-06
5.18059567e-06
6.96764212e-06
9.519990739e-06
1.319723538e-05
1.854737565e-05
2.638021833e-05
3.787741572e-05
5.476811126e-05
7.935283059e-05
0.0001144310368
0.0001635173942
0.0002306626804
0.0003198852684
0.000434524004
0.0005731255728
3.675017559e-07
3.676115617e-07
3.679055624e-07
3.686808514e-07
3.702923358e-07
3.731622316e-07
3.777926373e-07
3.84782549e-07
3.948512009e-07
4.088703758e-07
4.279093824e-07
4.53297758e-07
4.867128057e-07
5.303022751e-07
5.868567507e-07
6.600531358e-07
7.548016921e-07
8.777377886e-07
1.037921698e-06
1.247859287e-06
1.524992378e-06
1.893977128e-06
2.390078991e-06
3.064432488e-06
3.992008392e-06
5.284126418e-06
7.106770057e-06
9.708618621e-06
1.345698665e-05
1.890826959e-05
2.68858676e-05
3.859058182e-05
5.576370978e-05
8.072311963e-05
0.0001163085275
0.0001660401295
0.0002339268707
0.0003239611274
0.0004394464648
0.0005785523328
3.748764012e-07
3.749872982e-07
3.752842777e-07
3.760700865e-07
3.77706529e-07
3.806241976e-07
3.853353377e-07
3.924512267e-07
4.027059925e-07
4.169895571e-07
4.363934497e-07
4.622746721e-07
4.963449047e-07
5.40795495e-07
5.984731414e-07
6.731280107e-07
7.697663318e-07
8.951513237e-07
1.058519015e-06
1.272620448e-06
1.555251868e-06
1.93157149e-06
2.437575632e-06
3.125445093e-06
4.071680036e-06
5.38971687e-06
7.248580751e-06
9.901006465e-06
1.372177743e-05
1.927615781e-05
2.740123198e-05
3.931594069e-05
5.677580832e-05
8.211664664e-05
0.0001182142025
0.0001685923577
0.0002372228171
0.000328074806
0.0004444109933
0.0005840194181
3.823861667e-07
3.824983072e-07
3.827986739e-07
3.835958021e-07
3.852585303e-07
3.882259684e-07
3.930206595e-07
4.002663364e-07
4.107122314e-07
4.252666714e-07
4.4504376e-07
4.714284434e-07
5.061674072e-07
5.514964237e-07
6.103193643e-07
6.86460956e-07
7.850255068e-07
9.129074444e-07
1.079522936e-06
1.297874738e-06
1.586119768e-06
1.969929436e-06
2.486042629e-06
3.1877056e-06
4.152961844e-06
5.497405526e-06
7.393147599e-06
1.009721427e-05
1.399172106e-05
1.965117291e-05
2.792640236e-05
4.005380187e-05
5.780480308e-05
8.353348718e-05
0.0001201479871
0.0001711743698
0.0002405511586
0.0003322264196
0.000449417255
0.0005894911755
3.900344956e-07
3.901480104e-07
3.904521193e-07
3.912612824e-07
3.929515185e-07
3.959706099e-07
4.008515651e-07
4.08230763e-07
4.188727683e-07
4.33704595e-07
4.538632883e-07
4.807622242e-07
5.161837307e-07
5.624088412e-07
6.223996871e-07
7.000569794e-07
8.005852768e-07
9.310135125e-07
1.100942439e-06
1.323632761e-06
1.617608977e-06
2.009066366e-06
2.535498822e-06
3.251236355e-06
4.235883796e-06
5.607233602e-06
7.540540177e-06
1.029730862e-05
1.426692875e-05
2.003344561e-05
2.84614933e-05
4.08044648e-05
5.885106003e-05
8.497373486e-05
0.0001221098097
0.0001737863362
0.0002439124158
0.0003364160749
0.000454464904
0.0005948110597
3.978247892e-07
3.979397928e-07
3.982479563e-07
3.990698042e-07
4.007886875e-07
4.038612259e-07
4.088310757e-07
4.163474681e-07
4.271905431e-07
4.423063004e-07
4.628551073e-07
4.902792658e-07
5.26397395e-07
5.735366414e-07
6.347185194e-07
7.139212372e-07
8.164518297e-07
9.494770082e-07
1.122786581e-06
1.349905297e-06
1.649732541e-06
2.048997937e-06
2.585963335e-06
3.316060585e-06
4.320476914e-06
5.719244304e-06
7.690825812e-06
1.050136108e-05
1.454751052e-05
2.042310666e-05
2.900663812e-05
4.156822029e-05
5.991492111e-05
8.643750336e-05
0.000124099576
0.0001764281416
0.0002473067033
0.0003406438406
0.0004595172548
0.0006001696539
4.05760425e-07
4.058770188e-07
4.061895158e-07
4.070246461e-07
4.087732502e-07
4.119009588e-07
4.169622692e-07
4.246194849e-07
4.356685793e-07
4.510748517e-07
4.720223859e-07
4.999829191e-07
5.368120245e-07
5.848838345e-07
6.472804064e-07
7.280590276e-07
8.326314821e-07
9.683055317e-07
1.145064524e-06
1.376703292e-06
1.68250367e-06
2.089740075e-06
2.637455643e-06
3.382202346e-06
4.406773286e-06
5.833482385e-06
7.844070633e-06
1.070944699e-05
1.483357599e-05
2.082028808e-05
2.956198496e-05
4.234535159e-05
6.099670967e-05
8.792493244e-05
0.0001261171686
0.0001790988142
0.0002507338774
0.0003449100117
0.0004645914994
0.0006055666553
4.138447719e-07
4.139630466e-07
4.142801293e-07
4.151290981e-07
4.169084443e-07
4.200929906e-07
4.252482784e-07
4.330499158e-07
4.443099812e-07
4.600134018e-07
4.813683877e-07
5.098766345e-07
5.4743135e-07
5.964545479e-07
6.60090025e-07
7.424757855e-07
8.491306807e-07
9.875068065e-07
1.167785548e-06
1.404037856e-06
1.715935765e-06
2.13130899e-06
2.689995635e-06
3.449686507e-06
4.494806049e-06
5.949993882e-06
8.000340307e-06
1.092164473e-05
1.512523497e-05
2.122512401e-05
3.012769384e-05
4.313613541e-05
6.209673338e-05
8.943616561e-05
0.0001281628093
0.0001818003683
0.0002541955816
0.0003492146382
0.0004697072516
0.0006110016013
4.220812015e-07
4.222012395e-07
4.22523138e-07
4.233864681e-07
4.251975367e-07
4.284405453e-07
4.336922913e-07
4.416419304e-07
4.531179308e-07
4.691251902e-07
4.908964695e-07
5.19963962e-07
5.58259209e-07
6.082530257e-07
6.731521804e-07
7.571770801e-07
8.659560027e-07
1.007088684e-06
1.190959063e-06
1.431920269e-06
1.750042434e-06
2.173721189e-06
2.743603645e-06
3.518538719e-06
4.584609359e-06
6.068825958e-06
8.159700531e-06
1.113803521e-05
1.542259798e-05
2.16377512e-05
3.070393415e-05
4.394084264e-05
6.321528723e-05
9.097136802e-05
0.0001302367236
0.0001845332207
0.0002576918487
0.0003535539335
0.0004748645688
0.0006164743147
4.304730986e-07
4.305949753e-07
4.309219023e-07
4.318000896e-07
4.336438284e-07
4.369468913e-07
4.422975514e-07
4.50398765e-07
4.620956868e-07
4.784135415e-07
5.006100804e-07
5.302485509e-07
5.692995462e-07
6.202836285e-07
6.864718044e-07
7.721686124e-07
8.83114157e-07
1.027059146e-06
1.214594621e-06
1.460361986e-06
1.784837505e-06
2.216993502e-06
2.798300489e-06
3.588785413e-06
4.676218366e-06
6.190026822e-06
8.322217389e-06
1.13587015e-05
1.572577659e-05
2.205830924e-05
3.129088274e-05
4.47597387e-05
6.435265547e-05
9.253071737e-05
0.000132339137
0.0001872977748
0.0002612228578
0.0003579262713
0.0004800633675
0.0006218447337
4.390238693e-07
4.391476544e-07
4.394798079e-07
4.40373327e-07
4.422506585e-07
4.456153439e-07
4.510673585e-07
4.593237219e-07
4.712465833e-07
4.878818643e-07
5.105127614e-07
5.407341496e-07
5.805564132e-07
6.32550833e-07
7.000539533e-07
7.87456214e-07
9.006119855e-07
1.047426313e-06
1.238701924e-06
1.489374646e-06
1.820335044e-06
2.261143092e-06
2.854107482e-06
3.66045378e-06
4.769669186e-06
6.31364568e-06
8.487957595e-06
1.158372865e-05
1.603488372e-05
2.248694058e-05
3.188872217e-05
4.559308353e-05
6.550911191e-05
9.411439627e-05
0.0001344702688
0.0001900943942
0.0002647890392
0.0003623376631
0.0004853033878
0.0006271213746
4.477369485e-07
4.478627069e-07
4.48200273e-07
4.491095812e-07
4.510214088e-07
4.544492681e-07
4.600050707e-07
4.684201702e-07
4.805740297e-07
4.975336505e-07
5.206081444e-07
5.514246052e-07
5.920339685e-07
6.450592312e-07
7.139038078e-07
8.030458473e-07
9.184564654e-07
1.068198447e-06
1.263290828e-06
1.518970084e-06
1.85654937e-06
2.30618748e-06
2.911046456e-06
3.733571769e-06
4.864998875e-06
6.439732726e-06
8.656988676e-06
1.181320353e-05
1.635003379e-05
2.292379039e-05
3.249763916e-05
4.644113078e-05
6.668491867e-05
9.572258214e-05
0.0001366303205
0.0001929234243
0.0002683907512
0.0003667880322
0.000490581977
0.0006324338959
4.566158058e-07
4.567435986e-07
4.570867535e-07
4.580122942e-07
4.599595068e-07
4.634520814e-07
4.691141054e-07
4.776915463e-07
4.900815108e-07
5.073724753e-07
5.308999524e-07
5.623238634e-07
6.037364773e-07
6.578135303e-07
7.28026672e-07
8.189436055e-07
9.366547107e-07
1.089383956e-06
1.288371359e-06
1.549160336e-06
1.893495067e-06
2.352144556e-06
2.969139775e-06
3.808168078e-06
4.962245421e-06
6.56833914e-06
8.829379101e-06
1.204721473e-05
1.667134283e-05
2.336900615e-05
3.311782295e-05
4.730412586e-05
6.788032347e-05
9.735543225e-05
0.0001388194578
0.0001957851915
0.0002720282904
0.0003712772721
0.0004958152388
0.000637782251
4.656639512e-07
4.657938362e-07
4.661427479e-07
4.670849538e-07
4.690684302e-07
4.726272562e-07
4.783979415e-07
4.87141355e-07
4.997725869e-07
5.17401997e-07
5.413919989e-07
5.734359686e-07
6.156683114e-07
6.708185528e-07
7.424279733e-07
8.351557128e-07
9.55213975e-07
1.110991399e-06
1.313953713e-06
1.579957653e-06
1.931186998e-06
2.399032595e-06
3.028410346e-06
3.884272154e-06
5.061447727e-06
6.6995171e-06
9.005198385e-06
1.228585253e-05
1.699892849e-05
2.382273694e-05
3.374946363e-05
4.818230191e-05
6.90955557e-05
9.901306377e-05
0.0001410377488
0.0001986800082
0.0002757018425
0.0003758057239
0.0005010892842
0.0006431663936
4.748849399e-07
4.750169721e-07
4.753718018e-07
4.763310972e-07
4.783517093e-07
4.819783226e-07
4.878601209e-07
4.967731703e-07
5.096508946e-07
5.276259574e-07
5.520881884e-07
5.847650635e-07
6.27833949e-07
6.840792358e-07
7.57113263e-07
8.516885262e-07
9.741416543e-07
1.133029492e-06
1.340048268e-06
1.611374506e-06
1.969640317e-06
2.446870271e-06
3.088881629e-06
3.96191419e-06
5.162645614e-06
6.833319796e-06
9.184517171e-06
1.252920888e-05
1.733291001e-05
2.428513203e-05
3.439275039e-05
4.907587279e-05
7.03308093e-05
0.0001006955283
0.0001432838954
0.0002016081933
0.0002794114655
0.0003803736994
0.0005064040505
0.0006485588526
4.842823769e-07
4.844166089e-07
4.847775123e-07
4.85754315e-07
4.878129312e-07
4.915088709e-07
4.975042508e-07
5.065906375e-07
5.197201478e-07
5.380481823e-07
5.629925168e-07
5.963153897e-07
6.402379754e-07
6.976006322e-07
7.720882167e-07
8.685485363e-07
9.934452895e-07
1.155507111e-06
1.36666559e-06
1.643423602e-06
2.008870481e-06
2.49567667e-06
3.150577646e-06
4.041125123e-06
5.265879811e-06
6.969801456e-06
9.367407291e-06
1.277737735e-05
1.767340829e-05
2.475633851e-05
3.504786739e-05
4.998502074e-05
7.158521188e-05
0.0001024031932
0.0001455598245
0.0002045696378
0.000283156216
0.0003849814836
0.0005117595544
0.0006537111475
4.938599206e-07
4.939964032e-07
4.94363531e-07
4.953582543e-07
4.974557416e-07
5.012225541e-07
5.073340053e-07
5.165974736e-07
5.299841386e-07
5.486725822e-07
5.741090713e-07
6.080912882e-07
6.528850831e-07
7.113879105e-07
7.87358635e-07
8.857423694e-07
1.01313257e-06
1.178433303e-06
1.39381644e-06
1.676117889e-06
2.048893264e-06
2.545471299e-06
3.213522992e-06
4.121936643e-06
5.371191969e-06
7.109017364e-06
9.553941836e-06
1.303045329e-05
1.802054658e-05
2.523649634e-05
3.571434084e-05
5.091001435e-05
7.285978203e-05
0.0001041362905
0.0001478657252
0.0002075643462
0.000286935864
0.0003896178181
0.0005171560311
0.0006588968922
5.036212867e-07
5.037600688e-07
5.041335682e-07
5.05146622e-07
5.072838487e-07
5.111230904e-07
5.173531278e-07
5.267974699e-07
5.404467382e-07
5.595031528e-07
5.854420316e-07
6.200971993e-07
6.657800723e-07
7.254463559e-07
8.029304449e-07
9.032767892e-07
1.033211337e-06
1.201817281e-06
1.421511785e-06
1.709470567e-06
2.089724764e-06
2.596274102e-06
3.277742842e-06
4.204381191e-06
5.478624659e-06
7.251023891e-06
9.744195209e-06
1.328853376e-05
1.837445014e-05
2.572576129e-05
3.639251254e-05
5.18511245e-05
7.415502767e-05
0.0001058949107
0.0001502017659
0.000210592492
0.0002907525187
0.0003942868982
0.0005225934031
0.0006641161014
5.135702514e-07
5.137113808e-07
5.140913957e-07
5.151231881e-07
5.173010253e-07
5.212142654e-07
5.275654324e-07
5.371944928e-07
5.511118985e-07
5.705439767e-07
5.969956705e-07
6.323376639e-07
6.789278516e-07
7.39781371e-07
8.188097011e-07
9.211586994e-07
1.053689588e-06
1.22566844e-06
1.449762798e-06
1.743495097e-06
2.131381418e-06
2.648105468e-06
3.343262959e-06
4.288491966e-06
5.588221386e-06
7.395878518e-06
9.938243178e-06
1.355171771e-05
1.873524674e-05
2.622430502e-05
3.708311336e-05
5.280860387e-05
7.547107348e-05
0.0001076776708
0.0001525680963
0.0002136532642
0.0002946067811
0.0003989960061
0.0005279745872
0.0006693689766
5.23710655e-07
5.238541779e-07
5.242408497e-07
5.252917878e-07
5.275111116e-07
5.314999344e-07
5.379748066e-07
5.477924858e-07
5.619836532e-07
5.817992236e-07
6.087743545e-07
6.448173241e-07
6.923334391e-07
7.54398477e-07
8.350025877e-07
9.393951457e-07
1.074575477e-06
1.249996356e-06
1.478580873e-06
1.778205211e-06
2.173880009e-06
2.700986241e-06
3.410109707e-06
4.374302937e-06
5.7000266e-06
7.543639863e-06
1.013616293e-05
1.382010596e-05
1.910306732e-05
2.673230092e-05
3.778635311e-05
5.378270004e-05
7.680824252e-05
0.0001094866394
0.000154964921
0.000216747911
0.0002984989017
0.0004037452143
0.0005333597498
0.0006746554554
5.340464043e-07
5.341923662e-07
5.345858341e-07
5.356563252e-07
5.379180178e-07
5.419840251e-07
5.485852125e-07
5.585954712e-07
5.730661193e-07
5.932731523e-07
6.207825456e-07
6.575409243e-07
7.060019635e-07
7.693033151e-07
8.515154197e-07
9.579933189e-07
1.095877323e-06
1.274810792e-06
1.507977627e-06
1.81361492e-06
2.217237678e-06
2.754937733e-06
3.478310055e-06
4.461848846e-06
5.814085709e-06
7.694367718e-06
1.033803314e-05
1.409380138e-05
1.947804577e-05
2.724992516e-05
3.850244699e-05
5.477366748e-05
7.816684377e-05
0.0001113220594
0.0001573925413
0.0002198771363
0.0003024289745
0.0004085347008
0.0005387848905
0.0006797000894
5.445814759e-07
5.447299212e-07
5.451303228e-07
5.462207751e-07
5.485257263e-07
5.526705393e-07
5.594006896e-07
5.696075517e-07
5.843634988e-07
6.049701115e-07
6.330248015e-07
6.705133123e-07
7.199386649e-07
7.84501648e-07
8.683546453e-07
9.769605572e-07
1.117603612e-06
1.300121707e-06
1.537964911e-06
1.849738522e-06
2.261471934e-06
2.809981731e-06
3.54789159e-06
4.55116522e-06
5.930445095e-06
7.848123072e-06
1.054393399e-05
1.437290889e-05
1.986031875e-05
2.777735578e-05
3.923161319e-05
5.57817643e-05
7.95471783e-05
0.0001131841927
0.0001598512364
0.0002230411416
0.0003063970438
0.0004133645935
0.0005442500973
0.00068472729
5.553199187e-07
5.55470891e-07
5.558783626e-07
5.56989186e-07
5.593382942e-07
5.635635552e-07
5.704253561e-07
5.808329124e-07
5.9588008e-07
6.168945412e-07
6.455057778e-07
6.837394405e-07
7.341488967e-07
7.999993615e-07
8.855268483e-07
9.9630435e-07
1.139762999e-06
1.325939258e-06
1.568554814e-06
1.886590614e-06
2.306600664e-06
2.866140511e-06
3.618882527e-06
4.642288383e-06
6.049152133e-06
8.00496814e-06
1.075394722e-05
1.465753546e-05
2.025002563e-05
2.831477312e-05
3.997407306e-05
5.680725141e-05
8.0949542e-05
0.0001150732998
0.0001623412647
0.0002262400826
0.0003104030724
0.0004182349688
0.000549755456
0.0006897858947
5.662658564e-07
5.664193989e-07
5.668340758e-07
5.679656821e-07
5.703598559e-07
5.7466723e-07
5.816634114e-07
5.922758225e-07
6.076202393e-07
6.290509748e-07
6.582302289e-07
6.972243673e-07
7.48638127e-07
8.158024663e-07
9.0303875e-07
1.01603234e-06
1.162364318e-06
1.352273807e-06
1.599759673e-06
1.924186097e-06
2.352642142e-06
2.923436846e-06
3.69131172e-06
4.735255469e-06
6.170255207e-06
8.1649664e-06
1.096815618e-05
1.494779019e-05
2.064730842e-05
2.886235998e-05
4.073005098e-05
5.785039198e-05
8.237422532e-05
0.0001169896347
0.0001648628647
0.0002294740514
0.0003144468863
0.0004231353594
0.0005553010604
0.0006948759665
5.774234905e-07
5.775796456e-07
5.780016624e-07
5.791544665e-07
5.81594625e-07
5.859858016e-07
5.931191377e-07
6.03940637e-07
6.195884427e-07
6.414440398e-07
6.712030098e-07
7.109732591e-07
7.634119402e-07
8.319171004e-07
9.208972119e-07
1.036152329e-06
1.18541658e-06
1.379135926e-06
1.631592077e-06
1.962540185e-06
2.39961504e-06
2.981894016e-06
3.765208671e-06
4.830104434e-06
6.29380373e-06
8.328182616e-06
1.118664587e-05
1.524378427e-05
2.105231175e-05
2.94203017e-05
4.149977413e-05
5.891145076e-05
8.382151266e-05
0.0001189334387
0.000167416257
0.0002327430484
0.0003185265188
0.0004280527566
0.0005607584305
0.0006999976111
5.887971024e-07
5.88955912e-07
5.893854028e-07
5.905598228e-07
5.930468968e-07
5.975235908e-07
6.047969026e-07
6.158317988e-07
6.31789248e-07
6.540784604e-07
6.844290774e-07
7.249913915e-07
7.784760391e-07
8.483495308e-07
9.391092388e-07
1.056672276e-06
1.208928981e-06
1.406536406e-06
1.664064877e-06
2.001668418e-06
2.447538435e-06
3.041535821e-06
3.840603545e-06
4.926874069e-06
6.419848164e-06
8.494682868e-06
1.140950294e-05
1.554563107e-05
2.146518283e-05
2.998878619e-05
4.228347232e-05
5.999069348e-05
8.52916818e-05
0.0001209049306
0.0001700016215
0.0002360472084
0.0003226419677
0.0004330114001
0.0005662034812
0.0007048940786
6.00391056e-07
6.005525616e-07
6.009896601e-07
6.021861176e-07
6.047210506e-07
6.09285004e-07
6.167011605e-07
6.279538407e-07
6.442273063e-07
6.669590584e-07
6.979134928e-07
7.392841512e-07
7.938362466e-07
8.651061561e-07
9.57681981e-07
1.077600308e-06
1.232910906e-06
1.434486257e-06
1.697191192e-06
2.041586664e-06
2.496431822e-06
3.10238659e-06
3.917527179e-06
5.02560402e-06
6.548440044e-06
8.664534586e-06
1.163681576e-05
1.585344605e-05
2.18860714e-05
3.056800393e-05
4.30813778e-05
6.108838656e-05
8.678500403e-05
0.0001229042903
0.0001726190678
0.0002393869286
0.0003267963196
0.0004380112658
0.0005716877639
0.000709746015
6.122098001e-07
6.123740427e-07
6.128188825e-07
6.140378034e-07
6.166215516e-07
6.212745345e-07
6.288364552e-07
6.403113873e-07
6.569073638e-07
6.800907558e-07
7.116614226e-07
7.538570381e-07
8.09498508e-07
8.821935089e-07
9.76622738e-07
1.098944719e-06
1.257371934e-06
1.46299672e-06
1.730984417e-06
2.082311133e-06
2.546315124e-06
3.164471194e-06
3.996011098e-06
5.1263348e-06
6.679631994e-06
8.837806571e-06
1.186867444e-05
1.616734687e-05
2.231512969e-05
3.115814787e-05
4.389372506e-05
6.220479691e-05
8.830174695e-05
0.0001249316389
0.0001752685853
0.0002427625609
0.0003309898373
0.0004430523403
0.0005772112146
0.0007146273235
6.242578707e-07
6.244248911e-07
6.248776056e-07
6.261194201e-07
6.287529539e-07
6.334967656e-07
6.412074216e-07
6.529091568e-07
6.698342641e-07
6.934785762e-07
7.256781411e-07
7.687156672e-07
8.254688932e-07
8.996182584e-07
9.95938961e-07
1.120713973e-06
1.282321843e-06
1.492079269e-06
1.76545823e-06
2.123858382e-06
2.597208697e-06
3.227815053e-06
4.076087527e-06
5.229107806e-06
6.813477757e-06
9.014569029e-06
1.210517084e-05
1.648745327e-05
2.27525123e-05
3.175941329e-05
4.472075051e-05
6.334019229e-05
8.984218341e-05
0.0001269870138
0.000177949302
0.0002461743927
0.000335222791
0.0004481345783
0.0005827737738
0.0007195379846
6.365398937e-07
6.367097321e-07
6.371704549e-07
6.384355978e-07
6.411199018e-07
6.459563721e-07
6.538187883e-07
6.657519635e-07
6.830129501e-07
7.071276471e-07
7.399690324e-07
7.838657709e-07
8.417535991e-07
9.173872131e-07
1.015638257e-06
1.142916713e-06
1.307770613e-06
1.521745618e-06
1.800626598e-06
2.166245327e-06
2.649133349e-06
3.292444155e-06
4.157789405e-06
5.333965339e-06
6.950032209e-06
9.19489359e-06
1.234639857e-05
1.681388711e-05
2.319837598e-05
3.237199746e-05
4.556269203e-05
6.449484032e-05
9.140658186e-05
0.0001290706637
0.0001806617596
0.0002496212619
0.0003394954906
0.0004532578656
0.0005883753592
0.0007244779886
6.490605869e-07
6.492332833e-07
6.49702148e-07
6.509910591e-07
6.53727133e-07
6.586581228e-07
6.666753793e-07
6.788447196e-07
6.96448466e-07
7.210432018e-07
7.545395922e-07
7.99313201e-07
8.583589519e-07
9.355073237e-07
1.03572839e-06
1.16556176e-06
1.333728433e-06
1.552007728e-06
1.836503785e-06
2.209489249e-06
2.702110339e-06
3.358385062e-06
4.241150399e-06
5.440950619e-06
7.089351386e-06
9.378853338e-06
1.259245305e-05
1.714677224e-05
2.365287934e-05
3.299609912e-05
4.641978819e-05
6.566900705e-05
9.299521087e-05
0.0001311829354
0.0001834069155
0.0002531048512
0.0003438077487
0.0004583979341
0.0005937965746
0.0007291678548
6.618247627e-07
6.620003568e-07
6.62477497e-07
6.637906213e-07
6.665794804e-07
6.716068829e-07
6.797821165e-07
6.921924373e-07
7.101459595e-07
7.352305816e-07
7.693954306e-07
8.150639313e-07
8.752914101e-07
9.539856861e-07
1.056217288e-06
1.18865812e-06
1.360205707e-06
1.582877813e-06
1.873104363e-06
2.253607804e-06
2.756161399e-06
3.425664923e-06
4.326204917e-06
5.550107803e-06
7.231492505e-06
9.566522829e-06
1.284343146e-05
1.74862344e-05
2.411618216e-05
3.363191739e-05
4.729227701e-05
6.686295482e-05
9.460834139e-05
0.0001333241566
0.0001861851403
0.000256625369
0.000348159446
0.0004635463643
0.0005992438584
0.0007338381879
6.748373303e-07
6.750158613e-07
6.755014112e-07
6.768391989e-07
6.796818742e-07
6.848076159e-07
6.931440217e-07
7.058002315e-07
7.241106838e-07
7.496952382e-07
7.845422738e-07
8.311240599e-07
8.925575669e-07
9.728295442e-07
1.077113044e-06
1.212214989e-06
1.387213055e-06
1.614368346e-06
1.910443213e-06
2.298619032e-06
2.811308736e-06
3.494311491e-06
4.412988128e-06
5.661482005e-06
7.376513986e-06
9.757978113e-06
1.309943275e-05
1.783240107e-05
2.458844404e-05
3.427964989e-05
4.818039397e-05
6.807693764e-05
9.624623967e-05
0.0001354946338