/*--------------------------------*- C++ -*----------------------------------*\
| =========                 |                                                 |
| \\      /  F ield         | OpenFOAM: The Open Source CFD Toolbox           |
|  \\    /   O peration     | Version:  v2006                                 |
|   \\  /    A nd           | Website:  www.openfoam.com                      |
|    \\/     M anipulation  |                                                 |
\*---------------------------------------------------------------------------*/
FoamFile
{
    version     2.0;
    format      ascii;
    class       volScalarField;
    location    "0.15";
    object      CH3;
}
// * * * * * * * * * * * * * * * * * * * * * * * * * * * * * * * * * * * * * //

dimensions      [0 0 0 0 0 0 0];


internalField   nonuniform List<scalar> 
168000
(
1.006256216e-17
1.055586325e-17
1.106886148e-17
1.160692182e-17
1.220199497e-17
1.28736696e-17
1.358901612e-17
1.436789671e-17
1.538274725e-17
1.653089716e-17
1.779435275e-17
1.948111943e-17
2.151145594e-17
2.37718826e-17
2.700763069e-17
3.080262525e-17
3.536175425e-17
4.192075264e-17
4.925322809e-17
6.027246508e-17
7.324942186e-17
9.189650764e-17
1.153361349e-16
1.491430142e-16
1.923683813e-16
2.579935614e-16
3.390446496e-16
4.747217198e-16
6.516659666e-16
9.177529697e-16
1.325728275e-15
1.884577062e-15
1.083415608e-14
3.394562921e-14
2.431500613e-13
2.996795172e-12
2.483725304e-10
1.911134664e-08
7.705890821e-07
1.105098464e-05
1.028695639e-17
1.078561608e-17
1.130690612e-17
1.185932782e-17
1.2461873e-17
1.312957637e-17
1.386203406e-17
1.468650975e-17
1.568525748e-17
1.684242717e-17
1.818089721e-17
1.986419005e-17
2.190205952e-17
2.431323135e-17
2.750485696e-17
3.137783643e-17
3.61628085e-17
4.26264866e-17
5.041450978e-17
6.131604966e-17
7.484963363e-17
9.356703443e-17
1.178004376e-16
1.51803295e-16
1.966155045e-16
2.621672383e-16
3.474503152e-16
4.827512404e-16
6.650328686e-16
9.368880236e-16
1.347991505e-15
1.922411527e-15
1.179233666e-14
3.512647295e-14
2.564103567e-13
3.208519498e-12
2.897115466e-10
2.131041247e-08
8.508544582e-07
1.194822513e-05
1.050969141e-17
1.101766951e-17
1.154866106e-17
1.211239852e-17
1.272362953e-17
1.339717419e-17
1.414544229e-17
1.499613463e-17
1.59994378e-17
1.717341465e-17
1.855790889e-17
2.025777245e-17
2.232353163e-17
2.482865403e-17
2.803188728e-17
3.198439836e-17
3.693030932e-17
4.341586614e-17
5.151554296e-17
6.245612099e-17
7.641433422e-17
9.533769429e-17
1.202326197e-16
1.546334075e-16
2.00761036e-16
2.667923431e-16
3.555028093e-16
4.913738725e-16
6.785411595e-16
9.559884774e-16
1.371491109e-15
1.960626062e-15
1.275154844e-14
3.633746048e-14
2.700546091e-13
3.422286071e-12
3.311309253e-10
2.35375745e-08
9.319412922e-07
1.285204758e-05
1.073337877e-17
1.125198164e-17
1.17934277e-17
1.236797027e-17
1.298918571e-17
1.367259605e-17
1.443579944e-17
1.530602905e-17
1.632227865e-17
1.751637116e-17
1.893543278e-17
2.066110457e-17
2.276304827e-17
2.533765668e-17
2.857951286e-17
3.261271819e-17
3.768958721e-17
4.425472617e-17
5.259491299e-17
6.365841227e-17
7.797398805e-17
9.718045653e-17
1.226674084e-16
1.575889235e-16
2.048817546e-16
2.717439552e-16
3.633632519e-16
5.004682264e-16
6.922196204e-16
9.751750707e-16
1.39605692e-15
1.999271616e-15
1.371493246e-14
3.757778045e-14
2.840543737e-13
3.63815593e-12
3.727006052e-10
2.579105905e-08
1.025899877e-06
1.376273291e-05
1.095921941e-17
1.14889377e-17
1.20413272e-17
1.262691488e-17
1.325913201e-17
1.395423522e-17
1.473209268e-17
1.561975649e-17
1.665258608e-17
1.786837698e-17
1.931773105e-17
2.107366922e-17
2.321534828e-17
2.584928435e-17
2.914332789e-17
3.325837882e-17
3.845286237e-17
4.512642654e-17
5.367273594e-17
6.490514799e-17
7.954522278e-17
9.908025969e-17
1.251250947e-16
1.606446755e-16
2.090241648e-16
2.76942695e-16
3.711410921e-16
5.099509744e-16
7.060919405e-16
9.945369369e-16
1.421560846e-15
2.038392786e-15
1.468507826e-14
3.884671946e-14
2.983858948e-13
5.032094335e-12
4.14475853e-10
3.389527081e-08
1.198938598e-06
1.474834192e-05
1.118782789e-17
1.172894562e-17
1.22926625e-17
1.288970856e-17
1.353368913e-17
1.424147103e-17
1.503408117e-17
1.593873232e-17
1.698990988e-17
1.822833857e-17
1.97066401e-17
2.149519674e-17
2.367837002e-17
2.636779945e-17
2.972124559e-17
3.391939614e-17
3.922607756e-17
4.602299747e-17
5.475964061e-17
6.61872338e-17
8.113725587e-17
1.010292109e-16
1.276177465e-16
1.637866835e-16
2.132163974e-16
2.823385366e-16
3.789110544e-16
5.197652769e-16
7.20178028e-16
1.014139984e-15
1.44790694e-15
2.078029206e-15
1.566411707e-14
4.014364483e-14
3.130304828e-13
7.918781214e-12
4.565043517e-10
4.299705698e-08
1.373665916e-06
1.602112193e-05
1.141959808e-17
1.197235663e-17
1.254773846e-17
1.315666276e-17
1.381299708e-17
1.453411168e-17
1.534176919e-17
1.626356055e-17
1.733411527e-17
1.859588988e-17
2.010298637e-17
2.192559517e-17
2.415138926e-17
2.689526966e-17
3.03123138e-17
3.459493311e-17
4.001218698e-17
4.69407496e-17
5.586137531e-17
6.750015124e-17
8.275534344e-17
1.030233791e-16
1.301527456e-16
1.670074351e-16
2.174755163e-16
2.879003531e-16
3.867245258e-16
5.29872772e-16
7.344948937e-16
1.034033153e-15
1.475023851e-15
2.118216579e-15
1.665379341e-14
4.146796586e-14
3.27974449e-13
1.083608244e-11
4.9882266e-10
5.21943752e-08
1.550067551e-06
1.730398856e-05
1.165482739e-17
1.221946416e-17
1.280682427e-17
1.342801698e-17
1.409719084e-17
1.483215325e-17
1.565524124e-17
1.659454083e-17
1.768520654e-17
1.897095592e-17
2.050718118e-17
2.236488441e-17
2.463423161e-17
2.743275225e-17
3.091614433e-17
3.528469833e-17
4.081273276e-17
4.787810152e-17
5.69811736e-17
6.884179926e-17
8.440262885e-17
1.050610226e-16
1.327347996e-16
1.703031403e-16
2.218119837e-16
2.936091687e-16
3.946172109e-16
5.402480164e-16
7.49057271e-16
1.054253083e-15
1.502859059e-15
2.158987481e-15
1.765551881e-14
5.082504118e-14
3.432071359e-13
1.378477535e-11
5.723705763e-10
6.148611424e-08
1.72813061e-06
1.859701888e-05
1.189375982e-17
1.247051653e-17
1.307015429e-17
1.370397638e-17
1.438641376e-17
1.513567522e-17
1.597461109e-17
1.693186159e-17
1.804325266e-17
1.935358075e-17
2.091946931e-17
2.281315001e-17
2.512694407e-17
2.798083849e-17
3.153263476e-17
3.598866562e-17
4.162859676e-17
4.883450723e-17
5.812097103e-17
7.021135747e-17
8.608113291e-17
1.071416084e-16
1.35367087e-16
1.736721458e-16
2.262323702e-16
2.994538128e-16
4.026142759e-16
5.508746157e-16
7.638780869e-16
1.07482753e-15
1.531374401e-15
2.20037155e-15
1.867055648e-14
6.202040149e-14
3.587189217e-13
1.67655857e-11
9.187270736e-10
7.087169506e-08
1.907841977e-06
1.990026531e-05
1.213660438e-17
1.272572882e-17
1.33379359e-17
1.39847274e-17
1.468081597e-17
1.544479486e-17
1.630000583e-17
1.727567355e-17
1.840835525e-17
1.974386001e-17
2.134003212e-17
2.327051499e-17
2.562966067e-17
2.853990556e-17
3.21618315e-17
3.670694294e-17
4.246035733e-17
4.980992812e-17
5.928203242e-17
7.160868671e-17
8.77922834e-17
1.092652713e-16
1.380519095e-16
1.771140254e-16
2.307409919e-16
3.054281241e-16
4.107338081e-16
5.617425256e-16
7.789688281e-16
1.095777891e-15
1.56054257e-15
2.242395706e-15
1.970000111e-14
7.342870041e-14
4.929629023e-13
1.977971426e-11
1.268067429e-09
8.03498592e-08
2.089189324e-06
2.12137609e-05
1.238354555e-17
1.298529216e-17
1.361035687e-17
1.427044472e-17
1.49805509e-17
1.575964702e-17
1.663156034e-17
1.762611722e-17
1.878063434e-17
2.014191423e-17
2.176902969e-17
2.3737124e-17
2.614254916e-17
2.911023369e-17
3.280386187e-17
3.743971041e-17
4.330845753e-17
5.080457404e-17
6.046527604e-17
7.303401245e-17
8.953719765e-17
1.114325143e-16
1.407910667e-16
1.806290607e-16
2.353408912e-16
3.11529155e-16
4.189891462e-16
5.728461653e-16
7.943398356e-16
1.117121088e-15
1.590344264e-15
2.779437546e-15
2.074479898e-14
8.504849459e-14
6.631028188e-13
2.282805685e-11
1.620528849e-09
8.991951729e-08
2.272158066e-06
2.255138103e-05
1.26347501e-17
1.324938029e-17
1.388759075e-17
1.456129476e-17
1.528577288e-17
1.608037494e-17
1.696941501e-17
1.798333293e-17
1.916022184e-17
2.054787805e-17
2.220661768e-17
2.421313489e-17
2.666579103e-17
2.969206122e-17
3.345889989e-17
3.818719043e-17
4.417328371e-17
5.181877706e-17
6.16714417e-17
7.448775747e-17
9.131683298e-17
1.136440449e-16
1.435860705e-16
1.842179492e-16
2.400344185e-16
3.177560196e-16
4.273904487e-16
5.841830965e-16
8.100005405e-16
1.138870875e-15
1.620768001e-15
3.538128818e-15
2.180574287e-14
9.68791443e-14
8.360387823e-13
2.591136978e-11
1.9762259e-09
9.957958566e-08
2.557388361e-06
2.426942215e-05
1.289037198e-17
1.351815444e-17
1.416980079e-17
1.485743787e-17
1.559663584e-17
1.640712618e-17
1.731371443e-17
1.834746412e-17
1.954725822e-17
2.096189568e-17
2.265295388e-17
2.469871459e-17
2.719957464e-17
3.028561052e-17
3.412714887e-17
3.894963294e-17
4.505520184e-17
5.285293042e-17
6.290117835e-17
7.59704531e-17
9.313206651e-17
1.159006846e-16
1.46438271e-16
1.878816398e-16
2.448235727e-16
3.241091566e-16
4.35945751e-16
5.957530987e-16
8.259596607e-16
1.161038883e-15
1.651808209e-15
4.309330298e-15
2.288351296e-14
1.089203542e-13
1.011740128e-12
2.90303455e-11
2.33524615e-09
1.093296047e-07
2.896933722e-06
2.600080342e-05
1.315055583e-17
1.379176671e-17
1.445714275e-17
1.515902977e-17
1.59132929e-17
1.674005061e-17
1.766460664e-17
1.871865821e-17
1.994189076e-17
2.138411882e-17
2.310820066e-17
2.519403706e-17
2.774409352e-17
3.089110044e-17
3.480883229e-17
3.972730767e-17
4.595457409e-17
5.390745936e-17
6.415508988e-17
7.748269227e-17
9.498373747e-17
1.182033206e-16
1.493489298e-16
1.916212423e-16
2.497101978e-16
3.305898601e-16
4.446616766e-16
6.075575205e-16
8.42225366e-16
1.18363534e-15
1.683463231e-15
5.093432433e-15
2.397871052e-14
1.211721382e-13
1.190185582e-12
3.21856228e-11
2.697651509e-09
1.343011312e-07
3.239470718e-06
2.774544143e-05
1.34154395e-17
1.407036264e-17
1.474976694e-17
1.546622283e-17
1.623589638e-17
1.707929966e-17
1.802224264e-17
1.909706662e-17
2.034427249e-17
2.181470552e-17
2.35725257e-17
2.569928252e-17
2.829954629e-17
3.150875223e-17
3.550418897e-17
4.05205e-17
4.687176614e-17
5.498280742e-17
6.543375944e-17
7.902510456e-17
9.687266969e-17
1.205528797e-16
1.523192644e-16
1.954379777e-16
2.546960928e-16
3.371999803e-16
4.535439174e-16
6.195988257e-16
8.588054126e-16
1.206669564e-15
1.715734517e-15
5.890809261e-15
2.509187269e-14
1.336347776e-13
1.37136067e-12
3.537775052e-11
3.063530726e-09
1.639107591e-07
3.584982858e-06
2.950325291e-05
1.368515598e-17
1.435408302e-17
1.504781979e-17
1.577916696e-17
1.656459799e-17
1.742502599e-17
1.838677604e-17
1.948284457e-17
2.075456153e-17
2.225381955e-17
2.404610218e-17
2.621463714e-17
2.886613706e-17
3.213879246e-17
3.621347038e-17
4.132950849e-17
4.780715043e-17
5.607943023e-17
6.673776237e-17
8.05983431e-17
9.87996836e-17
1.22950315e-16
1.553504751e-16
1.993331507e-16
2.597830724e-16
3.439417346e-16
4.625975566e-16
6.318802751e-16
8.757072543e-16
1.230150323e-15
1.748625962e-15
6.701819875e-15
2.62234846e-14
1.463087756e-13
1.555255607e-12
3.860719839e-11
3.432969522e-09
1.937951335e-07
3.933447775e-06
3.12741264e-05
1.395983482e-17
1.464306538e-17
1.535144504e-17
1.609801047e-17
1.689954924e-17
1.777738346e-17
1.875836291e-17
1.987615087e-17
2.117292067e-17
2.270163004e-17
2.452910884e-17
2.674029295e-17
2.944407591e-17
3.278145434e-17
3.693693906e-17
4.215464334e-17
4.876110745e-17
5.71977928e-17
6.806767329e-17
8.220307767e-17
1.007656029e-16
1.253965996e-16
1.584437621e-16
2.033081352e-16
2.649729972e-16
3.508175885e-16
4.71827287e-16
6.444057058e-16
8.929381333e-16
1.254086088e-15
1.782143372e-15
7.526810416e-15
2.737398934e-14
1.591948202e-13
1.741863204e-12
4.187433451e-11
3.806039509e-09
2.239550942e-07
4.28484199e-06
3.312040953e-05
1.423960321e-17
1.493744498e-17
1.566078473e-17
1.642290076e-17
1.724090175e-17
1.813652722e-17
1.913716174e-17
2.027714776e-17
2.159951709e-17
2.315831116e-17
2.502172988e-17
2.727644788e-17
3.003357922e-17
3.343697842e-17
3.76748677e-17
4.299622546e-17
4.973402623e-17
5.833836853e-17
6.942407006e-17
8.383999131e-17
1.027712583e-16
1.278927245e-16
1.616003364e-16
2.073643661e-16
2.702677894e-16
3.578301812e-16
4.812375582e-16
6.571793767e-16
9.105051557e-16
1.27848521e-15
1.816294069e-15
8.366115792e-15
2.854379615e-14
1.722937635e-13
1.931176546e-12
4.51793747e-11
4.182799074e-09
2.543914152e-07
4.639141217e-06
3.531796994e-05
1.452458684e-17
1.523735577e-17
1.597597989e-17
1.67539849e-17
1.75888077e-17
1.850261388e-17
1.952333344e-17
2.068600085e-17
2.203452216e-17
2.362404203e-17
2.552415495e-17
2.78233058e-17
3.063486989e-17
3.410561282e-17
3.842753846e-17
4.385458573e-17
5.072630456e-17
5.950163893e-17
7.080753616e-17
8.550977865e-17
1.048174899e-16
1.304396973e-16
1.648214271e-16
2.115033345e-16
2.756694381e-16
3.649822794e-16
4.90832676e-16
6.702058628e-16
9.28415352e-16
1.30335604e-15
1.851086568e-15
9.220061199e-15
2.973328746e-14
1.856066404e-13
2.123186557e-12
5.10393768e-11
4.955352581e-09
2.851045961e-07
5.14098227e-06
3.753152083e-05
1.481491058e-17
1.554293097e-17
1.629717122e-17
1.709141015e-17
1.794342009e-17
1.887580172e-17
1.991704141e-17
2.110287908e-17
2.247811141e-17
2.409900656e-17
2.603657909e-17
2.83810766e-17
3.124817752e-17
3.478761337e-17
3.919524262e-17
4.473006462e-17
5.173834904e-17
6.06880937e-17
7.221866215e-17
8.721314535e-17
1.069051491e-16
1.330385432e-16
1.681082866e-16
2.157265854e-16
2.811800005e-16
3.722767488e-16
5.006168708e-16
6.834899821e-16
9.466757272e-16
1.328707015e-15
1.886530334e-15
1.008896344e-14
3.094282487e-14
1.991347226e-13
2.317881894e-12
8.817017894e-11
7.064917312e-09
3.160967796e-07
5.724074289e-06
3.976093712e-05
1.511069899e-17
1.585430369e-17
1.662449959e-17
1.743532437e-17
1.830489316e-17
1.92562509e-17
2.031845168e-17
2.152795474e-17
2.293046442e-17
2.458339343e-17
2.655920274e-17
2.894997617e-17
3.187373845e-17
3.548324361e-17
3.997828023e-17
4.562301186e-17
5.277057509e-17
6.189823097e-17
7.365804669e-17
8.895080806e-17
1.090350995e-16
1.356903058e-16
1.714621935e-16
2.200357156e-16
2.868016016e-16
3.797165375e-16
5.105943432e-16
6.97036747e-16
9.652932994e-16
1.354546705e-15
1.922635586e-15
1.0973132e-14
3.217275252e-14
2.128793163e-13
2.515283988e-12
1.257303459e-10
9.195737022e-09
3.473683294e-07
6.311936031e-06
4.200602776e-05
1.541207682e-17
1.617160738e-17
1.695810648e-17
1.778587642e-17
1.867338261e-17
1.964412366e-17
2.0727733e-17
2.196140354e-17
2.339176489e-17
2.50773961e-17
2.709223177e-17
2.953022649e-17
3.251179585e-17
3.619277474e-17
4.077695997e-17
4.653378618e-17
5.382340704e-17
6.313255754e-17
7.512629733e-17
9.072349469e-17
1.112082186e-16
1.383960485e-16
1.748844559e-16
2.244323725e-16
2.925364316e-16
3.873046661e-16
5.207692968e-16
7.108513307e-16
9.842751316e-16
1.380883847e-15
1.959413147e-15
1.187286983e-14
3.34234003e-14
2.268419245e-13
2.7154146e-12
1.637256724e-10
1.134783194e-08
3.979454904e-07
6.904574099e-06
4.42667195e-05
1.571916933e-17
1.649497618e-17
1.729813434e-17
1.814321651e-17
1.904904594e-17
2.003958451e-17
2.114505699e-17
2.240340468e-17
2.386220066e-17
2.558121279e-17
2.763587743e-17
3.012205562e-17
3.316259971e-17
3.691648566e-17
4.159159895e-17
4.746275527e-17
5.489727816e-17
6.439158922e-17
7.662403112e-17
9.25319449e-17
1.134253984e-16
1.411568552e-16
1.783764126e-16
2.289182538e-16
2.983867449e-16
3.950442222e-16
5.311459598e-16
7.249390464e-16
1.003628355e-15
1.407727359e-15
1.996874311e-15
1.278847381e-14
3.469508615e-14
2.410241643e-13
2.918295504e-12
2.021617687e-10
1.352131236e-08
4.775103187e-07
7.5019789e-06
4.674633943e-05
1.603210263e-17
1.682454528e-17
1.764472691e-17
1.850749646e-17
1.943204266e-17
2.04428005e-17
2.15705983e-17
2.285414098e-17
2.434196376e-17
2.609504654e-17
2.819035647e-17
3.072569777e-17
3.382640688e-17
3.765466284e-17
4.242252262e-17
4.841029564e-17
5.59926308e-17
6.567585111e-17
7.815187521e-17
9.437691061e-17
1.156875466e-16
1.43973832e-16
1.819394352e-16
2.334951061e-16
3.043548575e-16
4.029383575e-16
5.417286014e-16
7.393053325e-16
1.023360187e-15
1.435086344e-15
2.035030742e-15
1.372023467e-14
3.598811632e-14
2.554276974e-13
3.123947869e-12
2.410436907e-10
1.571644311e-08
5.577858265e-07
8.104120568e-06
4.943254314e-05
1.635100393e-17
1.716045117e-17
1.799802951e-17
1.887886996e-17
1.982253456e-17
2.085394134e-17
2.200453477e-17
2.331379893e-17
2.483125049e-17
2.661910527e-17
2.875589112e-17
3.13413933e-17
3.450348108e-17
3.840760038e-17
4.327006475e-17
4.937679263e-17
5.710991645e-17
6.698587795e-17
7.971046737e-17
9.625915667e-17
1.179955874e-16
1.468481082e-16
1.855749283e-16
2.381647247e-16
3.104431464e-16
4.109902874e-16
5.525215428e-16
7.539557446e-16
1.043477942e-15
1.462970078e-15
2.073894366e-15
1.466843612e-14
3.730278401e-14
2.700541387e-13
3.332391149e-12
2.803762409e-10
1.793344472e-08
6.387706224e-07
8.719056379e-06
5.213701263e-05
1.667600181e-17
1.750283193e-17
1.835818928e-17
1.925749284e-17
2.022068587e-17
2.127317963e-17
2.244704756e-17
2.378256888e-17
2.533026153e-17
2.715360185e-17
2.933270915e-17
3.196938875e-17
3.519409291e-17
3.91756e-17
4.413456737e-17
5.03626404e-17
5.824959592e-17
6.832221439e-17
8.130045653e-17
9.817946145e-17
1.203504626e-16
1.497808372e-16
1.892843313e-16
2.429289537e-16
3.166540485e-16
4.192032905e-16
5.635291664e-16
7.688959492e-16
1.063989036e-15
1.491387985e-15
2.113477273e-15
1.563335268e-14
3.863936632e-14
2.849049196e-13
3.543641344e-12
3.201639593e-10
2.01724999e-08
7.204627636e-07
9.622296265e-06
5.485972418e-05
1.700722637e-17
1.785182741e-17
1.872535539e-17
1.964352329e-17
2.062666354e-17
2.170069103e-17
2.289832131e-17
2.426064512e-17
2.583920202e-17
2.769875415e-17
2.992104396e-17
3.260993694e-17
3.589851988e-17
3.995897098e-17
4.501638081e-17
5.136824204e-17
5.941213951e-17
6.968541537e-17
8.292250328e-17
1.001386175e-16
1.227531323e-16
1.527731975e-16
1.930691189e-16
2.477896851e-16
3.229900595e-16
4.275807099e-16
5.747559214e-16
7.841317209e-16
1.084900991e-15
1.520349591e-15
2.153791606e-15
1.661524513e-14
3.999811984e-14
2.999811069e-13
3.757705035e-12
3.604111907e-10
2.243372294e-08
8.028684619e-07
1.053257524e-05
5.760065431e-05
1.734480946e-17
1.820757943e-17
1.909967929e-17
2.003712199e-17
2.104063735e-17
2.213665443e-17
2.33585443e-17
2.474822604e-17
2.635828168e-17
2.825478516e-17
3.052113461e-17
3.326329695e-17
3.661704646e-17
4.075803027e-17
4.591586369e-17
5.239400956e-17
6.059802717e-17
7.107604642e-17
8.457728035e-17
1.021374323e-16
1.252045759e-16
1.558263936e-16
1.969308012e-16
2.527488593e-16
3.294537342e-16
4.361259538e-16
5.862063295e-16
7.9966894e-16
1.106221429e-15
1.549864436e-15
2.194849452e-15
1.76143527e-14
4.137926157e-14
3.152831711e-13
6.583173962e-12
4.011223685e-10
2.471714954e-08
8.859933889e-07
1.144988246e-05
6.039357675e-05
1.768888481e-17
1.857023197e-17
1.948131481e-17
2.043845238e-17
2.146278012e-17
2.25812521e-17
2.382790859e-17
2.524551422e-17
2.688771489e-17
2.882192304e-17
3.113322593e-17
3.392973424e-17
3.734996413e-17
4.157310247e-17
4.6833383e-17
5.344036407e-17
6.180774871e-17
7.249468401e-17
8.626547314e-17
1.041767288e-16
1.277057927e-16
1.58941657e-16
2.008709255e-16
2.578084647e-16
3.360476863e-16
4.448424971e-16
5.978849894e-16
8.155135936e-16
1.127958081e-15
1.579941919e-15
2.236662578e-15
1.86308793e-14
5.052453839e-14
3.308144548e-13
9.463021208e-12
4.422959807e-10
2.975828869e-08
9.698427309e-07
1.237422085e-05
6.354620136e-05
1.803958821e-17
1.893993134e-17
1.987041841e-17
2.084768078e-17
2.189326791e-17
2.303466986e-17
2.430661017e-17
2.575271658e-17
2.742772084e-17
2.940040126e-17
3.175756858e-17
3.460952069e-17
3.809757142e-17
4.240451995e-17
4.776931419e-17
5.450773589e-17
6.304180404e-17
7.394191591e-17
8.79877802e-17
1.062573459e-16
1.302578028e-16
1.621202468e-16
2.048910756e-16
2.629705385e-16
3.427745885e-16
4.537338827e-16
6.097965801e-16
8.316717794e-16
1.150118825e-15
1.610590989e-15
2.674346877e-15
1.966512538e-14
6.211679142e-14
3.465770684e-13
1.238079504e-11
4.839320875e-10
3.895843952e-08
1.110794378e-06
1.3305631e-05
6.671929348e-05
1.839705763e-17
1.93168263e-17
2.02671493e-17
2.126497655e-17
2.233228012e-17
2.349709726e-17
2.47948491e-17
2.627004452e-17
2.797852364e-17
2.99904587e-17
3.239441914e-17
3.530293469e-17
3.8860174e-17
4.325262287e-17
4.872404123e-17
5.559656467e-17
6.430070337e-17
7.541834152e-17
8.974491372e-17
1.083801396e-16
1.328616477e-16
1.653634504e-16
2.089928733e-16
2.682371663e-16
3.496371732e-16
4.628037236e-16
6.219458652e-16
8.481497091e-16
1.172711671e-15
1.641821601e-15
3.43261406e-15
2.071739391e-14
7.389710918e-14
3.664441211e-13
1.533670899e-11
5.260331064e-10
4.824867054e-08
1.289270472e-06
1.42440995e-05
6.991286214e-05
1.876143333e-17
1.970106821e-17
2.067166959e-17
2.169051227e-17
2.277999967e-17
2.396872768e-17
2.529282965e-17
2.679771405e-17
2.854035241e-17
3.059233973e-17
3.304404022e-17
3.601026123e-17
3.963808476e-17
4.41177593e-17
4.969795678e-17
5.670729957e-17
6.558496749e-17
7.692457226e-17
9.153760004e-17
1.10545983e-16
1.355183913e-16
1.686725845e-16
2.131779787e-16
2.73610483e-16
3.566382329e-16
4.720557042e-16
6.343376964e-16
8.649537111e-16
1.195744788e-15
1.673644725e-15
4.204780671e-15
2.178796761e-14
8.586662697e-14
5.384796272e-13
1.833095245e-11
7.910758951e-10
5.763044467e-08
1.46927664e-06
1.544891727e-05
7.312703056e-05
1.913285804e-17
2.00928112e-17
2.108414441e-17
2.212446387e-17
2.323661316e-17
2.44497585e-17
2.580076043e-17
2.733594591e-17
2.911344146e-17
3.120629433e-17
3.370670058e-17
3.673179198e-17
4.043162392e-17
4.500028533e-17
5.069146225e-17
5.784039945e-17
6.689512801e-17
7.846123193e-17
9.336658013e-17
1.127557672e-16
1.382291203e-16
1.720489955e-16
2.174480907e-16
2.790926731e-16
3.637806213e-16
4.814935823e-16
6.469770164e-16
8.82090238e-16
1.21922655e-15
1.706071442e-15
4.991081477e-15
2.287712344e-14
9.802828444e-14
7.130444437e-13
2.136378453e-11
1.137952157e-09
6.710437191e-08
1.650815653e-06
1.675971281e-05
7.636176068e-05
1.951147699e-17
2.049221223e-17
2.150474212e-17
2.256701078e-17
2.370231101e-17
2.494039126e-17
2.631885459e-17
2.788496571e-17
2.969803036e-17
3.183257824e-17
3.43826752e-17
3.746782544e-17
4.124111913e-17
4.590056516e-17
5.1704968e-17
5.899633308e-17
6.823172765e-17
8.002895708e-17
9.523261008e-17
1.150104022e-16
1.40994945e-16
1.754940603e-16
2.218049478e-16
2.846859712e-16
3.710672536e-16
4.911211913e-16
6.598688629e-16
8.995658711e-16
1.243165517e-15
1.739113013e-15
5.791757214e-15
2.398514607e-14
1.10384893e-13
8.901620388e-13
2.443558659e-11
1.488704427e-09
7.66706811e-08
1.833894312e-06
1.80802394e-05
7.992731173e-05
1.989743809e-17
2.089943126e-17
2.193363434e-17
2.301833604e-17
2.417728756e-17
2.544083178e-17
2.684732987e-17
2.844500407e-17
3.029436409e-17
3.247145305e-17
3.507224544e-17
3.821866702e-17
4.206690559e-17
4.68189713e-17
5.273889351e-17
6.01755793e-17
6.959532052e-17
8.16283974e-17
9.71364616e-17
1.173108167e-16
1.43817e-16
1.790091873e-16
2.262503287e-16
2.903926631e-16
3.785011084e-16
5.009424415e-16
6.730183714e-16
9.173873237e-16
1.267570431e-15
1.772780819e-15
6.607052014e-15
2.511232427e-14
1.229391925e-13
1.069857698e-12
2.754671212e-11
1.843355301e-09
8.632948023e-08
2.018517512e-06
1.941051842e-05
8.357048935e-05
2.0290892e-17
2.131463135e-17
2.237099616e-17
2.347862647e-17
2.466174129e-17
2.59512903e-17
2.73864088e-17
2.901629677e-17
3.090269321e-17
3.312318636e-17
3.577569913e-17
3.898462917e-17
4.290932616e-17
4.775588462e-17
5.379366751e-17
6.137862732e-17
7.098647241e-17
8.326021608e-17
9.90789225e-17
1.196579597e-16
1.466964448e-16
1.825958164e-16
2.307860528e-16
2.962150858e-16
3.860852281e-16
5.109613227e-16
6.864307777e-16
9.355614424e-16
1.292450202e-15
1.807086386e-15
7.437213543e-15
2.625894995e-14
1.356938756e-13
1.252156563e-12
3.069748826e-11
2.201922238e-09
9.608067889e-08
2.204688168e-06
2.075057078e-05
8.723642531e-05
2.069199225e-17
2.173797879e-17
2.281700622e-17
2.394807279e-17
2.515587487e-17
2.647198165e-17
2.793631884e-17
2.959908487e-17
3.152327394e-17
3.378805189e-17
3.649333075e-17
3.976603153e-17
4.376873156e-17
4.871169461e-17
5.48697282e-17
6.260597687e-17
7.24057611e-17
8.492509026e-17
1.010607972e-16
1.220528001e-16
1.496344644e-16
1.862554204e-16
2.354139813e-16
3.021556291e-16
3.938227204e-16
5.211819057e-16
7.001114208e-16
9.540952084e-16
1.317813914e-15
1.842041399e-15
8.282492835e-15
2.742531755e-14
1.486515855e-13
1.437083162e-12
3.388821699e-11
2.564415564e-09
1.059238533e-07
2.440086743e-06
2.21004193e-05
9.09251653e-05
2.11008953e-17
2.216964318e-17
2.327184684e-17
2.442686976e-17
2.565989537e-17
2.700312533e-17
2.84972925e-17
3.019361485e-17
3.215636835e-17
3.446632962e-17
3.722544152e-17
4.056320108e-17
4.464548048e-17
4.968679948e-17
5.596752346e-17
6.385813854e-17
7.385377669e-17
8.662371136e-17
1.030829071e-16
1.244963281e-16
1.526322702e-16
1.899895054e-16
2.401360176e-16
3.08216736e-16
4.017167597e-16
5.316083443e-16
7.140657451e-16
9.729957392e-16
1.343670817e-15
1.877657707e-15
9.143144087e-15
2.861172328e-14
1.618149105e-13
1.624660806e-12
3.711917761e-11
2.930835353e-09
1.24429697e-07
2.78524345e-06
2.373951836e-05
9.463678594e-05
2.151776067e-17
2.260979755e-17
2.373570415e-17
2.491521626e-17
2.617401435e-17
2.754494574e-17
2.906956748e-17
3.080013876e-17
3.280224446e-17
3.515830597e-17
3.797233958e-17
4.137647227e-17
4.553993972e-17
5.068160636e-17
5.708751102e-17
6.513563398e-17
7.533112191e-17
8.835678556e-17
1.051460914e-16
1.269895552e-16
1.556911005e-16
1.937996114e-16
2.449541083e-16
3.144009039e-16
4.09770588e-16
5.422448774e-16
7.282993028e-16
9.922702896e-16
1.370030326e-15
1.913947324e-15
1.001942445e-14
2.981846446e-14
1.75186379e-13
1.814910612e-12
4.039059794e-11
3.301196717e-09
1.543269562e-07
3.133295279e-06
2.550325426e-05
9.866040169e-05
2.194275105e-17
2.305861849e-17
2.42087682e-17
2.541331549e-17
2.669844802e-17
2.809767223e-17
2.965338686e-17
3.141891441e-17
3.346117644e-17
3.586427389e-17
3.873434015e-17
4.220618717e-17
4.645248443e-17
5.169653151e-17
5.823015876e-17
6.643899618e-17
7.683841244e-17
9.012503414e-17
1.072512072e-16
1.295335151e-16
1.58812221e-16
1.976873133e-16
2.498702439e-16
3.207106856e-16
4.179875167e-16
5.530958306e-16
7.428177559e-16
1.011926252e-15
1.396902021e-15
1.950922427e-15
1.09115938e-14
3.104583918e-14
1.8876846e-13
2.007849969e-12
4.370261699e-11
3.675544186e-09
1.845068354e-07
3.484240537e-06
2.727969798e-05
0.0001027923024
2.237603233e-17
2.351628624e-17
2.469123308e-17
2.592137508e-17
2.723341735e-17
2.866153932e-17
3.02489992e-17
3.205020544e-17
3.413344473e-17
3.65845331e-17
3.951176566e-17
4.30526957e-17
4.738349825e-17
5.273200052e-17
5.939594485e-17
6.776876978e-17
7.837627731e-17
9.192919395e-17
1.093991303e-16
1.321292642e-16
1.619969259e-16
2.016542213e-16
2.548864598e-16
3.271486901e-16
4.263709282e-16
5.641656185e-16
7.576268779e-16
1.031971157e-15
1.424295638e-15
1.988595354e-15
1.181991453e-14
3.229414612e-14
2.025635894e-13
2.203490587e-12
4.705522153e-11
4.053917217e-09
2.149712447e-07
3.838078294e-06
2.906882885e-05
0.0001069492163
2.281777378e-17
2.39829848e-17
2.518329706e-17
2.643960716e-17
2.777914825e-17
2.923678679e-17
3.085665871e-17
3.269428156e-17
3.48193362e-17
3.731939017e-17
4.030494594e-17
4.391635573e-17
4.833337349e-17
5.37884485e-17
6.058535809e-17
6.912551133e-17
7.994535917e-17
9.377001781e-17
1.115907555e-16
1.347778822e-16
1.652465381e-16
2.057019822e-16
2.600048369e-16
3.33717584e-16
4.349242765e-16
5.754587457e-16
7.727325552e-16
1.052412671e-15
1.452221069e-15
2.02697859e-15
1.274465119e-14
3.356368488e-14
2.165742509e-13
2.401836077e-12
7.218577464e-11
4.436348046e-09
2.457221454e-07
4.194805363e-06
3.08706276e-05
0.0001111311269
2.326814805e-17
2.445890203e-17
2.568516267e-17
2.696822859e-17
2.833587169e-17
2.982365988e-17
3.147662542e-17
3.335141864e-17
3.551914433e-17
3.806915875e-17
4.111421841e-17
4.479753332e-17
4.930251136e-17
5.486632032e-17
6.179889811e-17
7.050978961e-17
8.154631473e-17
9.564827495e-17
1.138269971e-16
1.374804727e-16
1.685624101e-16
2.098322796e-16
2.652275031e-16
3.404200925e-16
4.436510896e-16
5.869798093e-16
7.881407884e-16
1.073258596e-15
1.480688342e-15
2.06608475e-15
1.368606998e-14
3.485475494e-14
2.308028882e-13
2.602910477e-12
1.09897868e-10
6.379979046e-09
2.767617911e-07
4.554413732e-06
3.268506752e-05
0.000115338026
2.372733135e-17
2.494422977e-17
2.619703688e-17
2.750746102e-17
2.890382385e-17
3.042240938e-17
3.210916531e-17
3.402189893e-17
3.623316937e-17
3.883415971e-17
4.193992821e-17
4.569660291e-17
5.029132217e-17
5.596607085e-17
6.303707563e-17
7.192218594e-17
8.317981506e-17
9.756475144e-17
1.161087899e-16
1.402381639e-16
1.71945925e-16
2.140468353e-16
2.705566336e-16
3.472590007e-16
4.525549704e-16
5.987335e-16
8.038576924e-16
1.094516862e-15
1.509707606e-15
2.105926544e-15
1.464443788e-14
3.616765403e-14
2.45251946e-13
2.806747258e-12
1.480646089e-10
8.524277033e-09
3.080888195e-07
5.012350259e-06
3.489888117e-05
0.0001199182421
2.419550349e-17
2.543916396e-17
2.671913117e-17
2.805753107e-17
2.948324624e-17
3.103329186e-17
3.27545505e-17
3.470601119e-17
3.696171853e-17
3.961472135e-17
4.278242845e-17
4.661394748e-17
5.130022553e-17
5.708816518e-17
6.430041278e-17
7.336329448e-17
8.484654602e-17
9.952025067e-17
1.184370891e-16
1.430521089e-16
1.753984967e-16
2.183474095e-16
2.759944523e-16
3.542371547e-16
4.616395983e-16
6.107246036e-16
8.19889497e-16
1.116195522e-15
1.539289084e-15
2.146516707e-15
1.562002129e-14
3.750267575e-14
2.599238913e-13
3.01337807e-12
1.866911539e-10
1.069130691e-08
3.397023641e-07
5.603967026e-06
3.714906801e-05
0.0001245847541
2.467284798e-17
2.594390473e-17
2.725166168e-17
2.861867043e-17
3.00743859e-17
3.165656976e-17
3.341305939e-17
3.540405089e-17
3.770510614e-17
4.041117954e-17
4.36420804e-17
4.75499588e-17
5.232965061e-17
5.823307892e-17
6.558944334e-17
7.483372259e-17
8.654720862e-17
1.015155937e-16
1.208128709e-16
1.459234868e-16
1.789215707e-16
2.227358021e-16
2.815432327e-16
3.613574628e-16
4.709087308e-16
6.229580025e-16
8.362425464e-16
1.138302739e-15
1.569442991e-15
2.187867879e-15
1.661308375e-14
3.886010438e-14
2.748211479e-13