/*--------------------------------*- C++ -*----------------------------------*\
| =========                 |                                                 |
| \\      /  F ield         | OpenFOAM: The Open Source CFD Toolbox           |
|  \\    /   O peration     | Version:  v2006                                 |
|   \\  /    A nd           | Website:  www.openfoam.com                      |
|    \\/     M anipulation  |                                                 |
\*---------------------------------------------------------------------------*/
FoamFile
{
    version     2.0;
    format      ascii;
    class       volScalarField;
    location    "0.15";
    object      CH3O;
}
// * * * * * * * * * * * * * * * * * * * * * * * * * * * * * * * * * * * * * //

dimensions      [0 0 0 0 0 0 0];


internalField   nonuniform List<scalar> 
168000
(
3.140696774e-15
3.557924367e-15
3.991375306e-15
4.443770378e-15
4.928748528e-15
5.454913003e-15
6.009435969e-15
6.602441419e-15
7.31485702e-15
8.099819882e-15
8.951341281e-15
1.002661466e-14
1.128639544e-14
1.26762677e-14
1.459534913e-14
1.682350338e-14
1.947835793e-14
2.32395699e-14
2.743731444e-14
3.369505209e-14
4.105301943e-14
5.159553925e-14
6.483325944e-14
8.390494439e-14
1.08279735e-13
1.452681762e-13
1.909481908e-13
2.67396631e-13
3.670973238e-13
5.170180517e-13
7.468780735e-13
1.06174284e-12
4.725108583e-12
1.403169671e-11
8.176444771e-11
4.660401522e-10
4.161219304e-09
7.040640224e-08
8.746476805e-07
3.481385344e-06
3.210675568e-15
3.635388987e-15
4.077542212e-15
4.54099988e-15
5.034077049e-15
5.563709225e-15
6.130947289e-15
6.749496505e-15
7.458735532e-15
8.252966342e-15
9.146293999e-15
1.022340914e-14
1.149152949e-14
1.296495068e-14
1.486352005e-14
1.713772067e-14
1.991879738e-14
2.363048927e-14
2.808372239e-14
3.427785333e-14
4.194939288e-14
5.253267821e-14
6.621791281e-14
8.540076785e-14
1.106696112e-13
1.4761755e-13
1.956812935e-13
2.719188444e-13
3.746263121e-13
5.27797096e-13
7.594198541e-13
1.08305732e-12
5.110946769e-12
1.450719771e-11
8.601737019e-11
4.938537925e-10
4.58862509e-09
7.698677998e-08
9.361995163e-07
3.582770154e-06
3.280182334e-15
3.713611467e-15
4.164859147e-15
4.638132979e-15
5.139974664e-15
5.677334551e-15
6.256754625e-15
6.892133894e-15
7.608189889e-15
8.41545296e-15
9.336195655e-15
1.042575189e-14
1.17127214e-14
1.323968549e-14
1.514787615e-14
1.746886318e-14
2.034089288e-14
2.406767141e-14
2.869652364e-14
3.491456774e-14
4.282576693e-14
5.352604524e-14
6.758442304e-14
8.699212126e-14
1.130022506e-13
1.502210513e-13
2.002154897e-13
2.76775039e-13
3.822349386e-13
5.385565898e-13
7.72658115e-13
1.104585902e-12
5.497199907e-12
1.499483674e-11
9.039343603e-11
5.219357087e-10
5.016861682e-09
8.365123116e-08
9.983812906e-07
3.6848987e-06
3.349995165e-15
3.792563169e-15
4.253128795e-15
4.73601674e-15
5.247254867e-15
5.794121639e-15
6.385378691e-15
7.034686505e-15
7.761708179e-15
8.583627027e-15
9.526178651e-15
1.063314459e-14
1.194325974e-14
1.351090419e-14
1.544338864e-14
1.781175589e-14
2.075851623e-14
2.453220764e-14
2.929720796e-14
3.558602973e-14
4.369923364e-14
5.455987775e-14
6.89523279e-14
8.865399559e-14
1.153208744e-13
1.530083421e-13
2.046415071e-13
2.818968551e-13
3.899394018e-13
5.493645547e-13
7.864969884e-13
1.126357281e-12
5.885132813e-12
1.549428704e-11
9.488352198e-11
5.502939186e-10
5.446652177e-09
9.039444835e-08
1.063998314e-06
3.787802727e-06
3.420474971e-15
3.872371627e-15
4.342436761e-15
4.835058494e-15
5.356180072e-15
5.913391784e-15
6.516420134e-15
7.178828471e-15
7.918679132e-15
8.756078447e-15
9.718423554e-15
1.084525834e-14
1.218039819e-14
1.378344387e-14
1.574764041e-14
1.81640226e-14
2.117835056e-14
2.501488672e-14
2.989697918e-14
3.628229506e-14
4.457912225e-14
5.562570408e-14
7.033304212e-14
9.037222292e-14
1.176516594e-13
1.559347267e-13
2.090209758e-13
2.872373667e-13
3.977530358e-13
5.602712054e-13
8.008643111e-13
1.148396576e-12
6.275788238e-12
1.600526134e-11
9.948000877e-11
6.098245631e-10
5.878567974e-09
1.062739098e-07
1.148486873e-06
3.885447188e-06
3.491810747e-15
3.953178716e-15
4.432919323e-15
4.935479926e-15
5.466858802e-15
6.034896823e-15
6.649810332e-15
7.325231001e-15
8.078869767e-15
8.932286664e-15
9.913870299e-15
1.106191948e-14
1.242306344e-14
1.405958192e-14
1.605947987e-14
1.852459811e-14
2.160364029e-14
2.551129526e-14
3.050175652e-14
3.69982743e-14
4.547060403e-14
5.671908292e-14
7.173335322e-14
9.213893215e-14
1.200104387e-13
1.589720366e-13
2.133959718e-13
2.927645635e-13
4.056870476e-13
5.713136706e-13
8.157060272e-13
1.170726111e-12
6.670024372e-12
1.652750485e-11
1.04176902e-10
7.088021521e-10
6.313102069e-09
1.23740377e-07
1.233799912e-06
3.95890883e-06
3.564126098e-15
4.035108438e-15
4.52470313e-15
5.037422835e-15
5.579363862e-15
6.158572857e-15
6.78557872e-15
7.474186314e-15
8.242210585e-15
9.112082647e-15
1.011294164e-14
1.128306186e-14
1.267087933e-14
1.434042056e-14
1.637837649e-14
1.88930331e-14
2.203599449e-14
2.601938846e-14
3.111474016e-14
3.773143731e-14
4.637662698e-14
5.783780058e-14
7.315741184e-14
9.394989217e-14
1.224068153e-13
1.621027442e-13
2.17795429e-13
2.984568409e-13
4.137510135e-13
5.825195209e-13
8.309819398e-13
1.193365996e-12
7.06854368e-12
1.70607797e-11
1.089698112e-10
8.088294051e-10
6.750632436e-09
1.413901713e-07
1.31993046e-06
4.032952647e-06
3.637515121e-15
4.118264339e-15
4.617895505e-15
5.140992691e-15
5.693762961e-15
6.284433939e-15
6.923782566e-15
7.625843782e-15
8.408704741e-15
9.295436739e-15
1.031584766e-14
1.150868567e-14
1.292375525e-14
1.462652082e-14
1.670410933e-14
1.926917025e-14
2.247625052e-14
2.653828793e-14
3.173772896e-14
3.848060596e-14
4.729895313e-14
5.898087423e-14
7.460786377e-14
9.580296697e-14
1.248466756e-13
1.653161637e-13
2.222394505e-13
3.042998685e-13
4.219532285e-13
5.939093941e-13
8.466624581e-13
1.21633458e-12
7.47191455e-12
2.008048625e-11
1.138553179e-10
9.099329741e-10
7.320582078e-09
1.592211602e-07
1.406872222e-06
4.107583087e-06
3.712055021e-15
4.202733368e-15
4.712587282e-15
5.246276907e-15
5.810124261e-15
6.412526521e-15
7.064486761e-15
7.780299674e-15
8.57838881e-15
9.4823757e-15
1.052271313e-14
1.173882942e-14
1.318171501e-14
1.491819421e-14
1.703661465e-14
1.965299388e-14
2.292488545e-14
2.706768816e-14
3.23717983e-14
3.924531839e-14
4.823871416e-14
6.014800079e-14
7.608649415e-14
9.769722307e-14
1.273337151e-13
1.686060032e-13
2.267422049e-13
3.102844122e-13
4.303009705e-13
6.054989251e-13
8.627260805e-13
1.239648554e-12
7.880645619e-12
2.367111631e-11
1.188303361e-10
1.012137741e-09
9.032280018e-09
1.772322326e-07
1.494618793e-06
4.182803176e-06
3.787811764e-15
4.288590161e-15
4.808857207e-15
5.353352738e-15
5.928516079e-15
6.542910094e-15
7.207758266e-15
7.937631215e-15
8.751315587e-15
9.672950348e-15
1.073363028e-14
1.197355321e-14
1.344482719e-14
1.521563772e-14
1.737591076e-14
2.004455986e-14
2.338221104e-14
2.760756432e-14
3.301764962e-14
4.002549363e-14
4.919670854e-14
6.133925239e-14
7.75945948e-14
9.96324173e-14
1.298703603e-13
1.719687916e-13
2.313138747e-13
3.164048134e-13
4.388007065e-13
6.17300165e-13
8.791574216e-13
1.263323083e-12
8.295177693e-12
2.73300386e-11
1.371176669e-10
1.115484877e-09
1.075872405e-08
1.954209733e-07
1.583164154e-06
4.258614821e-06
3.86484339e-15
4.375900466e-15
4.906775449e-15
5.462290961e-15
6.049005941e-15
6.67564903e-15
7.353664657e-15
8.097909401e-15
8.9275464e-15
9.867222829e-15
1.094868035e-14
1.221292935e-14
1.371317755e-14
1.551899661e-14
1.772206067e-14
2.044396264e-14
2.384846559e-14
2.815802898e-14
3.367579103e-14
4.082125454e-14
5.017356026e-14
6.255490833e-14
7.913317464e-14
1.01608705e-13
1.324583206e-13
1.754028669e-13
2.359619682e-13
3.226579269e-13
4.474582583e-13
6.293226448e-13
8.959456038e-13
1.481617815e-12
8.715891792e-12
3.105679005e-11
1.594684138e-10
1.220005095e-09
1.250059223e-08
2.13785292e-07
1.672501185e-06
4.333542832e-06
3.943202238e-15
4.464723642e-15
5.006406089e-15
5.573157829e-15
6.171660024e-15
6.810809193e-15
7.502273754e-15
8.2612037e-15
9.107147565e-15
1.006526149e-14
1.116794207e-14
1.245703745e-14
1.398685884e-14
1.582839385e-14
1.807515318e-14
2.085131937e-14
2.432385672e-14
2.871926227e-14
3.434663105e-14
4.163283413e-14
5.116980316e-14
6.379536257e-14
8.070308078e-14
1.036264751e-13
1.350989158e-13
1.789077274e-13
2.406922029e-13
3.290423775e-13
4.562789355e-13
6.41574109e-13
9.130841563e-13
1.787122567e-12
9.143107134e-12
3.485116531e-11
1.821864577e-10
1.325724325e-09
1.425845076e-08
2.323231089e-07
1.7720904e-06
4.369699699e-06
4.022936522e-15
4.555114454e-15
5.107808835e-15
5.686016269e-15
6.296543025e-15
6.948456601e-15
7.653653529e-15
8.427583719e-15
9.290188667e-15
1.026713871e-14
1.139149499e-14
1.270596186e-14
1.426596727e-14
1.614394404e-14
1.843529333e-14
2.126676211e-14
2.480858115e-14
2.929147808e-14
3.503052738e-14
4.246052598e-14
5.218592583e-14
6.506107312e-14
8.230506901e-14
1.056862583e-13
1.377932677e-13
1.824836175e-13
2.455091005e-13
3.355580386e-13
4.652676456e-13
6.540611073e-13
9.305699372e-13
2.097664494e-12
9.577097587e-12
3.871306946e-11
2.052677697e-10
1.432666307e-09
1.603273237e-08
2.51033542e-07
1.877429922e-06
4.406137316e-06
4.10409146e-15
4.647124348e-15
5.211040222e-15
5.800926719e-15
6.423718269e-15
7.08865697e-15
7.807872101e-15
8.597119734e-15
9.476741687e-15
1.047292989e-14
1.161942057e-14
1.295979055e-14
1.45506017e-14
1.646575998e-14
1.880259725e-14
2.169043364e-14
2.530283367e-14
2.987490793e-14
3.572781249e-14
4.330465792e-14
5.322239537e-14
6.635253465e-14
8.39398452e-14
1.077886754e-13
1.40542411e-13
1.861312629e-13
2.50416388e-13
3.42205667e-13
4.744289875e-13
6.667893983e-13
9.484020096e-13
2.413400798e-12
1.001810525e-11
4.264250679e-11
2.287095544e-10
1.540852942e-09
1.782374301e-08
2.829110785e-07
1.983697562e-06
4.442853926e-06
4.186710098e-15
4.740802362e-15
5.316154484e-15
5.917947759e-15
6.553247946e-15
7.231475635e-15
7.964997768e-15
8.769882848e-15
9.666880532e-15
1.06827129e-14
1.18518026e-14
1.321861455e-14
1.484086352e-14
1.679395585e-14
1.917718955e-14
2.212248531e-14
2.580681105e-14
3.046979337e-14
3.643880714e-14
4.41655781e-14
5.427966996e-14
6.767026396e-14
8.560809023e-14
1.099344097e-13
1.433473547e-13
1.898517019e-13
2.554172672e-13
3.489866474e-13
4.837673272e-13
6.797642281e-13
9.665811883e-13
2.734482073e-12
1.046634639e-11
4.663956731e-11
2.525099094e-10
1.650303046e-09
1.963192128e-08
3.188686941e-07
2.090888201e-06
4.479847779e-06
4.270833919e-15
4.836195808e-15
5.423204188e-15
6.037136605e-15
6.685193379e-15
7.376977632e-15
8.125099074e-15
8.945945031e-15
9.860680773e-15
1.089656784e-14
1.208872724e-14
1.34825277e-14
1.513685694e-14
1.712864865e-14
1.955920174e-14
2.256307563e-14
2.632071382e-14
3.107638255e-14
3.716382757e-14
4.504364764e-14
5.535820567e-14
6.901479246e-14
8.731047515e-14
1.121241915e-13
1.462091165e-13
1.936461799e-13
2.605145974e-13
3.559028136e-13
4.9328686e-13
6.929905325e-13
9.851096628e-13
3.061052894e-12
1.092201635e-11
5.070441223e-11
2.766675484e-10
1.761032723e-09
2.145769078e-08
3.551599585e-07
2.198994902e-06
4.517116528e-06
4.356503292e-15
4.933350774e-15
5.532240728e-15
6.158549517e-15
6.819615287e-15
7.525227843e-15
8.288244893e-15
9.125379137e-15
1.005821951e-14
1.111457688e-14
1.233028303e-14
1.375162666e-14
1.543868915e-14
1.746995894e-14
1.994877136e-14
2.301236948e-14
2.684474688e-14
3.169492871e-14
3.790318949e-14
4.59392368e-14
5.645846018e-14
7.038666267e-14
8.904767076e-14
1.143587899e-13
1.491287401e-13
1.975160814e-13
2.657110178e-13
3.629563232e-13
5.029916619e-13
7.0647308e-13
1.003990702e-12
3.39325262e-12
1.13852935e-11
5.483726199e-11
3.011815266e-10
1.873054591e-09
2.330140542e-08
3.917858915e-07
2.30801038e-06
4.54800536e-06
4.443757828e-15
5.032312511e-15
5.6433147e-15
6.282242121e-15
6.956574037e-15
7.676291153e-15
8.454504527e-15
9.308258937e-15
1.02595753e-14
1.133682408e-14
1.257656084e-14
1.402601082e-14
1.574647048e-14
1.78180111e-14
2.034604138e-14
2.347053751e-14
2.737911982e-14
3.232568964e-14
3.865721026e-14
4.685272305e-14
5.758089488e-14
7.178642676e-14
9.082035377e-14
1.166390082e-13
1.521073036e-13
2.014628889e-13
2.710090304e-13
3.701495716e-13
5.128857321e-13
7.202165714e-13
1.023228426e-12
3.731216083e-12
1.185634262e-11
5.903838965e-11
3.260509343e-10
1.986376047e-09
2.516335373e-08
4.28747433e-07
2.417927101e-06
4.543111127e-06
4.532636641e-15
5.133125732e-15
5.756476211e-15
6.408269691e-15
7.096129866e-15
7.83023262e-15
8.623947812e-15
9.494659162e-15
1.046482812e-14
1.156339545e-14
1.282765387e-14
1.430578234e-14
1.606031451e-14
1.817293351e-14
2.075115989e-14
2.39377558e-14
2.792404693e-14
3.296892747e-14
3.942621019e-14
4.778449017e-14
5.872597625e-14
7.321464623e-14
9.262921088e-14
1.18965681e-13
1.551459224e-13
2.054881561e-13
2.764110563e-13
3.774851319e-13
5.229730274e-13
7.342257079e-13
1.042827628e-12
4.075074206e-12
1.233531767e-11
6.330812689e-11
3.512745785e-10
2.120981715e-09
2.804667769e-08
4.660451897e-07
2.529275e-06
4.538181283e-06
4.623178568e-15
5.235834858e-15
5.871775121e-15
6.536687371e-15
7.238343071e-15
7.987117619e-15
8.796645226e-15
9.684655567e-15
1.067405943e-14
1.179437887e-14
1.308365766e-14
1.459104618e-14
1.638033812e-14
1.853485847e-14
2.116427979e-14
2.441420554e-14
2.847974727e-14
3.362490875e-14
4.02105134e-14
4.873492789e-14
5.98941768e-14
7.467189216e-14
9.447494161e-14
1.213396733e-13
1.582457505e-13
2.095934926e-13
2.819194737e-13
3.84965714e-13
5.332574894e-13
7.485052374e-13
1.062793637e-12
4.424954531e-12
1.282236423e-11
6.764688137e-11
3.768509681e-10
2.504877511e-09
3.435923295e-08
5.036817635e-07
2.641819187e-06
4.533216105e-06
4.715422339e-15
5.340484206e-15
5.989261243e-15
6.667550372e-15
7.383274187e-15
8.147011992e-15
8.972667996e-15
9.878324996e-15
1.088735214e-14
1.20298641e-14
1.334467006e-14
1.488191007e-14
1.670666152e-14
1.890392228e-14
2.158555862e-14
2.490007288e-14
2.904644464e-14
3.429390455e-14
4.101044832e-14
4.970443191e-14
6.108597581e-14
7.615874582e-14
9.635826022e-14
1.237618787e-13
1.614079793e-13
2.137805541e-13
2.875366443e-13
3.92594137e-13
5.437430676e-13
7.630599839e-13
1.083132205e-12
4.780981646e-12
1.331762085e-11
7.205507177e-11
4.027829173e-10
2.893212397e-09
4.073539009e-08
5.41657596e-07
2.755283994e-06
4.52821602e-06
4.809406718e-15
5.447118155e-15
6.108984512e-15
6.800914135e-15
7.530984133e-15
8.309982173e-15
9.152088202e-15
1.007574545e-14
1.110479069e-14
1.226994285e-14
1.361079129e-14
1.517848459e-14
1.703940824e-14
1.928026515e-14
2.201515842e-14
2.539554876e-14
2.962436758e-14
3.497619059e-14
4.182634817e-14
5.0693404e-14
6.230185998e-14
7.767579925e-14
9.827989713e-14
1.262332196e-13
1.646338372e-13
2.180510368e-13
2.932649309e-13
4.003733103e-13
5.544337361e-13
7.778948649e-13
1.103849425e-12
5.143277513e-12
1.382122033e-11
7.653317984e-11
4.290732841e-10
3.286046279e-09
4.717520965e-08
5.888844933e-07
2.869670693e-06
4.523181189e-06
4.90517062e-15
5.555781273e-15
6.230995128e-15
6.936834472e-15
7.681534352e-15
8.476095308e-15
9.334978873e-15
1.027699619e-14
1.132646108e-14
1.251470875e-14
1.38821239e-14
1.548088311e-14
1.737870515e-14
1.966403113e-14
2.245324562e-14
2.590082883e-14
3.021374943e-14
3.56720474e-14
4.265855124e-14
5.170225229e-14
6.354232399e-14
7.922365598e-14
1.002406e-13
1.28754646e-13
1.679245884e-13
2.224066747e-13
2.991067101e-13
4.083062222e-13
5.653335076e-13
7.930149001e-13
1.124951655e-12
5.511961648e-12
1.433329067e-11
8.108172398e-11
4.557249274e-10
3.683437154e-09
5.367902158e-08
6.498991114e-07
2.984977434e-06
4.499367019e-06
5.002753208e-15
5.666518436e-15
6.355343677e-15
7.075367692e-15
7.834986922e-15
8.645419366e-15
9.521414087e-15
1.048215775e-14
1.155245095e-14
1.276425744e-14
1.415877287e-14
1.578922185e-14
1.772468243e-14
2.005536816e-14
2.289999098e-14
2.641611339e-14
3.08148283e-14
3.638176049e-14
4.350740129e-14
5.273139159e-14
6.480787111e-14
8.080293166e-14
1.022411345e-13
1.313271355e-13
1.712815315e-13
2.268492375e-13
3.050643815e-13
4.163959311e-13
5.764464428e-13
8.084252124e-13
1.146445461e-12
5.887151084e-12
1.485395514e-11
8.570123686e-11
4.827406271e-10
4.085437288e-09
6.024761837e-08
7.114587168e-07
3.101198451e-06
4.4579119e-06
5.102193981e-15
5.77937492e-15
6.482081233e-15
7.216570705e-15
7.99140467e-15
8.818023233e-15
9.711469052e-15
1.06913121e-14
1.178284963e-14
1.301868656e-14
1.444084556e-14
1.610361989e-14
1.807747359e-14
2.045442796e-14
2.335556952e-14
2.694160738e-14
3.142784718e-14
3.710562046e-14
4.437324775e-14
5.378124366e-14
6.609901363e-14
8.241425474e-14
1.042822848e-13
1.339516927e-13
1.747059993e-13
2.313805305e-13
3.111403737e-13
4.246455613e-13
5.877766569e-13
8.241310223e-13
1.168337557e-12
6.268960033e-12
1.538333177e-11
9.039223608e-11
5.101229376e-10
4.492096323e-09
6.688165987e-08
7.735622425e-07
3.217886867e-06
4.416174893e-06
5.203532844e-15
5.89439649e-15
6.611259455e-15
7.360501121e-15
8.15085126e-15
8.993976811e-15
9.905220192e-15
1.090454262e-14
1.201774818e-14
1.327809585e-14
1.472845181e-14
1.642419914e-14
1.843721546e-14
2.086136603e-14
2.382016049e-14
2.747752031e-14
3.205305396e-14
3.784392327e-14
4.525644607e-14
5.485223764e-14
6.741627347e-14
8.405826697e-14
1.063648545e-13
1.366293496e-13
1.78199358e-13
2.360023946e-13
3.173371494e-13
4.330582994e-13
5.993283229e-13
8.401376335e-13
1.190634748e-12
6.657498998e-12
1.592153212e-11
9.515518046e-11
5.378739596e-10
4.903461191e-09
7.358169276e-08
8.362081986e-07
3.319949612e-06
4.374156364e-06
5.306810176e-15
6.011629472e-15
6.742930667e-15
7.507217336e-15
8.313391284e-15
9.173351092e-15
1.010274523e-14
1.112193427e-14
1.225723948e-14
1.354258715e-14
1.502170392e-14
1.675108443e-14
1.880404819e-14
2.127634168e-14
2.429394736e-14
2.802406634e-14
3.269070153e-14
3.859697028e-14
4.615735794e-14
5.594481035e-14
6.876018256e-14
8.573562399e-14
1.084896664e-13
1.393611649e-13
1.817630069e-13
2.407167065e-13
3.236572091e-13
4.416373925e-13
6.111056719e-13
8.56450407e-13
1.21334387e-12
7.052872943e-12
1.646865945e-11
9.999041177e-11
5.659945562e-10
5.319576803e-09
8.034805903e-08
8.994013488e-07
3.42280775e-06
4.331856675e-06
5.412066881e-15
6.131120818e-15
6.877147926e-15
7.656778605e-15
8.479090339e-15
9.356218244e-15
1.030412325e-14
1.134357356e-14
1.250141827e-14
1.38122645e-14
1.532071671e-14
1.708440349e-14
1.917811526e-14
2.169951796e-14
2.477711783e-14
2.858146424e-14
3.334104786e-14
3.936506852e-14
4.707635158e-14
5.705940666e-14
7.013128336e-14
8.74469958e-14
1.106575635e-13
1.42148224e-13
1.853983779e-13
2.455253796e-13
3.301030935e-13
4.503861472e-13
6.231129918e-13
8.730747114e-13
1.236471726e-12
7.455178172e-12
1.70248011e-11
1.048980806e-10
6.630061461e-10
5.740488988e-09
8.718086546e-08
9.631460421e-07
3.526460056e-06
4.287052957e-06
5.519344447e-15
6.252918168e-15
7.013965096e-15
7.809245118e-15
8.648015102e-15
9.542651678e-15
1.050943477e-14
1.156954869e-14
1.275038118e-14
1.408723413e-14
1.562560756e-14
1.742428696e-14
1.955956349e-14
2.213106173e-14
2.526986383e-14
2.914993749e-14
3.400435606e-14
4.014853082e-14
4.801380202e-14
5.819647986e-14
7.153012926e-14
8.919306723e-14
1.128694089e-13
1.449916395e-13
1.891069363e-13
2.504303644e-13
3.366773864e-13
4.593079297e-13
6.353546316e-13
8.900158361e-13
1.26002494e-12
7.864496743e-12
1.998386153e-11
1.098792587e-10
7.61748387e-10
6.166182102e-09
9.833496596e-08
1.027446256e-06
3.630906859e-06
4.21952563e-06
5.628684986e-15
6.377069905e-15
7.153436904e-15
7.964678059e-15
8.820233393e-15
9.732726118e-15
1.071876183e-14
1.179994958e-14
1.300422686e-14
1.436760453e-14
1.593649645e-14
1.777086849e-14
1.994854309e-14
2.257114365e-14
2.577238153e-14
2.972971429e-14
3.468089455e-14
4.0947676e-14
4.897009133e-14
5.935649197e-14
7.295728503e-14
9.097453836e-14
1.151260864e-13
1.478925509e-13
1.9289018e-13
2.554336495e-13
3.433827171e-13
4.684061686e-13
6.478350235e-13
9.072788151e-13
1.43925343e-12
8.280949596e-12
2.370170738e-11
1.149346224e-10
8.617909603e-10
6.596656757e-09
1.15990187e-07
1.105449516e-06
3.736152745e-06
4.151559901e-06
5.74013128e-15
6.503625199e-15
7.295618995e-15
8.123139672e-15
8.99581424e-15
9.926517665e-15
1.093218801e-14
1.203486791e-14
1.326305595e-14
1.465348652e-14
1.625350598e-14
1.812428467e-14
2.034520766e-14
2.301993821e-14
2.628487141e-14
3.032102764e-14
3.537093713e-14
4.176282904e-14
4.994560891e-14
6.053991413e-14
7.441332721e-14
9.279212494e-14
1.174285006e-13
1.508521246e-13
1.967496403e-13
2.605372627e-13
3.502217617e-13
4.776843562e-13
6.60558673e-13
9.248692506e-13
1.744576978e-12
8.704658692e-12
2.747986321e-11
1.204968218e-10
9.631411839e-10
7.031937935e-09
1.338182725e-07
1.192592958e-06
3.842196203e-06
4.083155577e-06
5.853726821e-15
6.632634062e-15
7.440567987e-15
8.284693313e-15
9.174827939e-15
1.012410386e-14
1.114979855e-14
1.227439722e-14
1.35269712e-14
1.494499328e-14
1.657676144e-14
1.848467518e-14
2.074971421e-14
2.347762376e-14
2.680753829e-14
3.092411542e-14
3.607476308e-14
4.259432128e-14
5.094075174e-14
6.174722687e-14
7.589884449e-14
9.46465588e-14
1.197775775e-13
1.538715547e-13
2.006868821e-13
2.657432716e-13
3.571972458e-13
4.871460505e-13
6.735301751e-13
9.427933156e-13
2.05549653e-12
9.135737817e-12
3.131869277e-11
1.430962831e-10
1.065805546e-09
8.401415727e-09
1.518220294e-07
1.280483481e-06
3.925883622e-06
4.014310019e-06
5.969515846e-15
6.764147383e-15
7.588341516e-15
8.449403504e-15
9.35734611e-15
1.032556372e-14
1.137168033e-14
1.251863294e-14
1.379607748e-14
1.524224039e-14
1.690639085e-14
1.885218273e-14
2.116222326e-14
2.394438256e-14
2.734059139e-14
3.153922045e-14
3.679265737e-14
4.344249062e-14
5.195592466e-14
6.297892051e-14
7.741443811e-14
9.65385882e-14
1.221742646e-13
1.569520626e-13
2.047035045e-13
2.710537853e-13
3.64311946e-13
4.967948788e-13
6.867542395e-13
9.610572458e-13
2.372106573e-12
9.574298447e-12
3.52191385e-11
1.660279825e-10
1.169792927e-09
1.011567728e-08
1.700026286e-07
1.369122437e-06
4.001539466e-06
3.945024041e-06
6.087543376e-15
6.898216975e-15
7.738998283e-15
8.617335983e-15
9.543441749e-15
1.053097784e-14
1.1597922e-14
1.276767247e-14
1.407048188e-14
1.554534592e-14
1.724252498e-14
1.92269532e-14
2.158289881e-14
2.442040084e-14
2.788424438e-14
3.216659062e-14
3.752491069e-14
4.430768168e-14
5.299154058e-14
6.423549542e-14
7.896072221e-14
9.846897825e-14
1.246195312e-13
1.60094898e-13
2.088011408e-13
2.764709544e-13
3.715686924e-13
5.066345409e-13
7.002356817e-13
9.796673775e-13
2.694503994e-12
1.002045516e-11
3.918210168e-11
1.892950013e-10
1.275116398e-09
1.184909362e-08
1.883605089e-07
1.458513148e-06
4.077756963e-06
3.864966973e-06
6.207855243e-15
7.034895608e-15
7.892598103e-15
8.788557755e-15
9.733189277e-15
1.07404284e-14
1.182861401e-14
1.302161518e-14
1.43502937e-14
1.585443042e-14
1.758529746e-14
1.960913561e-14
2.201190846e-14
2.490586884e-14
2.843871548e-14
3.280647894e-14
3.827181969e-14
4.519024602e-14
5.404802079e-14
6.551746237e-14
8.053832421e-14
1.004385112e-13
1.27114369e-13
1.633013385e-13
2.129814596e-13
2.819969731e-13
3.789703692e-13
5.166688106e-13
7.139794171e-13
9.986301135e-13
3.022787047e-12
1.047432418e-11
4.320846061e-11
2.129006595e-10
1.381788073e-09
1.360177639e-08
2.068958777e-07
1.548658004e-06
4.154537348e-06
3.782567637e-06
6.330498128e-15
7.174237054e-15
8.049201937e-15
8.963137134e-15
9.926664598e-15
1.095399924e-14
1.206384864e-14
1.328056255e-14
1.463562458e-14
1.616961706e-14
1.793484477e-14
1.999888221e-14
2.244942341e-14
2.540098088e-14
2.90042275e-14
3.345914371e-14
3.903368706e-14
4.609054235e-14
5.512579521e-14
6.682534285e-14
8.214788515e-14
1.02447987e-13
1.296597923e-13
1.665726908e-13
2.172461652e-13
2.876340798e-13
3.865199172e-13
5.269015362e-13
7.279904583e-13
1.01795194e-12
3.357055407e-12
1.0936023e-11
4.729907844e-11
2.368482582e-10
1.489819165e-09
1.537381184e-08
2.256085612e-07
1.639558426e-06
4.231881829e-06
3.699653564e-06
6.455519589e-15
7.316296118e-15
8.208871944e-15
9.141143789e-15
1.012394514e-14
1.11717759e-14
1.230372008e-14
1.354461814e-14
1.492658848e-14
1.649103158e-14
1.829130633e-14
2.039634853e-14
2.289561855e-14
2.590593543e-14
2.958100798e-14
3.412484857e-14
3.98108217e-14
4.700893669e-14
5.62253026e-14
6.815966936e-14
8.379006006e-14
1.044982234e-13
1.322568383e-13
1.699102904e-13
2.215969985e-13
2.933845582e-13
3.942203351e-13
5.373366417e-13
7.422739134e-13
1.037639431e-12
3.6974101e-12
1.140567012e-11
5.145480245e-11
2.611410176e-10
1.599220021e-09
1.716525097e-08
2.444977463e-07
1.735699715e-06
4.309791722e-06
3.616223723e-06
6.58296809e-15
7.461128671e-15
8.371671514e-15
9.322648794e-15
1.03251099e-14
1.13938457e-14
1.254832448e-14
1.38138877e-14
1.52233018e-14
1.681880245e-14
1.865482454e-14
2.080169347e-14
2.335067252e-14
2.642093518e-14
3.016928923e-14
3.480386266e-14
4.060353889e-14
4.794580262e-14
5.734699088e-14
6.952098573e-14
8.546551832e-14
1.065900566e-13
1.349065678e-13
1.733155027e-13
2.26035737e-13
2.992507383e-13
4.020746802e-13
5.479781276e-13
7.568349845e-13
1.057699252e-12
4.043953426e-12
1.188338474e-11
5.567646228e-11
2.857819984e-10
1.710000211e-09
1.897609411e-08
2.70923355e-07
1.842780113e-06
4.358549012e-06
3.532276379e-06
6.712893032e-15
7.608791692e-15
8.537665309e-15
9.507724663e-15
1.053023952e-14
1.162029775e-14
1.279776e-14
1.408847919e-14
1.552588339e-14
1.715306086e-14
1.902554488e-14
2.121507931e-14
2.38147678e-14
2.694618715e-14
3.076930845e-14
3.549646072e-14
4.141216044e-14
4.890152145e-14
5.849131736e-14
7.090984744e-14
8.717494396e-14
1.087243415e-13
1.376100653e-13
1.767897232e-13
2.305641965e-13
3.052349978e-13
4.100860705e-13
5.588300711e-13
7.716789664e-13
1.078138162e-12
4.39678887e-12
1.236928654e-11
5.996486831e-11
3.107739723e-10
1.822167541e-09
2.080641593e-08
3.072302557e-07
1.950758688e-06
4.395667594e-06
3.446445912e-06
6.845344784e-15
7.759343295e-15
8.706919303e-15
9.6964454e-15
1.073941627e-14
1.185122302e-14
1.305212684e-14
1.436850289e-14
1.583445465e-14
1.74939408e-14
1.940361591e-14
2.16366718e-14
2.428809073e-14
2.748190272e-14
3.138130786e-14
3.620292325e-14
4.223701487e-14
4.987648246e-14
5.965874899e-14
7.232682192e-14
8.891903611e-14
1.10901952e-13
1.403684399e-13
1.803343782e-13
2.351842312e-13
3.113397626e-13
4.182576851e-13
5.698966266e-13
7.868112455e-13
1.098963013e-12
4.756021013e-12
1.286349546e-11
6.432081191e-11
3.361192217e-10
1.935726771e-09
2.265643644e-08
3.438803658e-07
2.059634913e-06
4.43305362e-06
3.359696592e-06
6.980374706e-15
7.912842767e-15
8.879500819e-15
9.888886537e-15
1.095272418e-14
1.20867144e-14
1.331152736e-14
1.465407137e-14
1.614913953e-14
1.784157913e-14
1.978918939e-14
2.206664025e-14
2.477083164e-14
2.802829779e-14
3.200553477e-14
3.692353662e-14
4.307843754e-14
5.08710831e-14
6.084976265e-14
7.377248886e-14
9.069850926e-14
1.131237817e-13
1.431828251e-13
1.839509252e-13
2.398977346e-13
3.175675084e-13
4.265927658e-13
5.811820259e-13
8.022372972e-13
1.120180743e-12
5.121755441e-12
1.336613171e-11
6.874507375e-11
3.618192825e-10
2.05067744e-09
2.452635062e-08
3.808760048e-07
2.169408501e-06
4.470706655e-06
3.272422116e-06
7.118035181e-15
8.069350598e-15
9.055478568e-15
1.008512518e-14
1.117024901e-14
1.232686673e-14
1.357606604e-14
1.494529963e-14
1.647006466e-14
1.819611562e-14
2.018242032e-14
2.250515758e-14
2.526318493e-14
2.858559281e-14
3.26422417e-14
3.765859321e-14
4.393677087e-14
5.188572919e-14
6.206484539e-14
7.524744053e-14
9.25140937e-14
1.153907441e-13
1.4605438e-13
1.876408536e-13
2.447066406e-13
3.239207613e-13
4.350946173e-13
5.926905773e-13
8.179626823e-13
1.141798376e-12
5.494098613e-12
1.387731586e-11
7.323844983e-11
3.878746272e-10
2.339610021e-09
2.641631772e-08
4.182195544e-07
2.280078463e-06
4.508626293e-06
3.184622833e-06
7.258379644e-15
8.22892852e-15
9.234922688e-15
1.028524005e-14
1.139207834e-14
1.257177686e-14
1.384584962e-14
1.524230511e-14
1.679735935e-14
1.855769306e-14
2.0583467e-14
2.295240041e-14
2.576534911e-14
2.915401292e-14
3.329168651e-14
3.840839158e-14
4.481236452e-14
5.292083519e-14
6.330449469e-14
7.675228209e-14
9.436653583e-14
1.17703773e-13
1.489842891e-13
1.914056854e-13
2.496129239e-13
3.304020989e-13
4.437666085e-13
6.044266643e-13
8.3399304e-13
1.163823008e-12
5.873157648e-12
1.439716842e-11
7.780172327e-11
4.142884107e-10
2.729512416e-09
3.230962263e-08
4.559137514e-07
2.391642313e-06
4.546811973e-06
3.096298916e-06
7.401462607e-15
8.391639534e-15
9.417904782e-15
1.048931154e-14
1.161830162e-14
1.282154371e-14
1.412098709e-14
1.554520777e-14
1.71311557e-14
1.892645726e-14
2.099249115e-14
2.340854913e-14
2.627752695e-14
2.973378805e-14
3.395413254e-14
3.917323659e-14
4.570557551e-14
5.397682436e-14
6.456921876e-14
7.828763192e-14
9.62565986e-14
1.20063823e-13
1.519737636e-13
1.95246976e-13
2.546186011e-13
3.37014151e-13
4.526121718e-13
6.163947426e-13
8.503340755e-13
1.186261787e-12
6.259039974e-12
1.492580919e-11
8.243567753e-11
4.410650277e-10
3.124115085e-09
3.872609901e-08
4.939569411e-07
2.504448504e-06
4.54404622e-06
3.012093447e-06
7.547339691e-15
8.557547947e-15
9.604497956e-15
1.069742172e-14
1.184901019e-14
1.307626831e-14
1.440158981e-14
1.585413013e-14
1.747158864e-14
1.930255719e-14
2.140965794e-14
2.387378799e-14
2.679992554e-14
3.0325153e-14
3.46298487e-14
3.995343956e-14
4.66167685e-14
5.505412903e-14
6.585953681e-14
7.985412193e-14
9.818506179e-14
1.2247187e-13
1.550240412e-13
1.991663142e-13
2.597257311e-13
3.437596004e-13
4.616348041e-13
6.28599336e-13
8.66991536e-13
1.209121876e-12
6.651852776e-12
1.546335631e-11
8.714110314e-11
4.682086333e-10
3.523471324e-09
4.521059586e-08
5.323480715e-07
2.618638127e-06
4.539034838e-06
2.928175097e-06
7.696067652e-15
8.726719408e-15
9.794776861e-15
1.090965443e-14
1.208429735e-14
1.333605387e-14
1.46877715e-14
1.616919736e-14
1.781879599e-14
1.968614502e-14
2.183513608e-14
2.434830518e-14
2.733275638e-14
3.092834761e-14
3.531910963e-14
4.074931847e-14
4.754631589e-14
5.61531908e-14
6.717597927e-14
8.145239789e-14
1.001527225e-13
1.249289116e-13
1.581363871e-13
2.031653236e-13
2.649364167e-13
3.506411842e-13
4.708380662e-13
6.410450308e-13
8.839711635e-13
1.232410383e-12
7.051702093e-12
1.600992417e-11
9.191877675e-11