/*--------------------------------*- C++ -*----------------------------------*\
| =========                 |                                                 |
| \\      /  F ield         | OpenFOAM: The Open Source CFD Toolbox           |
|  \\    /   O peration     | Version:  v2006                                 |
|   \\  /    A nd           | Website:  www.openfoam.com                      |
|    \\/     M anipulation  |                                                 |
\*---------------------------------------------------------------------------*/
FoamFile
{
    version     2.0;
    format      ascii;
    class       volScalarField;
    location    "0.15";
    object      CH3O2H;
}
// * * * * * * * * * * * * * * * * * * * * * * * * * * * * * * * * * * * * * //

dimensions      [0 0 0 0 0 0 0];


internalField   nonuniform List<scalar> 
168000
(
4.986506053e-07
4.985786749e-07
4.987534072e-07
4.993628272e-07
5.016603018e-07
5.06395272e-07
5.122070344e-07
5.197403487e-07
5.350153202e-07
5.543664628e-07
5.769895993e-07
6.125737639e-07
6.585331771e-07
7.110680221e-07
7.921286487e-07
8.893300324e-07
1.008171172e-06
1.183762294e-06
1.381062625e-06
1.681405557e-06
2.036407626e-06
2.548857705e-06
3.194387476e-06
4.127022843e-06
5.320523664e-06
7.133641872e-06
9.373645747e-06
1.312402584e-05
1.801566946e-05
2.537198852e-05
3.665126328e-05
5.210205133e-05
7.317732058e-05
0.0001023595859
0.0001377623861
0.0001777047197
0.0002184190102
0.0002524803016
0.0002663877034
0.000241089959
5.097572401e-07
5.093759063e-07
5.093679269e-07
5.100597394e-07
5.121844352e-07
5.162925812e-07
5.222786072e-07
5.310325045e-07
5.453684992e-07
5.646087741e-07
5.892934452e-07
6.2447693e-07
6.703183478e-07
7.270691463e-07
8.066005572e-07
9.057850028e-07
1.030894264e-06
1.203588718e-06
1.413495535e-06
1.710440212e-06
2.080787998e-06
2.595125282e-06
3.262553607e-06
4.200578594e-06
5.437917185e-06
7.248996086e-06
9.605967908e-06
1.334596035e-05
1.83851467e-05
2.590093832e-05
3.726670856e-05
5.314798506e-05
7.438719144e-05
0.0001038506064
0.0001394485824
0.0001796983936
0.000220111256
0.0002535904466
0.0002663975996
0.0002389492684
5.20776692e-07
5.202806157e-07
5.201619479e-07
5.208119194e-07
5.227963657e-07
5.266488133e-07
5.327557424e-07
5.420219343e-07
5.561124166e-07
5.755031532e-07
6.013063786e-07
6.36688353e-07
6.830410493e-07
7.423060169e-07
8.219260446e-07
9.231459194e-07
1.052651633e-06
1.225765252e-06
1.444243995e-06
1.742153604e-06
2.124184303e-06
2.644159968e-06
3.329830933e-06
4.278826099e-06
5.552500757e-06
7.376825022e-06
9.82852589e-06
1.358428624e-05
1.875853065e-05
2.642892859e-05
3.791633078e-05
5.420442444e-05
7.559836345e-05
0.0001053796877
0.0001411836023
0.0001817112973
0.0002218067913
0.0002547147752
0.0002664075971
0.0002367928742
5.318416039e-07
5.312921136e-07
5.310991438e-07
5.316845163e-07
5.33570593e-07
5.37315919e-07
5.435064432e-07
5.530316839e-07
5.671502694e-07
5.868002239e-07
6.133427626e-07
6.491924316e-07
6.963116285e-07
7.573532596e-07
8.378410479e-07
9.411329655e-07
1.074166093e-06
1.249330049e-06
1.474385341e-06
1.775593315e-06
2.167440048e-06
2.695186727e-06
3.397179053e-06
4.360537391e-06
5.66639632e-06
7.513675816e-06
1.004577309e-05
1.383564817e-05
1.913661654e-05
2.695929715e-05
3.859542551e-05
5.527277767e-05
7.681480261e-05
0.0001069458052
0.0001429638287
0.0001837440055
0.0002235084789
0.0002558523921
0.0002663614465
0.0002346201062
5.430126649e-07
5.424286502e-07
5.421809873e-07
5.427078595e-07
5.445287063e-07
5.482309839e-07
5.544884931e-07
5.641852221e-07
5.784443653e-07
5.984013539e-07
6.255354003e-07
6.619776794e-07
7.099694744e-07
7.724769958e-07
8.54219876e-07
9.59616639e-07
1.095786665e-06
1.273814662e-06
1.504480938e-06
1.810265329e-06
2.211015438e-06
2.747789106e-06
3.465158581e-06
4.445016813e-06
5.780889048e-06
7.657354344e-06
1.026073463e-05
1.409774283e-05
1.95200589e-05
2.749450802e-05
3.930045153e-05
5.635427729e-05
7.803977861e-05
0.0001085480581
0.0001447862406
0.0001856072376
0.0002252185814
0.000256635119
0.0002659503009
0.0002323005464
5.543205118e-07
5.537089062e-07
5.534184076e-07
5.538984677e-07
5.556776581e-07
5.593682718e-07
5.656892765e-07
5.755307578e-07
5.899804183e-07
6.102686955e-07
6.379411679e-07
6.750380484e-07
7.239511746e-07
7.878024934e-07
8.710032883e-07
9.785384105e-07
1.117683222e-06
1.298994702e-06
1.534827221e-06
1.845916866e-06
2.255165449e-06
2.801748832e-06
3.534102871e-06
4.531877887e-06
5.896756278e-06
7.806477801e-06
1.047547576e-05
1.436899904e-05
1.99094078e-05
2.803638309e-05
4.00287562e-05
5.745001879e-05
7.927598243e-05
0.0001101856474
0.0001466484614
0.0001872509755
0.0002269390505
0.0002573688906
0.0002655351432
0.0002294277269
5.657845285e-07
5.651487635e-07
5.648233368e-07
5.652673326e-07
5.670213865e-07
5.707184606e-07
5.771061661e-07
5.87088099e-07
6.017537978e-07
6.223888272e-07
6.505853905e-07
6.883717034e-07
7.382340862e-07
8.03390447e-07
8.88164394e-07
9.978733495e-07
1.139940241e-06
1.324766237e-06
1.565584389e-06
1.882422278e-06
2.300035375e-06
2.85695714e-06
3.604215771e-06
4.620912864e-06
6.014469481e-06
7.960185736e-06
1.069141669e-05
1.464835634e-05
2.030513323e-05
2.858627524e-05
4.077836694e-05
5.856098894e-05
8.052561673e-05
0.0001118578271
0.0001485487503
0.0001889121453
0.0002286713829
0.0002581103639
0.0002651160073
0.0002265321408
5.774192679e-07
5.767614665e-07
5.764066837e-07
5.768231518e-07
5.785638804e-07
5.822796467e-07
5.887401549e-07
5.988664535e-07
6.137640721e-07
6.347581877e-07
6.634804291e-07
7.019795607e-07
7.5281239e-07
8.192718326e-07
9.056923037e-07
1.017612559e-06
1.162601789e-06
1.351084639e-06
1.596842465e-06
1.919723055e-06
2.345712025e-06
2.913365765e-06
3.675627225e-06
4.712016863e-06
6.134317649e-06
8.117953538e-06
1.090954413e-05
1.493511136e-05
2.070764228e-05
2.914519716e-05
4.154783166e-05
5.968808812e-05
8.179046379e-05
0.0001133062072
0.0001504857521
0.0001905911897
0.0002303705623
0.0002588594492
0.0002646929238
0.0002236136139
5.892366556e-07
5.88558252e-07
5.881781387e-07
5.885735846e-07
5.903097099e-07
5.940534018e-07
6.005937662e-07
6.108712247e-07
6.260127818e-07
6.473772875e-07
6.766334364e-07
7.15864189e-07
7.676870657e-07
8.354639117e-07
9.235841963e-07
1.037754948e-06
1.185692991e-06
1.377934393e-06
1.628655259e-06
1.957796251e-06
2.392251137e-06
2.970959845e-06
3.748424913e-06
4.805144051e-06
6.256482224e-06
8.279472313e-06
1.113055349e-05
1.522881082e-05
2.111729208e-05
2.971391601e-05
4.233609519e-05
6.083213541e-05
8.30721185e-05
0.0001147298214
0.0001524582431
0.0001922885218
0.0002316767684
0.0002596160999
0.0002642659239
0.0002206720281
6.012469143e-07
6.005488914e-07
6.001463899e-07
6.005257449e-07
6.022639296e-07
6.060430025e-07
6.126703277e-07
6.231065989e-07
6.385025061e-07
6.602484182e-07
6.900495712e-07
7.300291153e-07
7.828617703e-07
8.519776247e-07
9.418414305e-07
1.058303365e-06
1.209230237e-06
1.405314241e-06
1.661057867e-06
1.996637828e-06
2.439692041e-06
3.029742956e-06
3.822672288e-06
4.900282487e-06
6.381082326e-06
8.444571622e-06
1.135494454e-05
1.552917693e-05
2.153439996e-05
3.029302312e-05
4.31424025e-05
6.199387487e-05
8.437196306e-05
0.0001161805121
0.0001541278218
0.0001940048254
0.0002329942273
0.0002603802145
0.0002638350369
0.0002177073087
6.134590727e-07
6.127420925e-07
6.123193687e-07
6.126864052e-07
6.144318982e-07
6.182526099e-07
6.249736807e-07
6.355765133e-07
6.512364538e-07
6.733747426e-07
7.037333191e-07
7.444784278e-07
7.983411938e-07
8.688210322e-07
9.604676195e-07
1.079262759e-06
1.233225997e-06
1.433229896e-06
1.694075715e-06
2.036253868e-06
2.488065474e-06
3.089728853e-06
3.89841891e-06
4.997439797e-06
6.50820187e-06
8.613169831e-06
1.158308578e-05
1.583605529e-05
2.195925159e-05
3.088298616e-05
4.396621978e-05
6.300726976e-05
8.569119222e-05
0.0001176580955
0.0001557299195
0.0001957406105
0.0002343234564
0.0002611517053
0.0002634002975
0.0002146941634
6.258812984e-07
6.25145789e-07
6.24704446e-07
6.250620928e-07
6.268191409e-07
6.306868725e-07
6.375080366e-07
6.48284999e-07
6.642182718e-07
6.867599269e-07
7.176890247e-07
7.59216565e-07
8.141304354e-07
8.860009278e-07
9.794676662e-07
1.100639297e-06
1.257691078e-06
1.461690494e-06
1.727729244e-06
2.076655919e-06
2.537397745e-06
3.150936924e-06
3.975706392e-06
5.09663508e-06
6.637905634e-06
8.785242278e-06
1.181525778e-05
1.614937834e-05
2.239210749e-05
3.14841851e-05
4.480722945e-05
6.396524719e-05
8.703080692e-05
0.0001191624902
0.0001573583449
0.0001974963077
0.0002356648878
0.0002619304847
0.0002626547223
0.0002109831441
6.385211327e-07
6.377673496e-07
6.373085788e-07
6.376591464e-07
6.394312655e-07
6.433507267e-07
6.50277889e-07
6.612362851e-07
6.774519444e-07
7.004079846e-07
7.319211021e-07
7.742482117e-07
8.302347892e-07
9.035236035e-07
9.988472718e-07
1.122439919e-06
1.282635666e-06
1.49070687e-06
1.76203635e-06
2.117858538e-06
2.587712939e-06
3.213389706e-06
4.054571865e-06
5.197894381e-06
6.770248682e-06
8.960800913e-06
1.205168246e-05
1.646913982e-05
2.283320845e-05
3.209694131e-05
4.566527727e-05
6.493901942e-05
8.839166589e-05
0.0001206936586
0.0001590128091
0.0001992723114
0.0002370188517
0.0002627165159
0.0002617445717
0.0002072433097
6.513856603e-07
6.506137297e-07
6.50138417e-07
6.50483758e-07
6.522739171e-07
6.562492909e-07
6.632879543e-07
6.744348159e-07
6.909417345e-07
7.143232035e-07
7.464341132e-07
7.895782512e-07
8.466596874e-07
9.213952153e-07
1.018612682e-06
1.144672111e-06
1.308069807e-06
1.520290744e-06
1.797013664e-06
2.159877981e-06
2.639034089e-06
3.277111539e-06
4.135050006e-06
5.301248182e-06
6.90528178e-06
9.139881306e-06
1.229254269e-05
1.679537681e-05
2.328278009e-05
3.272153733e-05
4.654031724e-05
6.592907939e-05
8.977452827e-05
0.0001222516024
0.0001606931119
0.0002010689852
0.0002383855816
0.0002632019831
0.0002608264021
0.0002034748404
6.644816336e-07
6.636915836e-07
6.63200385e-07
6.635420063e-07
6.653527577e-07
6.693878098e-07
6.76543129e-07
6.878852381e-07
7.046921434e-07
7.285101066e-07
7.612327949e-07
8.052117467e-07
8.634106978e-07
9.396219609e-07
1.038770551e-06
1.167343783e-06
1.334003618e-06
1.55045433e-06
1.832677224e-06
2.202731512e-06
2.691383795e-06
3.342127849e-06
4.217174267e-06
5.406730026e-06
7.04305445e-06
9.322534394e-06
1.253799559e-05
1.712815722e-05
2.374103663e-05
3.335823054e-05
4.743238928e-05
6.693589929e-05
9.118007218e-05
0.0001238363572
0.0001623991169
0.0002028866416
0.0002397654121
0.0002636023387
0.0002599002576
0.000199677916
6.77815565e-07
6.770073474e-07
6.765007433e-07
6.768398875e-07
6.786734604e-07
6.827716228e-07
6.900484602e-07
7.015923814e-07
7.187078826e-07
7.429734277e-07
7.763220652e-07
8.211539356e-07
8.804935362e-07
9.582101664e-07
1.059327868e-06
1.190463199e-06
1.360447381e-06
1.581210166e-06
1.869042836e-06
2.246437039e-06
2.744784555e-06
3.408464784e-06
4.300977614e-06
5.514375765e-06
7.183616625e-06
9.508821252e-06
1.278818143e-05
1.746757099e-05
2.420818389e-05
3.40072631e-05
4.834160079e-05
6.795993245e-05
9.260891008e-05
0.000125447987
0.0001641307319
0.000204725548
0.0002411586666
0.0002640064093
0.0002589661983
0.0001958527773
6.913937964e-07
6.905673025e-07
6.900456369e-07
6.903833411e-07
6.922417112e-07
6.964061486e-07
7.038091244e-07
7.155612398e-07
7.329938518e-07
7.577180948e-07
7.917070235e-07
8.374102289e-07
8.979140808e-07
9.771663289e-07
1.080291913e-06
1.214038928e-06
1.387411582e-06
1.612571034e-06
1.906126273e-06
2.291012921e-06
2.79925895e-06
3.476149038e-06
4.386493003e-06
5.624223148e-06
7.327019516e-06
9.698809802e-06
1.304322971e-05
1.781372395e-05
2.468442183e-05
3.466886896e-05
4.926811212e-05
6.900161584e-05
9.406160135e-05
0.0001270865791
0.000165887889
0.0002065859139
0.000242565615
0.0002644142061
0.0002580242871
0.0001918964796
7.052225528e-07
7.043776252e-07
7.038411337e-07
7.041782726e-07
7.060632147e-07
7.102968772e-07
7.178304142e-07
7.297969565e-07
7.47555123e-07
7.72749217e-07
8.073929467e-07
8.539862127e-07
9.156783832e-07
9.964971372e-07
1.101670236e-06
1.238079821e-06
1.414906927e-06
1.644549934e-06
1.943943385e-06
2.336477872e-06
2.854829744e-06
3.545207779e-06
4.473753679e-06
5.736311601e-06
7.47331601e-06
9.892572757e-06
1.330326317e-05
1.816673359e-05
2.516994666e-05
3.534327873e-05
5.021212539e-05
7.006137222e-05
9.55386626e-05
0.0001287522419
0.0001676705232
0.0002084678623
0.0002439864776
0.0002648257397
0.0002570745891
0.0001873533583
7.193079833e-07
7.184444243e-07
7.178932556e-07
7.182305745e-07
7.201437027e-07
7.244493675e-07
7.32117729e-07
7.443048125e-07
7.623969284e-07
7.880720751e-07
8.233852866e-07
8.708876491e-07
9.337926759e-07
1.016209482e-06
1.123470632e-06
1.262594992e-06
1.442944346e-06
1.677160074e-06
1.98251016e-06
2.382850916e-06
2.911519953e-06
3.615668635e-06
4.562793376e-06
5.850682098e-06
7.622560839e-06
1.009018634e-05
1.356840058e-05
1.852672615e-05
2.566495247e-05
3.603072306e-05
5.117387577e-05
7.113961212e-05
9.704057658e-05
0.0001304451067
0.0001694785489
0.0002103411593
0.0002453340946
0.0002652410167
0.0002557782773
0.0001827771792
7.336561945e-07
7.327737723e-07
7.32208004e-07
7.325461434e-07
7.344889422e-07
7.388692479e-07
7.466765703e-07
7.590902187e-07
7.775246509e-07
8.036921147e-07
8.396896665e-07
8.88120477e-07
9.52263377e-07
1.036310458e-06
1.145701141e-06
1.287593805e-06
1.471534998e-06
1.710414875e-06
2.02184277e-06
2.43015137e-06
2.969352891e-06
3.687559705e-06
4.653646457e-06
5.967377083e-06
7.774810611e-06
1.02917295e-05
1.383875861e-05
1.889383453e-05
2.616963265e-05
3.673143487e-05
5.215362464e-05
7.223673543e-05
9.856779977e-05
0.0001321653351
0.0001713118591
0.0002118611363
0.0002463990582
0.0002656600663
0.0002542906361
0.0001781682007
7.482732767e-07
7.473717304e-07
7.46791381e-07
7.471308955e-07
7.491047447e-07
7.535622189e-07
7.615125391e-07
7.741587101e-07
7.929438179e-07
8.1961494e-07
8.563118785e-07
9.056908129e-07
9.710970929e-07
1.05680737e-06
1.168370031e-06
1.313085863e-06
1.50069027e-06
1.744327975e-06
2.061957596e-06
2.478398841e-06
3.028352203e-06
3.760909586e-06
4.746348008e-06
6.086440427e-06
7.930123785e-06
1.049728346e-05
1.411445312e-05
1.926819704e-05
2.668418094e-05
3.744565082e-05
5.315165428e-05
7.33531328e-05
0.0001001207666
0.0001339130933
0.0001731706557
0.0002133986892
0.0002474747518
0.0002660828932
0.0002527908261
0.000173526818
7.631653257e-07
7.622443687e-07
7.61649407e-07
7.619907806e-07
7.639969749e-07
7.685340566e-07
7.766313354e-07
7.895159426e-07
8.086600967e-07
8.358463103e-07
8.73257881e-07
9.236049499e-07
9.903006196e-07
1.077707726e-06
1.191485799e-06
1.339081009e-06
1.53042178e-06
1.778913235e-06
2.10287125e-06
2.527613237e-06
3.088541899e-06
3.835747407e-06
4.840933907e-06
6.207917387e-06
8.088560621e-06
1.070693143e-05
1.43956e-05
1.964995639e-05
2.72087923e-05
3.817361216e-05
5.416826355e-05
7.448918665e-05
0.0001016998934
0.0001356885721
0.0001750551435
0.000214954055
0.0002485611856
0.0002663418456
0.0002512788302
0.0001688531823
7.783384607e-07
7.773977837e-07
7.767881361e-07
7.771317936e-07
7.791715582e-07
7.837906169e-07
7.920387588e-07
8.051676917e-07
8.246792917e-07
8.523921369e-07
8.905337974e-07
9.418693578e-07
1.009880943e-06
1.099019242e-06
1.215057165e-06
1.365589317e-06
1.560741377e-06
1.81418475e-06
2.144600591e-06
2.577814773e-06
3.149946379e-06
3.912102857e-06
4.937440878e-06
6.33185459e-06
8.25018313e-06
1.092075845e-05
1.468231583e-05
2.003925915e-05
2.774366358e-05
3.891556514e-05
5.520376444e-05
7.56452717e-05
0.0001033055815
0.0001374919771
0.0001769655273
0.0002165274636
0.0002496584153
0.0002663516576
0.0002497546731
0.0001638910094
7.937988399e-07
7.928381127e-07
7.922136687e-07
7.925599854e-07
7.946344893e-07
7.993378402e-07
8.077407108e-07
8.211198514e-07
8.410073423e-07
8.692584812e-07
9.081459142e-07
9.604906825e-07
1.029845238e-06
1.120749838e-06
1.239093069e-06
1.392621091e-06
1.591661146e-06
1.850156857e-06
2.187162742e-06
2.629023991e-06
3.212590466e-06
3.990006223e-06
5.035906525e-06
6.458300007e-06
8.415055025e-06
1.113885132e-05
1.497471831e-05
2.043625535e-05
2.828899396e-05
3.967176109e-05
5.625847902e-05
7.682175491e-05
0.0001049382175
0.0001393235194
0.0001789020065
0.0002181191217
0.0002507665744
0.0002663615573
0.0002482184309
0.0001586558555
8.09552673e-07
8.085715466e-07
8.079321634e-07
8.082814728e-07
8.103918389e-07
8.151817559e-07
8.237431966e-07
8.373784355e-07
8.576503227e-07
8.864515532e-07
9.261006802e-07
9.794757452e-07
1.050200869e-06
1.142907641e-06
1.26360267e-06
1.420186868e-06
1.62319341e-06
1.886844143e-06
2.230575104e-06
2.681261774e-06
3.276499422e-06
4.069488415e-06
5.136369366e-06
6.587302947e-06
8.583241682e-06
1.136129861e-05
1.527292658e-05
2.084109825e-05
2.884498533e-05
4.04424561e-05
5.733273669e-05
7.801899437e-05
0.0001065981714
0.0001411834043
0.0001808647641
0.0002197292259
0.0002518857745
0.0002663715446
0.0002466536864
0.0001533851034
8.256062328e-07
8.246043405e-07
8.239498466e-07
8.243024462e-07
8.264497604e-07
8.313284876e-07
8.400523281e-07
8.539495778e-07
8.746144416e-07
9.039777116e-07
9.44404706e-07
9.988315425e-07
1.070955392e-06
1.165500978e-06
1.288595346e-06
1.448297412e-06
1.655350733e-06
1.924261452e-06
2.274855371e-06
2.734549363e-06
3.341698983e-06
4.150580998e-06
5.238868857e-06
6.71891404e-06
8.754810118e-06
1.158819061e-05
1.557706142e-05
2.125394415e-05
2.941184238e-05
4.122791036e-05
5.842687132e-05
7.923733656e-05
0.000108285793
0.0001430718136
0.0001828539507
0.0002213579621
0.0002530161075
0.0002663816192
0.000244498684
0.0001480787991
8.419658651e-07
8.409428235e-07
8.402730218e-07
8.406291784e-07
8.428144967e-07
8.477842574e-07
8.56674327e-07
8.708395347e-07
8.919060426e-07
9.218434631e-07
9.630647637e-07
1.018565246e-06
1.092116547e-06
1.188538382e-06
1.314080693e-06
1.476963724e-06
1.688145926e-06
1.962423895e-06
2.32002154e-06
2.788908375e-06
3.408215373e-06
4.233316215e-06
5.343445411e-06
6.853185235e-06
8.929828966e-06
1.181961935e-05
1.588724547e-05
2.167495232e-05
2.998977266e-05
4.202838687e-05
5.954121828e-05
8.047711058e-05
0.000110001406
0.0001449888828
0.0001848696282
0.000223005508
0.0002541576314
0.0002663917819
0.0002423268875
0.0001427369887
8.586379973e-07
8.575934071e-07
8.569080771e-07
8.57268031e-07
8.594923859e-07
8.645553909e-07
8.736155284e-07
8.880546864e-07
9.095316057e-07
9.400554634e-07
9.820877871e-07
1.038684201e-06
1.113692268e-06
1.21202859e-06
1.340068526e-06
1.506197033e-06
1.721592051e-06
2.00134686e-06
2.366091928e-06
2.844360823e-06
3.476075331e-06
4.317727013e-06
5.450140416e-06
6.990169796e-06
9.108368475e-06
1.205567869e-05
1.620360336e-05
2.210428495e-05
3.057898653e-05
4.284414898e-05
6.067611131e-05
8.173861837e-05
0.0001117452843
0.0001469346717
0.0001864906891
0.0002246720451
0.000255310364
0.0002664020333
0.0002401383226
0.0001373426266
8.756291468e-07
8.745625933e-07
8.738614929e-07
8.742254615e-07
8.764898669e-07
8.816483212e-07
8.908823834e-07
9.056015401e-07
9.274977487e-07
9.586205176e-07
1.001480872e-06
1.059195931e-06
1.135690676e-06
1.235980541e-06
1.366568878e-06
1.53600881e-06
1.755702426e-06
2.04104602e-06
2.413085186e-06
2.900929128e-06
3.545306131e-06
4.403847064e-06
5.558996256e-06
7.129922308e-06
9.290500502e-06
1.229646428e-05
1.652626181e-05
2.254210716e-05
3.117969729e-05
4.367545617e-05
6.183187532e-05
8.30221172e-05
0.000113268446
0.000148909605
0.000188130522
0.0002263575115
0.000256301738
0.0002664123742
0.0002379329824
0.0001317394745
8.929459276e-07
8.918569813e-07
8.911398485e-07
8.91508029e-07
8.938134849e-07
8.99069594e-07
9.084814634e-07
9.234867315e-07
9.458112284e-07
9.775455816e-07
1.021251278e-06
1.080108134e-06
1.158120081e-06
1.26040338e-06
1.393592005e-06
1.566410761e-06
1.79049063e-06
2.081537341e-06
2.461020307e-06
2.958636138e-06
3.615935605e-06
4.491710789e-06
5.67005632e-06
7.272498672e-06
9.476298523e-06
1.254207367e-05
1.685534976e-05
2.29885871e-05
3.179212237e-05
4.452255537e-05
6.287557744e-05
8.432798627e-05
0.0001147425036
0.0001509139511
0.0001897919498
0.0002280619096
0.0002570434421
0.0002661598431
0.00023571077
0.0001260999456
9.105950572e-07
9.094832739e-07
9.087498283e-07
9.091224002e-07
9.114698963e-07
9.168258716e-07
9.264194631e-07
9.417170284e-07
9.644789432e-07
9.968377634e-07
1.041406427e-06
1.101428683e-06
1.180988985e-06
1.28530646e-06
1.421148387e-06
1.597414837e-06
1.825970513e-06
2.122837094e-06
2.509916643e-06
3.017505149e-06
3.687992158e-06
4.581353371e-06
5.783365022e-06
7.417956123e-06
9.665837641e-06
1.279260629e-05
1.719099849e-05
2.344389607e-05
3.241648277e-05
4.53857214e-05
6.383299735e-05
8.565660795e-05
0.0001162404726
0.0001529368342
0.0001914750938
0.0002297853382
0.0002577924083
0.0002657357812
0.0002334717175
0.0001204240236
9.285833627e-07
9.274482842e-07
9.266982276e-07
9.270753546e-07
9.294658738e-07
9.34923937e-07
9.447032042e-07
9.602993331e-07
9.835079351e-07
1.016504325e-06
1.061953908e-06
1.123165632e-06
1.204306085e-06
1.31069934e-06
1.449248726e-06
1.629033236e-06
1.862156195e-06
2.164961862e-06
2.559793918e-06
3.077559913e-06
3.761504791e-06
4.672810785e-06
5.898967817e-06
7.566353233e-06
9.859194609e-06
1.304816355e-05
1.753334165e-05
2.390820858e-05
3.305300387e-05
4.626525708e-05
6.480796419e-05
8.700833901e-05
0.0001177624973
0.0001545567644
0.000193180062
0.000231195554
0.0002585487546
0.0002653080839
0.0002307193493
0.0001147114897
9.469177866e-07
9.457589403e-07
9.449919576e-07
9.453737897e-07
9.478083108e-07
9.533706983e-07
9.633396389e-07
9.792406852e-07
1.002905392e-06
1.036552684e-06
1.082901476e-06
1.145327213e-06
1.228080266e-06
1.336591788e-06
1.477903958e-06
1.661278406e-06
1.899062078e-06
2.207928549e-06
2.610672241e-06
3.138824663e-06
3.836503116e-06
4.766119805e-06
6.016911212e-06
7.717749925e-06
1.005644784e-05
1.330884887e-05
1.788251542e-05
2.438170254e-05
3.370191668e-05
4.716146829e-05
6.580077421e-05
8.838352895e-05
0.0001193089512
0.0001562005092
0.0001949070017
0.000232503719
0.0002593125301
0.0002648767447
0.0002277607264
0.0001089624115
9.656053919e-07
9.644222913e-07
9.636380513e-07
9.640247259e-07
9.665042262e-07
9.721731923e-07
9.823358533e-07
9.98548265e-07
1.022678649e-06
1.056990415e-06
1.104257055e-06
1.167921841e-06
1.252320615e-06
1.362993787e-06
1.507125245e-06
1.694163052e-06
1.936702854e-06
2.251754393e-06
2.662572115e-06
3.201324121e-06
3.913017378e-06
4.861318031e-06
6.13724279e-06
7.872207491e-06
1.025767745e-05
1.357476772e-05
1.823865859e-05
2.486455941e-05
3.436345742e-05
4.807466586e-05
6.681173118e-05
8.978253701e-05
0.0001208801917
0.0001578682895
0.0001966561301
0.0002338265011
0.0002600837534
0.0002644417474
0.0002247801394
0.0001033665208
9.846533678e-07
9.83445512e-07
9.82643668e-07
9.830353112e-07
9.855607685e-07
9.913385893e-07
1.001699071e-06
1.018229396e-06
1.042835195e-06
1.077825255e-06
1.12602874e-06
1.190958113e-06
1.277036411e-06
1.389915533e-06
1.536923988e-06
1.72770014e-06
1.975093507e-06
2.296456973e-06
2.715514455e-06
3.265083521e-06
3.99107847e-06
4.958443904e-06
6.260011219e-06
8.029788608e-06
1.046296525e-05
1.384602771e-05
1.860191261e-05
2.535696427e-05
3.503786718e-05
4.900516387e-05
6.784114315e-05
9.120572757e-05
0.000122476567
0.0001595603434
0.0001984276482
0.0002351639854
0.0002608624331
0.0002640030803
0.0002217775401
9.77693374e-05
1.004069034e-06
1.002835908e-06
1.002016098e-06
1.002412826e-06
1.00498522e-06
1.010874196e-06
1.021436658e-06
1.03829155e-06
1.063382671e-06
1.099065101e-06
1.148224799e-06
1.21444481e-06
1.302237138e-06
1.417367441e-06
1.567311827e-06
1.7619029e-06
2.014249324e-06
2.342054219e-06
2.769520598e-06
3.330128616e-06
4.070717951e-06
5.057536723e-06
6.385266276e-06
8.190557359e-06
1.067239484e-05
1.412273859e-05
1.897242169e-05
2.585910586e-05
3.572539182e-05
4.995328048e-05
6.888932262e-05
9.265346899e-05
0.0001240984192
0.0001612769073
0.0002002217423
0.0002365162377
0.0002616485619
0.0002635607366
0.0002187528813
9.213718922e-05
1.023859846e-06
1.022600921e-06
1.021762767e-06
1.022164686e-06
1.024785002e-06
1.030787461e-06
1.041556123e-06
1.058742345e-06
1.084328874e-06
1.120718018e-06
1.170853675e-06
1.238390906e-06
1.32793248e-06
1.445360145e-06
1.598300644e-06
1.796784838e-06
2.054185902e-06
2.388564423e-06
2.824612315e-06
3.396485703e-06
4.151968064e-06
5.158636665e-06
6.513058865e-06
8.354579253e-06
1.088605155e-05
1.440501235e-05
1.935033289e-05
2.637117663e-05
3.642628188e-05
5.091933817e-05
6.995658633e-05
9.41261328e-05
0.0001257460844
0.0001630182121
0.0002020385843
0.0002378832971
0.0002624421056
0.0002629692815
0.0002157061114
8.647000601e-05
1.044033399e-06
1.042748131e-06
1.041891242e-06
1.04229845e-06
1.044967677e-06
1.051085976e-06
1.062065124e-06
1.079589557e-06
1.105681762e-06
1.142792237e-06
1.193923992e-06
1.26280556e-06
1.354132329e-06
1.473904507e-06
1.629902569e-06
1.832359734e-06
2.094919154e-06
2.436006251e-06
2.880811825e-06
3.464181628e-06
4.234861752e-06
5.261784803e-06
6.643441035e-06
8.52192125e-06
1.110402257e-05
1.469296323e-05
1.973579613e-05
2.689337277e-05
3.714079252e-05
5.190366391e-05
7.104325502e-05
9.562409274e-05
0.0001274198913
0.0001647844772
0.000203878333
0.0002392651637
0.0002630686848
0.0002620440935
0.0002121278525
8.076767006e-05
1.064597432e-06
1.063285264e-06
1.062409233e-06
1.06282182e-06
1.065540954e-06
1.071777482e-06
1.08297147e-06
1.100841116e-06
1.127449456e-06
1.16529616e-06
1.217444552e-06
1.28769813e-06
1.380846785e-06
1.503011614e-06
1.662129988e-06
1.868641653e-06
2.136465319e-06
2.484398747e-06
2.938141809e-06
3.533243811e-06
4.319432676e-06
5.367023127e-06
6.776466e-06
8.692651787e-06
1.132639692e-05
1.498670782e-05
2.01289643e-05
2.742589425e-05
3.786918343e-05
5.290658924e-05
7.214965311e-05
9.714772397e-05
0.0001291201612
0.0001665759012
0.0002057411181
0.0002406618944
0.0002634729335
0.0002611111453
0.0002083181336
7.554799611e-05
1.085559837e-06
1.084220195e-06
1.0833246e-06
1.083742647e-06
1.086512694e-06
1.092869873e-06
1.104283129e-06
1.122505112e-06
1.149640243e-06
1.188238364e-06
1.241424343e-06
1.313078167e-06
1.408086163e-06
1.532692788e-06
1.694995539e-06
1.905644952e-06
2.178840971e-06
2.53376135e-06
2.99662542e-06
3.603700253e-06
4.405715231e-06
5.474394558e-06
6.912188166e-06
8.866840804e-06
1.155326551e-05
1.528636507e-05
2.05299933e-05
2.796894479e-05
3.86117188e-05
5.392845017e-05
7.32761085e-05
9.869740258e-05
0.000130847208
0.0001683926478
0.0002076270186
0.0002420736572
0.0002638810036
0.0002601704413
0.0002044809654
7.044651331e-05
1.106928654e-06
1.105560951e-06
1.104645356e-06
1.105068939e-06
1.107890911e-06
1.114371199e-06
1.126008223e-06
1.144589799e-06
1.172262579e-06
1.211627605e-06
1.26587254e-06
1.338955426e-06
1.435860991e-06
1.562959588e-06
1.728512128e-06
1.943384282e-06
2.222063025e-06
2.584113901e-06
3.056286295e-06
3.675579556e-06
4.493744567e-06
5.583942974e-06
7.050663147e-06
9.044559771e-06
1.178472118e-05
1.559205637e-05
2.093904208e-05
2.852273193e-05
3.936866718e-05
5.496958713e-05
7.442295222e-05
0.0001002735054
0.000132601341
0.000170234827
0.0002095360269
0.0002435006009
0.0002642929211
0.0002592219843
0.0002006163927
6.53141475e-05
1.128712084e-06
1.127315717e-06
1.126379671e-06
1.126808857e-06
1.129683778e-06
1.13628967e-06
1.148155042e-06
1.167103599e-06
1.195325095e-06
1.235472817e-06
1.290798511e-06
1.365339863e-06
1.464182022e-06
1.593823813e-06
1.762692927e-06
1.9818746e-06
2.266148745e-06
2.635476655e-06
3.117148574e-06
3.748910937e-06
4.583556603e-06
5.695713224e-06
7.191947793e-06
9.225881722e-06
1.202085875e-05
1.590390555e-05
2.13562727e-05
2.908746695e-05
4.014030129e-05
5.603034459e-05
7.559051802e-05
0.0001018764105
0.0001343828758
0.0001721024726
0.0002112071373
0.0002449428469
0.0002647087124
0.0002582657826
0.0001967244571
6.015091914e-05
1.15091849e-06
1.149492841e-06
1.148535877e-06
1.148970727e-06
1.15189963e-06
1.15863366e-06
1.170732039e-06
1.190055104e-06
1.218836595e-06
1.25978312e-06
1.316211815e-06
1.392241644e-06
1.49306023e-06
1.625297509e-06
1.797551383e-06
2.021131172e-06
2.311115756e-06
2.687870289e-06
3.179236905e-06
3.823724241e-06
4.675188044e-06
5.809751155e-06
7.336100215e-06
9.410881279e-06
1.226177501e-05
1.622203899e-05
2.178185033e-05
2.96633648e-05
4.09268977e-05
5.711107059e-05
7.677914172e-05
0.0001035064955
0.0001361921229
0.0001739958108
0.0002127509009
0.0002460535401
0.0002651284079
0.0002573018578
0.0001928052162
5.495683835e-05
1.173556402e-06
1.172100834e-06
1.171122471e-06
1.171563039e-06
1.174546969e-06
1.181411712e-06
1.19374784e-06
1.213453081e-06
1.242806067e-06
1.284567821e-06
1.342122213e-06
1.419671146e-06
1.52250682e-06
1.657392976e-06
1.833101224e-06
2.061169583e-06
2.356982049e-06
2.741315918e-06
3.242576464e-06
3.900049961e-06
4.768676405e-06
5.926103629e-06
7.483179806e-06
9.599634689e-06
1.250756883e-05
1.654658562e-05
2.221594327e-05
3.025064398e-05
4.172873621e-05
5.821211574e-05
7.798916013e-05
0.0001051641362
0.0001380293929
0.0001759151566
0.0002143132743
0.0002471360396
0.0002655519893
0.0002561066168
0.0001882198757
5.061302895e-05
1.196634517e-06
1.195148382e-06
1.194148123e-06
1.194594456e-06
1.197634469e-06
1.204632541e-06
1.217211245e-06
1.237306475e-06
1.267242682e-06
1.309836421e-06
1.368539666e-06
1.447638962e-06
1.55253323e-06
1.690122766e-06
1.869356462e-06
2.102005744e-06
2.403765995e-06
2.795835101e-06
3.307192962e-06
3.977919252e-06
4.864060024e-06
6.044818543e-06
7.633247269e-06
9.792219853e-06
1.275834115e-05
1.687767697e-05
2.265872297e-05
3.084952632e-05
4.254609868e-05
5.933383134e-05
7.922090927e-05
0.0001068497029
0.0001398949991
0.0001778608077
0.0002158944687
0.0002482300144
0.0002659794449
0.000254597231
0.0001835679596
4.639285111e-05
1.220161713e-06
1.218644341e-06
1.217621674e-06
1.218073813e-06
1.221170977e-06
1.228305037e-06
1.241131232e-06
1.261624414e-06
1.292155798e-06
1.335598616e-06
1.395474342e-06
1.476155905e-06
1.583151137e-06
1.723499695e-06
1.906331405e-06
2.143655898e-06
2.451486349e-06
2.851449853e-06
3.373112665e-06
4.057363944e-06
4.961378081e-06
6.165944856e-06
7.786364647e-06
9.988716358e-06
1.301419502e-05
1.72154472e-05
2.311036401e-05
3.146023672e-05
4.337926671e-05
6.0476566e-05
8.047472158e-05
0.0001085635541