/*--------------------------------*- C++ -*----------------------------------*\
| =========                 |                                                 |
| \\      /  F ield         | OpenFOAM: The Open Source CFD Toolbox           |
|  \\    /   O peration     | Version:  v2006                                 |
|   \\  /    A nd           | Website:  www.openfoam.com                      |
|    \\/     M anipulation  |                                                 |
\*---------------------------------------------------------------------------*/
FoamFile
{
    version     2.0;
    format      ascii;
    class       volScalarField;
    location    "0.15";
    object      CH3OH;
}
// * * * * * * * * * * * * * * * * * * * * * * * * * * * * * * * * * * * * * //

dimensions      [0 0 0 0 0 0 0];


internalField   nonuniform List<scalar> 
168000
(
1.316678661e-07
1.318008666e-07
1.320042338e-07
1.323281648e-07
1.331056939e-07
1.345361176e-07
1.362585785e-07
1.38445518e-07
1.427021864e-07
1.480520454e-07
1.542823912e-07
1.639865372e-07
1.764733442e-07
1.907283573e-07
2.126421986e-07
2.388929874e-07
2.709627568e-07
3.18288543e-07
3.714549444e-07
4.523405598e-07
5.479323497e-07
6.858919694e-07
8.596632455e-07
1.110701678e-06
1.431946098e-06
1.919953083e-06
2.522851406e-06
3.532257084e-06
4.848826634e-06
6.828750272e-06
9.864518079e-06
1.402302808e-05
2.040260215e-05
3.016220035e-05
4.38454689e-05
6.276421682e-05
8.951742963e-05
0.0001262942569
0.0001730735007
0.0002293564377
1.346005723e-07
1.346553251e-07
1.348140449e-07
1.351635765e-07
1.358988298e-07
1.371664361e-07
1.389391322e-07
1.414548552e-07
1.454645691e-07
1.507887592e-07
1.5757391e-07
1.671738242e-07
1.796327472e-07
1.950216451e-07
2.165277257e-07
2.43314281e-07
2.770705719e-07
3.236201237e-07
3.80179038e-07
4.601520257e-07
5.598743772e-07
6.983427429e-07
8.780083812e-07
1.130497871e-06
1.463541301e-06
1.950999764e-06
2.585379562e-06
3.591989687e-06
4.94826975e-06
6.971114788e-06
1.003016248e-05
1.430453652e-05
2.080722534e-05
3.066085024e-05
4.453072364e-05
6.379032188e-05
9.089683713e-05
0.0001279344575
0.0001750279991
0.0002315772308
1.375102864e-07
1.375381937e-07
1.376712627e-07
1.380134227e-07
1.387151576e-07
1.39918643e-07
1.417274132e-07
1.443833479e-07
1.483312629e-07
1.536995587e-07
1.607874483e-07
1.70443819e-07
1.830433954e-07
1.991098211e-07
2.206425636e-07
2.479788623e-07
2.829189454e-07
3.295836551e-07
3.884500247e-07
4.686842309e-07
5.715515679e-07
7.11538222e-07
8.961142904e-07
1.151556808e-06
1.494380228e-06
1.98540394e-06
2.645279756e-06
3.65613395e-06
5.048764352e-06
7.113221057e-06
1.020500546e-05
1.458887252e-05
2.121228368e-05
3.1172229e-05
4.523581986e-05
6.482632417e-05
9.227892593e-05
0.0001295956139
0.0001770025003
0.0002338143151
1.404320117e-07
1.404492817e-07
1.405663064e-07
1.40895065e-07
1.415744745e-07
1.427533784e-07
1.445883319e-07
1.473171329e-07
1.51276379e-07
1.567178391e-07
1.640071591e-07
1.737922578e-07
1.866008553e-07
2.031470874e-07
2.249157662e-07
2.528116081e-07
2.887021146e-07
3.35920505e-07
3.965577017e-07
4.776809213e-07
5.831909156e-07
7.252698187e-07
9.142392399e-07
1.173547992e-06
1.525033986e-06
2.022236296e-06
2.703750595e-06
3.723786801e-06
5.15052447e-06
7.255967439e-06
1.038778084e-05
1.487641508e-05
2.161910353e-05
3.169599399e-05
4.595928758e-05
6.587251949e-05
9.366602975e-05
0.0001312764032
0.000178991953
0.0002360683859
1.433817655e-07
1.433934127e-07
1.434995929e-07
1.438165908e-07
1.444825273e-07
1.45653927e-07
1.475106924e-07
1.502891386e-07
1.542898294e-07
1.5981727e-07
1.672685975e-07
1.772160148e-07
1.902620881e-07
2.072048604e-07
2.293135558e-07
2.577777573e-07
2.945138651e-07
3.425047112e-07
4.04653076e-07
4.87009177e-07
5.949162653e-07
7.394254522e-07
9.325341141e-07
1.196284191e-06
1.555848469e-06
2.060906298e-06
2.761606269e-06
3.794328318e-06
5.253726267e-06
7.400017112e-06
1.057753552e-05
1.516749594e-05
2.20287784e-05
3.223184393e-05
4.669989915e-05
6.69269355e-05
9.505999272e-05
0.0001329612524
0.0001809696679
0.0002383316423
1.463676359e-07
1.463755281e-07
1.464740326e-07
1.467824047e-07
1.474411755e-07
1.486134619e-07
1.504911675e-07
1.533122284e-07
1.573677901e-07
1.629877551e-07
1.705869934e-07
1.807134443e-07
1.940101051e-07
2.113167575e-07
2.338200078e-07
2.628616028e-07
3.003998404e-07
3.492759368e-07
4.128158893e-07
4.966009854e-07
6.067962353e-07
7.539463768e-07
9.510886319e-07
1.219661388e-06
1.587032892e-06
2.101041774e-06
2.819402633e-06
3.867335628e-06
5.358517791e-06
7.545860436e-06
1.077355555e-05
1.546240995e-05
2.244220825e-05
3.277951161e-05
4.74566887e-05
6.798936443e-05
9.646240593e-05
0.0001346620204
0.0001829666822
0.0002405784338
1.493947417e-07
1.493998303e-07
1.494927949e-07
1.497954355e-07
1.504514766e-07
1.516295198e-07
1.535290803e-07
1.563916938e-07
1.605090239e-07
1.662257201e-07
1.739691295e-07
1.842840423e-07
1.978388429e-07
2.154990665e-07
2.38427891e-07
2.680564558e-07
3.063827376e-07
3.56206235e-07
4.210892361e-07
5.064225391e-07
6.188699265e-07
7.688033204e-07
9.699576575e-07
1.24362367e-06
1.618714149e-06
2.142411138e-06
2.877521924e-06
3.942523317e-06
5.465025539e-06
7.693861526e-06
1.097531003e-05
1.576142269e-05
2.286012972e-05
3.333874757e-05
4.822894881e-05
6.906306046e-05
9.787448924e-05
0.0001363806395
0.0001849828329
0.0002428430309
1.524669267e-07
1.52469824e-07
1.525587746e-07
1.528579986e-07
1.535144994e-07
1.547016077e-07
1.566247119e-07
1.595299995e-07
1.637134192e-07
1.69530222e-07
1.774183184e-07
1.879280488e-07
2.017467457e-07
2.197600997e-07
2.431342751e-07
2.733599306e-07
3.124743954e-07
3.632836053e-07
4.294973335e-07
5.164580959e-07
6.31160701e-07
7.839832928e-07
9.891761647e-07
1.268142809e-06
1.650970019e-06
2.184873196e-06
2.93622971e-06
4.019702072e-06
5.573359074e-06
7.844292947e-06
1.118240813e-05
1.60647765e-05
2.328313888e-05
3.390667022e-05
4.901612869e-05
7.014830967e-05
9.929645055e-05
0.0001381169022
0.0001870179725
0.0002451255696
1.555873404e-07
1.555884821e-07
1.556745413e-07
1.559721306e-07
1.566314652e-07
1.578301541e-07
1.597787463e-07
1.627285952e-07
1.669813929e-07
1.729014046e-07
1.809364776e-07
1.916461507e-07
2.057340787e-07
2.241044889e-07
2.479383989e-07
2.787717361e-07
3.186815643e-07
3.705038761e-07
4.38054657e-07
5.26701482e-07
6.436835595e-07
7.994822942e-07
1.008767751e-06
1.29320647e-06
1.683849336e-06
2.228344812e-06
2.995713161e-06
4.098749896e-06
5.683614519e-06
7.997361178e-06
1.139456585e-05
1.637269182e-05
2.371176912e-05
3.448521356e-05
4.98177311e-05
7.124537914e-05
0.0001007233556
0.0001398707001
0.0001890719512
0.0002474261424
1.587586828e-07
1.587583897e-07
1.588423979e-07
1.591397221e-07
1.598037222e-07
1.610160385e-07
1.629920794e-07
1.65988605e-07
1.703136394e-07
1.763398864e-07
1.845249916e-07
1.954392932e-07
2.098018244e-07
2.285351697e-07
2.528406249e-07
2.842926383e-07
3.250086477e-07
3.778667093e-07
4.46770648e-07
5.371516114e-07
6.564490865e-07
8.153012872e-07
1.028749496e-06
1.318811439e-06
1.717384162e-06
2.272780113e-06
3.056106784e-06
4.179592029e-06
5.795877282e-06
8.153225374e-06
1.161157999e-05
1.668536892e-05
2.414648268e-05
3.507476049e-05
5.062960832e-05
7.235471081e-05
0.0001021625531
0.0001416417981
0.0001911446279
0.0002497448077
1.619833384e-07
1.6198185e-07
1.620644464e-07
1.623625717e-07
1.630326977e-07
1.642603737e-07
1.662657414e-07
1.693110856e-07
1.737110213e-07
1.798465181e-07
1.881850641e-07
1.99308573e-07
2.139512419e-07
2.330543051e-07
2.578419222e-07
2.899239676e-07
3.314589967e-07
3.853736416e-07
4.556521465e-07
5.478101206e-07
6.694655544e-07
8.314439735e-07
1.049134736e-06
1.344959768e-06
1.751597081e-06
2.318157128e-06
3.117509757e-06
4.262186911e-06
5.910224252e-06
8.312011404e-06
1.183330686e-05
1.700134484e-05
2.458767914e-05
3.567523639e-05
5.145417612e-05
7.347663435e-05
0.0001036146085
0.0001434299927
0.0001932358362
0.0002520800477
1.652634641e-07
1.652609615e-07
1.653426394e-07
1.656424122e-07
1.663198624e-07
1.675644007e-07
1.696008595e-07
1.726971177e-07
1.771745177e-07
1.834222846e-07
1.919178614e-07
2.032551813e-07
2.181837e-07
2.376637183e-07
2.629436065e-07
2.956673807e-07
3.380355156e-07
3.930271297e-07
4.647046517e-07
5.586801175e-07
6.827400435e-07
8.479155712e-07
1.069934673e-06
1.371656598e-06
1.786505528e-06
2.364469221e-06
3.179997603e-06
4.346516363e-06
6.026725545e-06
8.473821538e-06
1.205966101e-05
1.732172544e-05
2.503569325e-05
3.628660818e-05
5.229229427e-05
7.461142808e-05
0.0001050799937
0.0001452350813
0.0001953187981
0.0002543928071
1.686010516e-07
1.68597673e-07
1.6867882e-07
1.689809261e-07
1.696667078e-07
1.709294359e-07
1.729986351e-07
1.761478338e-07
1.807051969e-07
1.87068263e-07
1.957245682e-07
2.072803752e-07
2.225006196e-07
2.423650982e-07
2.681472088e-07
3.015247425e-07
3.447409425e-07
4.008300878e-07
4.739329781e-07
5.697655191e-07
6.962790356e-07
8.647221461e-07
1.0911593e-06
1.39890894e-06
1.822124324e-06
2.411719608e-06
3.243630043e-06
4.432578696e-06
6.145445968e-06
8.638742272e-06
1.229060091e-05
1.764738837e-05
2.549081221e-05
3.690886056e-05
5.314381412e-05
7.575934684e-05
0.0001065590694
0.0001470569781
0.000197406427
0.0002567235245
1.719979717e-07
1.71993824e-07
1.720747495e-07
1.723797561e-07
1.730747349e-07
1.743568433e-07
1.764603276e-07
1.796644232e-07
1.843042014e-07
1.907856035e-07
1.996064084e-07
2.113854653e-07
2.269034591e-07
2.471600975e-07
2.734544064e-07
3.074980648e-07
3.51577978e-07
4.087856679e-07
4.833415997e-07
5.810706997e-07
7.100887295e-07
8.818702487e-07
1.11281795e-06
1.426724998e-06
1.858467133e-06
2.459917863e-06
3.308456298e-06
4.520383895e-06
6.266446252e-06
8.806849649e-06
1.252611418e-05
1.79784985e-05
2.595328988e-05
3.754199421e-05
5.400863256e-05
7.692062571e-05
0.0001080520906
0.0001488773729
0.0001995124493
0.0002590720877
1.754560078e-07
1.754511742e-07
1.755321295e-07
1.75840515e-07
1.765454487e-07
1.778480197e-07
1.799872441e-07
1.832481283e-07
1.879727366e-07
1.945755185e-07
2.035646528e-07
2.155718104e-07
2.313937129e-07
2.520503805e-07
2.788669867e-07
3.135894736e-07
3.58549342e-07
4.168971554e-07
4.929348312e-07
5.926003051e-07
7.241752074e-07
8.993667225e-07
1.134919627e-06
1.455113799e-06
1.895547283e-06
2.509077697e-06
3.374518657e-06
4.609950236e-06
6.389784046e-06
8.978212944e-06
1.276621157e-05
1.831521373e-05
2.642335307e-05
3.818602363e-05
5.488667938e-05
7.809546666e-05
0.0001095594231
0.0001507093668
0.0002016367638
0.0002614383844
1.789768795e-07
1.789714256e-07
1.79052618e-07
1.793647935e-07
1.800803568e-07
1.814043868e-07
1.835807308e-07
1.8690024e-07
1.917120636e-07
1.984392768e-07
2.076006204e-07
2.198408159e-07
2.359729154e-07
2.570376457e-07
2.843868271e-07
3.198011894e-07
3.656577991e-07
4.251679222e-07
5.027169253e-07
6.043591538e-07
7.385445242e-07
9.172186048e-07
1.157473203e-06
1.484084993e-06
1.933378215e-06
2.559215547e-06
3.441854875e-06
4.701301925e-06
6.515514749e-06
9.152897333e-06
1.301092199e-05
1.865768568e-05
2.690120659e-05
3.88409748e-05
5.577790715e-05
7.928404254e-05
0.0001110814198
0.0001525583596
0.0002037792329
0.0002638222648
1.825622616e-07
1.825562393e-07
1.826378423e-07
1.829541669e-07
1.836809697e-07
1.850273868e-07
1.872421681e-07
1.906220921e-07
1.955234934e-07
2.023781984e-07
2.117156785e-07
2.241939335e-07
2.406426447e-07
2.621236381e-07
2.90015884e-07
3.261355158e-07
3.729061687e-07
4.336014066e-07
5.126921254e-07
6.163521862e-07
7.532027566e-07
9.354330799e-07
1.180487548e-06
1.513648742e-06
1.971973711e-06
2.610349696e-06
3.510499804e-06
4.794467448e-06
6.643692183e-06
9.330965783e-06
1.326028859e-05
1.900606049e-05
2.738703753e-05
3.950688321e-05
5.668228099e-05
8.048648878e-05
0.0001126183758
0.0001544244032
0.0002059397121
0.0002662170788
1.862137981e-07
1.862072486e-07
1.862894094e-07
1.866102015e-07
1.873488031e-07
1.887184808e-07
1.90972967e-07
1.944150583e-07
1.994083825e-07
2.063936517e-07
2.159112419e-07
2.286326621e-07
2.454045253e-07
2.67310154e-07
2.957561852e-07
3.32594832e-07
3.802973296e-07
4.422011051e-07
5.228646955e-07
6.28584438e-07
7.681560313e-07
9.540174599e-07
1.203971611e-06
1.543815655e-06
2.011348007e-06
2.662499714e-06
3.580486481e-06
4.889478431e-06
6.774369155e-06
9.512480363e-06
1.351436577e-05
1.936047954e-05
2.788101866e-05
4.018379288e-05
5.759976734e-05
8.170288481e-05
0.0001141705317
0.0001563075457
0.0002081180523
0.000268593883
1.899331127e-07
1.899260689e-07
1.90008914e-07
1.903344601e-07
1.910853794e-07
1.924791478e-07
1.947745665e-07
1.982805485e-07
2.033681299e-07
2.104870507e-07
2.201887719e-07
2.331585475e-07
2.502602302e-07
2.725990441e-07
3.016098261e-07
3.391815878e-07
3.878342212e-07
4.509705709e-07
5.332389377e-07
6.410610287e-07
7.834105424e-07
9.729791804e-07
1.22793447e-06
1.574596762e-06
2.051515833e-06
2.715686116e-06
3.651846875e-06
4.986368843e-06
6.907597907e-06
9.697503153e-06
1.377321684e-05
1.972108013e-05
2.838331143e-05
4.087175723e-05
5.853032219e-05
8.293282247e-05
0.0001157358608
0.0001582078178
0.0002102869411
0.000270987982
1.937218181e-07
1.937143061e-07
1.937979453e-07
1.941285065e-07
1.948922305e-07
1.963108852e-07
1.986484328e-07
2.022200068e-07
2.074041748e-07
2.146598531e-07
2.245497756e-07
2.377731827e-07
2.552114823e-07
2.779922144e-07
3.075789665e-07
3.458983002e-07
3.955198442e-07
4.599134137e-07
5.438192029e-07
6.537871561e-07
7.989725639e-07
9.923258042e-07
1.252385375e-06
1.606003487e-06
2.092492426e-06
2.769930153e-06
3.724612386e-06
5.085174465e-06
7.043430487e-06
9.886096842e-06
1.403691213e-05
2.0087996e-05
2.889406851e-05
4.157084194e-05
5.947389052e-05
8.417180619e-05
0.0001173093047
0.0001601253521
0.0002124590618
0.0002733992405
1.975815226e-07
1.975735628e-07
1.976580927e-07
1.979939096e-07
1.987709e-07
2.002152095e-07
2.025960583e-07
2.062349107e-07
2.115179946e-07
2.18913559e-07
2.289958051e-07
2.424782085e-07
2.60260055e-07
2.834916262e-07
3.136658287e-07
3.527475516e-07
4.033572608e-07
4.690333022e-07
5.546098985e-07
6.667680969e-07
8.148484595e-07
1.012065028e-06
1.277333768e-06
1.638047637e-06
2.134293521e-06
2.825253685e-06
3.798814195e-06
5.185932513e-06
7.181919039e-06
1.007832513e-05
1.430552764e-05
2.046135779e-05
2.941343516e-05
4.228111447e-05
6.043057615e-05
8.542511654e-05
0.0001188986017
0.0001620601711
0.0002146489505
0.0002758274518
2.01513836e-07
2.015054444e-07
2.015909506e-07
2.019322474e-07
2.027229454e-07
2.041936573e-07
2.066189616e-07
2.103267692e-07
2.157111039e-07
2.232497097e-07
2.33528457e-07
2.472753127e-07
2.654077726e-07
2.890992967e-07
3.198726959e-07
3.597319876e-07
4.113495954e-07
4.783339652e-07
5.656154939e-07
6.800092075e-07
8.310446907e-07
1.032204691e-06
1.302789308e-06
1.670741393e-06
2.176935336e-06
2.881679108e-06
3.874483497e-06
5.288681404e-06
7.323116039e-06
1.027425294e-05
1.457914378e-05
2.084129341e-05
2.994155066e-05
4.300265243e-05
6.140048452e-05
8.669294685e-05
0.0001205037668
0.0001639994863
0.0002168566319
0.0002782725367
2.055203742e-07
2.055115629e-07
2.055981221e-07
2.059451096e-07
2.067499405e-07
2.082477861e-07
2.107186879e-07
2.144971236e-07
2.199850538e-07
2.276698872e-07
2.38149372e-07
2.521662306e-07
2.706565102e-07
2.948172982e-07
3.262019115e-07
3.668543168e-07
4.195000349e-07
4.878191945e-07
5.768405255e-07
6.935159284e-07
8.475678246e-07
1.052752785e-06
1.328761876e-06
1.704097306e-06
2.220434563e-06
2.939229311e-06
3.951651671e-06
5.393460586e-06
7.467074465e-06
1.047394656e-05
1.485784454e-05
2.122792816e-05
3.047854922e-05
4.373553935e-05
6.238372109e-05
8.79754843e-05
0.0001221248823
0.0001659369261
0.0002190820702
0.000280713091
2.096027635e-07
2.095935414e-07
2.096812227e-07
2.100341009e-07
2.108534774e-07
2.12379176e-07
2.148968092e-07
2.187475463e-07
2.243414314e-07
2.321757132e-07
2.428602341e-07
2.571527444e-07
2.760081938e-07
3.006477584e-07
3.326558782e-07
3.741173097e-07
4.278118295e-07
4.97492847e-07
5.882896005e-07
7.072937872e-07
8.644245412e-07
1.073717461e-06
1.355261595e-06
1.738128287e-06
2.264808349e-06
2.99792766e-06
4.030350396e-06
5.500310441e-06
7.613847934e-06
1.067747363e-05
1.51417166e-05
2.162138478e-05
3.10245601e-05
4.447986105e-05
6.338038842e-05
8.927289756e-05
0.0001237621458
0.0001678916712
0.0002213251542
0.000283150419
2.137626437e-07
2.13753017e-07
2.138418833e-07
2.142008435e-07
2.150351685e-07
2.165894309e-07
2.191549254e-07
2.23079642e-07
2.287818596e-07
2.367688494e-07
2.476627711e-07
2.622366836e-07
2.814648002e-07
3.065928596e-07
3.392370575e-07
3.81523799e-07
4.362882934e-07
5.073588464e-07
5.999674009e-07
7.213484036e-07
8.8162164e-07
1.095107037e-06
1.382298833e-06
1.772847608e-06
2.310074291e-06
3.057797989e-06
4.110611734e-06
5.609272215e-06
7.763490777e-06
1.088490308e-05
1.543084861e-05
2.202178302e-05
3.157970708e-05
4.523570092e-05
6.439058073e-05
9.058534685e-05
0.0001254157215
0.0001698636878
0.0002235846224
0.0002856043204
2.180016714e-07
2.179916437e-07
2.180817528e-07
2.18446979e-07
2.192966479e-07
2.208801795e-07
2.234946646e-07
2.274950469e-07
2.333079972e-07
2.41450997e-07
2.525587537e-07
2.674199244e-07
2.87028357e-07
3.126548389e-07
3.459479699e-07
3.890766794e-07
4.449328059e-07
5.174211864e-07
6.118786876e-07
7.356854941e-07
8.991660466e-07
1.11693001e-06
1.409884208e-06
1.808268895e-06
2.356250428e-06
3.1188646e-06
4.192468198e-06
5.72038798e-06
7.916058092e-06
1.109630494e-05
1.572533044e-05
2.242923877e-05
3.21441071e-05
4.600313287e-05
6.541437552e-05
9.191298362e-05
0.0001270857459
0.0001718529285
0.0002258202654
0.0002880747739
2.223215224e-07
2.223110954e-07
2.224025003e-07
2.22774171e-07
2.236395738e-07
2.252530767e-07
2.279176841e-07
2.319954302e-07
2.379215392e-07
2.462238969e-07
2.575499961e-07
2.727043899e-07
2.927009425e-07
3.188359884e-07
3.527911943e-07
3.96778908e-07
4.537488127e-07
5.276839325e-07
6.240283034e-07
7.50310876e-07
9.170648191e-07
1.139195058e-06
1.438028598e-06
1.844406132e-06
2.403355231e-06
3.181152269e-06
4.275952797e-06
5.833700602e-06
8.071605739e-06
1.131174999e-05
1.602525236e-05
2.284386207e-05
3.271786848e-05
4.678221198e-05
6.645180463e-05
9.325595282e-05
0.0001287723042
0.0001738595445
0.0002280733313
0.000290561758
2.26723894e-07
2.267130675e-07
2.268058177e-07
2.271841066e-07
2.280656295e-07
2.297098051e-07
2.324256715e-07
2.365824941e-07
2.426242167e-07
2.510893295e-07
2.626383555e-07
2.780920502e-07
2.984846855e-07
3.251386544e-07
3.597693684e-07
4.046335049e-07
4.627398269e-07
5.381512245e-07
6.364211771e-07
7.652304728e-07
9.353251538e-07
1.161911048e-06
1.466743143e-06
1.881273655e-06
2.45140761e-06
3.244686252e-06
4.361099072e-06
5.949253736e-06
8.230190335e-06
1.153130912e-05
1.633070418e-05
2.326575392e-05
3.330108278e-05
4.757296249e-05
6.749786618e-05
9.461440234e-05
0.0001304754229
0.0001758836741
0.000230343793
0.0002930615492
2.312105073e-07
2.311992795e-07
2.312934211e-07
2.316784984e-07
2.325765251e-07
2.342520759e-07
2.370203454e-07
2.412579744e-07
2.474177978e-07
2.560491154e-07
2.678257327e-07
2.835849221e-07
3.043817659e-07
3.315652384e-07
3.66885189e-07
4.126435536e-07
4.719094309e-07
5.488272789e-07
6.490623267e-07
7.804503186e-07
9.539543914e-07
1.185087043e-06
1.49603925e-06
1.918886156e-06
2.500426904e-06
3.309492299e-06
4.447941133e-06
6.067091821e-06
8.391869292e-06
1.175505216e-05
1.664177336e-05
2.369500036e-05
3.389125519e-05
4.837555708e-05
6.855776942e-05
9.598828169e-05
0.000132188252
0.0001779254434
0.0002326316578
0.000295540885
2.357831091e-07
2.357714766e-07
2.35867053e-07
2.362590859e-07
2.37173999e-07
2.388816302e-07
2.417034562e-07
2.460236415e-07
2.523040876e-07
2.611051156e-07
2.731140721e-07
2.891850701e-07
3.103944143e-07
3.38118197e-07
3.741414125e-07
4.208122024e-07
4.812612772e-07
5.597163912e-07
6.619568635e-07
7.959765624e-07
9.729600219e-07
1.208732307e-06
1.525928598e-06
1.95725868e-06
2.55043289e-06
3.375596661e-06
4.536513687e-06
6.187260121e-06
8.55670113e-06
1.198304557e-05
1.695722732e-05
2.413172819e-05
3.449029735e-05
4.919010474e-05
6.963163042e-05
9.737759283e-05
0.0001339073993
0.000179962274
0.0002349370263
0.0002980363172
2.404434732e-07
2.404314314e-07
2.405284836e-07
2.409276373e-07
2.418598192e-07
2.4360024e-07
2.464767873e-07
2.508813009e-07
2.572849292e-07
2.662592316e-07
2.785053618e-07
2.948946056e-07
3.165249129e-07
3.448000418e-07
3.815408553e-07
4.291426645e-07
4.907990905e-07
5.70822939e-07
6.751099949e-07
8.11815473e-07
9.923496906e-07
1.232856311e-06
1.556423142e-06
1.996406634e-06
2.601445783e-06
3.443026104e-06
4.626852061e-06
6.309804738e-06
8.72474533e-06
1.221536333e-05
1.727742042e-05
2.457606532e-05
3.509905689e-05
5.001654508e-05
7.071952772e-05
9.87824164e-05
0.0001356433788
0.0001820021347
0.0002372598651
0.0003005478529
2.451934027e-07
2.451809456e-07
2.452795124e-07
2.456859507e-07
2.466357847e-07
2.484097098e-07
2.513421561e-07
2.558327941e-07
2.623622038e-07
2.715134061e-07
2.840016345e-07
3.00715688e-07
3.227755951e-07
3.516133408e-07
3.890863942e-07
4.376382197e-07
5.005266694e-07
5.821513836e-07
6.885270284e-07
8.279734433e-07
1.012131203e-06
1.257468735e-06
1.587535115e-06
2.036345781e-06
2.653486242e-06
3.511807923e-06
4.718992233e-06
6.434772641e-06
8.896062556e-06
1.245208693e-05
1.760348183e-05
2.502813104e-05
3.571759243e-05
5.085028943e-05
7.182153096e-05
0.0001001975187
0.000137396464
0.0001840594832
0.0002395683753
0.0003030755891
2.50034731e-07
2.500218515e-07
2.5012197e-07
2.505358554e-07
2.515037263e-07
2.533118771e-07
2.563014146e-07
2.608799991e-07
2.675378318e-07
2.768696235e-07
2.896049674e-07
3.06650525e-07
3.291488466e-07
3.585607179e-07
3.967809679e-07
4.463022155e-07
5.10447888e-07
5.937062735e-07
7.022133749e-07
8.444569943e-07
1.032312528e-06
1.28257948e-06
1.619277036e-06
2.077092252e-06
2.706575372e-06
3.581969952e-06
4.812970857e-06
6.562211716e-06
9.070714986e-06
1.269329871e-05
1.793551061e-05
2.548804224e-05
3.63460558e-05
5.169629069e-05
7.293773547e-05
0.00010162656
0.0001391667687
0.0001861343509
0.0002418822753
0.0003056194958
2.549693232e-07
2.549560133e-07
2.550577189e-07
2.554792134e-07
2.564655086e-07
2.583086138e-07
2.613564506e-07
2.660248315e-07
2.728137732e-07
2.823299103e-07
2.953174831e-07
3.127013727e-07
3.356471055e-07
3.656448544e-07
4.04627577e-07
4.551380681e-07
5.205666976e-07
6.054922464e-07
7.16174552e-07
8.612727799e-07
1.052901807e-06
1.308198664e-06
1.651661711e-06
2.118662542e-06
2.760734735e-06
3.653540582e-06
4.908825285e-06
6.692170803e-06
9.248766194e-06
1.293908232e-05
1.827360836e-05
2.595591908e-05
3.698459221e-05
5.255466253e-05
7.406828153e-05
0.0001030715688
0.0001409543358
0.0001882268158
0.0002442133532
0.0003081453927
2.599990781e-07
2.599853286e-07
2.600886552e-07
2.605179207e-07
2.615230302e-07
2.634018274e-07
2.665091886e-07
2.712692454e-07
2.781920285e-07
2.878963363e-07
3.011413497e-07
3.188705364e-07
3.422728631e-07
3.728684892e-07
4.126292858e-07
4.641492639e-07
5.308871292e-07
6.175140319e-07
7.304161878e-07
8.784275906e-07
1.073907354e-06
1.334336634e-06
1.68470224e-06
2.161073524e-06
2.815986355e-06
3.726548773e-06
5.006593591e-06
6.824699717e-06
9.430281072e-06
1.318952231e-05
1.86178781e-05
2.643188341e-05
3.763334318e-05
5.342552744e-05
7.521329918e-05
0.0001045326384
0.0001427591853
0.0001903369337
0.0002465616467
0.0003106810402
2.651259285e-07
2.651117293e-07
2.6521671e-07
2.656539083e-07
2.666782258e-07
2.685934617e-07
2.717615908e-07
2.76615234e-07
2.836746391e-07
2.935710143e-07
3.070787821e-07
3.251603713e-07
3.490286645e-07
3.802344197e-07
4.207892224e-07
4.733393609e-07
5.414132948e-07
6.297764544e-07
7.44944024e-07
8.95928358e-07
1.095337664e-06
1.361003968e-06
1.718412022e-06
2.204342444e-06
2.872352729e-06
3.801024067e-06
5.106314592e-06
6.95984926e-06
9.615325795e-06
1.344470429e-05
1.896842435e-05
2.691605843e-05
3.829244777e-05
5.430900717e-05
7.637290877e-05
0.0001060098405
0.0001445813004
0.0001924647379
0.0002489271929
0.0003132325276
2.703518435e-07
2.703371836e-07
2.704438498e-07
2.708891433e-07
2.719330665e-07
2.73885498e-07
2.77115658e-07
2.820648304e-07
2.892636886e-07
2.993561017e-07
3.13132042e-07
3.315732831e-07
3.559171092e-07
3.877455027e-07
4.291105809e-07
4.827119905e-07
5.521493899e-07
6.422844358e-07
7.597639194e-07
9.137821588e-07
1.117201414e-06
1.388211479e-06
1.752804757e-06
2.248486935e-06
2.929856829e-06
3.876996606e-06
5.208027865e-06
7.097671229e-06
9.803967796e-06
1.370471507e-05
1.932535304e-05
2.740856839e-05
3.896204248e-05
5.520522054e-05
7.754722135e-05
0.0001075032177
0.0001464206019
0.0001945976361
0.0002513100318
0.0003157998866
2.756788289e-07
2.756636963e-07
2.757720789e-07
2.762256305e-07
2.772895614e-07
2.792799563e-07
2.825734304e-07
2.876201088e-07
2.949613033e-07
3.052538008e-07
3.19303439e-07
3.381117285e-07
3.629408522e-07
3.954046555e-07
4.375966217e-07
4.922708584e-07
5.630996952e-07
6.550429977e-07
7.748818535e-07
9.319962189e-07
1.13950747e-06
1.415970223e-06
1.787894455e-06
2.293525021e-06
2.988522121e-06
3.954497142e-06
5.311773766e-06
7.238218429e-06
9.99627575e-06
1.396964265e-05
1.968877143e-05
2.790953828e-05
3.9642261e-05
5.611428044e-05
7.873633967e-05
0.0001090127702
0.0001482666642
0.0001967197661
0.0002536795124
0.0003183831705
2.811089287e-07
2.810933107e-07
2.812034394e-07
2.816654131e-07
2.827497585e-07
2.84778896e-07
2.881369889e-07
2.932831853e-07
3.007696528e-07
3.112663598e-07
3.255953313e-07
3.447782166e-07
3.701026047e-07
4.032148567e-07
4.462506734e-07
5.020197471e-07
5.742685792e-07
6.680572649e-07
7.903039295e-07
9.505779173e-07
1.162264894e-06
1.444291502e-06
1.823695439e-06
2.339475123e-06
3.048372564e-06
4.033557052e-06
5.417593445e-06
7.38154468e-06
1.019231956e-05
1.423957627e-05
2.005878802e-05
2.841909357e-05
4.033323386e-05
5.703628913e-05
7.994034748e-05
0.0001105385603
0.0001501164533
0.0001988596962
0.0002560537857
0.0003209511576
2.866442265e-07
2.866281094e-07
2.867400132e-07
2.872105738e-07
2.88315746e-07
2.903844174e-07
2.938084559e-07
2.990562187e-07
3.066909516e-07
3.173960735e-07
3.320101265e-07
3.515753091e-07
3.77405135e-07
4.111791477e-07
4.550761337e-07
5.119625169e-07
5.856605002e-07
6.813324675e-07
8.060363783e-07
9.695347904e-07
1.185482942e-06
1.473186869e-06
1.860222354e-06
2.386356064e-06
3.109432631e-06
4.114208355e-06
5.525528864e-06
7.52770482e-06
1.039217032e-05
1.451460636e-05
2.043551248e-05
2.893736005e-05
4.103508859e-05
5.79713308e-05
8.115929588e-05
0.0001120807713
0.0001519837284
0.0002010174161
0.0002584451658
0.0003235257544
2.922868462e-07
2.922702156e-07
2.923839227e-07
2.928632363e-07
2.939896528e-07
2.960986621e-07
2.995899963e-07
3.049414114e-07
3.127274593e-07
3.236452842e-07
3.385502827e-07
3.585056215e-07
3.848512696e-07
4.193006333e-07
4.640764712e-07
5.221031082e-07
5.972800084e-07
6.948739444e-07
8.220855613e-07
9.888745361e-07
1.209171075e-06
1.502668132e-06
1.897490168e-06
2.434187083e-06
3.171727309e-06
4.19648372e-06
5.635622805e-06
7.676754705e-06
1.059590032e-05
1.479482455e-05
2.081905551e-05
2.946446374e-05
4.174795094e-05
5.891946211e-05
8.239317992e-05
0.0001136395658
0.0001538686076
0.0002031929199
0.0002608536249
0.0003261159372
2.980389536e-07
2.980217941e-07
2.98137332e-07
2.986255661e-07
2.997736504e-07
3.019238146e-07
3.054838184e-07
3.109410107e-07
3.188814819e-07
3.300163826e-07
3.452183089e-07
3.655718242e-07
3.924438943e-07
4.275824833e-07
4.732552266e-07
5.32445543e-07
6.091317482e-07
7.086871454e-07
8.384579744e-07
1.008605018e-06
1.233338961e-06
1.532747366e-06
1.935514184e-06
2.482987837e-06
3.235282117e-06
4.280416482e-06
5.747918886e-06
7.828751201e-06
1.080358296e-05
1.508032356e-05
2.120952873e-05
3.000053107e-05
4.247194916e-05
5.988070047e-05
8.363853296e-05
0.0001152150765
0.0001557712123
0.0002053861881
0.0002632791371
0.0003287216955
3.039027572e-07
3.038850526e-07
3.04002448e-07
3.044997716e-07
3.056699533e-07
3.078621031e-07
3.114921751e-07
3.170573095e-07
3.251553725e-07
3.365118091e-07
3.520167665e-07
3.727766434e-07
4.001859553e-07
4.360279339e-07
4.826160146e-07
5.42993927e-07
6.212204609e-07
7.227776347e-07
8.551602513e-07
1.028734268e-06
1.257996479e-06
1.563436909e-06
1.974310043e-06
2.532778413e-06
3.300123113e-06
4.366040656e-06
5.862461564e-06
7.983752165e-06
1.101529268e-05
1.537119706e-05
2.160704447e-05
3.054568837e-05
4.320720942e-05
6.085516227e-05
8.489690216e-05
0.0001167985076
0.0001576916818
0.0002075971714
0.0002657216663
0.0003313430242
3.098805093e-07
3.098622427e-07
3.099815217e-07
3.104881054e-07
3.116808204e-07
3.139158007e-07
3.176173649e-07
3.232926473e-07
3.315515328e-07
3.431340542e-07
3.589482701e-07
3.80122862e-07
4.080804603e-07
4.446402887e-07
4.92162525e-07
5.537524514e-07
6.335509867e-07
7.371510934e-07
8.721991671e-07
1.049270495e-06
1.283153728e-06
1.594749375e-06
2.013893732e-06
2.583579332e-06
3.366276905e-06
4.453390944e-06
5.979296139e-06
8.141816409e-06
1.123110479e-05
1.566753941e-05
2.201171535e-05
3.110006127e-05
4.395385795e-05
6.184300963e-05
8.617044082e-05
0.0001183978529
0.0001596299319
0.0002098078204
0.0002681406617
0.000333944837
3.159745077e-07
3.159556611e-07
3.160768493e-07
3.165928652e-07
3.178085561e-07
3.200872262e-07
3.238617328e-07
3.296494114e-07
3.380724134e-07
3.498856599e-07
3.660154887e-07
3.87613321e-07
4.161304798e-07
4.534229203e-07
5.018985248e-07
5.647253949e-07
6.461282674e-07
7.518133229e-07
8.895816415e-07
1.070222082e-06
1.308821025e-06
1.626697657e-06
2.054281589e-06
2.635411565e-06
3.433770663e-06
4.542502747e-06
6.098468759e-06
8.303003638e-06
1.145109516e-05
1.596944518e-05
2.242365375e-05
3.166377363e-05
4.471202209e-05
6.284439584e-05
8.745932094e-05
0.0001200141524
0.0001615859089
0.0002120116986
0.0002705743865
0.0003365561599
3.221870961e-07
3.221676508e-07
3.22290773e-07
3.228163952e-07
3.240555112e-07
3.263787455e-07
3.302276717e-07
3.361300377e-07
3.447205154e-07
3.567692207e-07
3.732211463e-07
3.952509206e-07
4.243391485e-07
4.62379272e-07
5.118278597e-07
5.75917126e-07
6.589573487e-07
7.667702474e-07
9.07314743e-07
1.091597598e-06
1.335008917e-06
1.659294933e-06
2.095490316e-06
2.688296532e-06
3.502632126e-06
4.633412179e-06
6.220026413e-06
8.467374383e-06
1.167533957e-05
1.627700818e-05
2.284297086e-05
3.223694539e-05