/*--------------------------------*- C++ -*----------------------------------*\
| =========                 |                                                 |
| \\      /  F ield         | OpenFOAM: The Open Source CFD Toolbox           |
|  \\    /   O peration     | Version:  v2006                                 |
|   \\  /    A nd           | Website:  www.openfoam.com                      |
|    \\/     M anipulation  |                                                 |
\*---------------------------------------------------------------------------*/
FoamFile
{
    version     2.0;
    format      ascii;
    class       volScalarField;
    location    "0.15";
    object      CH3O2;
}
// * * * * * * * * * * * * * * * * * * * * * * * * * * * * * * * * * * * * * //

dimensions      [0 0 0 0 0 0 0];


internalField   nonuniform List<scalar> 
168000
(
1.472901354e-06
1.471134211e-06
1.470031756e-06
1.470142782e-06
1.47514756e-06
1.487244847e-06
1.502429781e-06
1.522583113e-06
1.565326817e-06
1.619920477e-06
1.683989824e-06
1.785791148e-06
1.917770807e-06
2.068816031e-06
2.302768759e-06
2.583583148e-06
2.927177757e-06
3.435498041e-06
4.006757575e-06
4.876906304e-06
5.905549582e-06
7.390730839e-06
9.261763654e-06
1.196517628e-05
1.542487023e-05
2.068087443e-05
2.717441382e-05
3.804654629e-05
5.222715459e-05
7.355279766e-05
0.0001062509598
0.0001510421804
0.0002240692754
0.0003408082343
0.0005135501883
0.0007673615352
0.001153041748
0.001721301572
0.00246465635
0.002939164156
1.50570861e-06
1.502993935e-06
1.501316192e-06
1.501632075e-06
1.506092572e-06
1.516310386e-06
1.531966231e-06
1.555657776e-06
1.595616373e-06
1.649843542e-06
1.719892379e-06
1.82049198e-06
1.952086345e-06
2.11536596e-06
2.344840912e-06
2.631381692e-06
2.993156187e-06
3.493037405e-06
4.100852275e-06
4.961123445e-06
6.034252194e-06
7.524893427e-06
9.459405416e-06
1.217843544e-05
1.57652122e-05
2.101529732e-05
2.784792599e-05
3.86899373e-05
5.329826844e-05
7.508621462e-05
0.000108035122
0.000154074314
0.0002289091569
0.0003467728116
0.0005223438549
0.0007814158453
0.001173631352
0.001747347165
0.002494286658
0.002934517597
1.538258092e-06
1.535170949e-06
1.533130989e-06
1.533286536e-06
1.537297164e-06
1.546724734e-06
1.56269464e-06
1.587847934e-06
1.627048825e-06
1.681673541e-06
1.754948151e-06
1.856089976e-06
1.989133079e-06
2.159693563e-06
2.389393329e-06
2.681813669e-06
3.05632933e-06
3.55739771e-06
4.19006053e-06
5.053110045e-06
6.160101894e-06
7.667079196e-06
9.654470906e-06
1.240529692e-05
1.609740817e-05
2.138588541e-05
2.84931316e-05
3.938084754e-05
5.438070782e-05
7.661685029e-05
0.0001099183624
0.0001571369032
0.0002337542435
0.0003528896449
0.0005313921414
0.0007956057154
0.001194260979
0.001773725526
0.002524220211
0.002929836953
1.570941819e-06
1.56766331e-06
1.565368721e-06
1.565296992e-06
1.568980145e-06
1.578053289e-06
1.594227495e-06
1.620099294e-06
1.659341638e-06
1.714681658e-06
1.79007385e-06
1.892540634e-06
2.027776195e-06
2.203470237e-06
2.435658927e-06
2.734065601e-06
3.118796497e-06
3.625787341e-06
4.27750781e-06
5.150103807e-06
6.285544586e-06
7.815041099e-06
9.849742161e-06
1.264220072e-05
1.642760985e-05
2.178262867e-05
2.912294122e-05
4.010954975e-05
5.547677815e-05
7.815438092e-05
0.000111887043
0.0001602340304
0.0002386204004
0.0003591546355
0.0005406761838
0.000809935197
0.001214965462
0.001800415648
0.002553822124
0.002925120767
1.603939139e-06
1.600524886e-06
1.598033457e-06
1.597752236e-06
1.601204832e-06
1.610111258e-06
1.626440585e-06
1.652773253e-06
1.692384903e-06
1.748579508e-06
1.825656707e-06
1.929811047e-06
2.067547862e-06
2.247470038e-06
2.483272688e-06
2.787760931e-06
3.181571456e-06
3.696846714e-06
4.364822693e-06
5.25067195e-06
6.411914705e-06
7.96757175e-06
1.004684451e-05
1.288713007e-05
1.675954308e-05
2.219916622e-05
2.97461248e-05
4.086936657e-05
5.658837698e-05
7.970594958e-05
0.0001139308981
0.0001633692688
0.0002435207077
0.0003655641797
0.0005501802281
0.0008246929566
0.001235772327
0.001827604585
0.002579622266
0.002917314432
1.637340565e-06
1.633810772e-06
1.631157237e-06
1.630700635e-06
1.633991532e-06
1.642822946e-06
1.659296608e-06
1.686010867e-06
1.726136982e-06
1.783256365e-06
1.861862557e-06
1.967883901e-06
2.108263338e-06
2.292057338e-06
2.532062635e-06
2.842729449e-06
3.245147664e-06
3.769924592e-06
4.452865161e-06
5.354081364e-06
6.539951598e-06
8.124038331e-06
1.024674441e-05
1.313896454e-05
1.709546143e-05
2.263148924e-05
3.036866963e-05
4.165574312e-05
5.771709901e-05
8.127683795e-05
0.0001160422377
0.0001665457943
0.00024846593
0.0003721150814
0.0005598918797
0.0008399606044
0.001256705325
0.001855118846
0.002605674178
0.002896871889
1.671203349e-06
1.667567799e-06
1.664775125e-06
1.664174398e-06
1.667351713e-06
1.676160844e-06
1.692787643e-06
1.719870042e-06
1.760584369e-06
1.818672916e-06
1.898765236e-06
2.006754011e-06
2.149856644e-06
2.337408704e-06
2.581950745e-06
2.898898645e-06
3.309770548e-06
3.844719351e-06
4.542099972e-06
5.459967647e-06
6.670076569e-06
8.28412553e-06
1.045003287e-05
1.339710187e-05
1.743673177e-05
2.307710324e-05
3.099469292e-05
4.246560512e-05
5.886430677e-05
8.287096795e-05
0.0001182153433
0.0001697664674
0.0002534648789
0.0003788043568
0.0005698020604
0.0008553901663
0.001277782662
0.001882921894
0.002631975731
0.002876267342
1.705570471e-06
1.701835022e-06
1.698919212e-06
1.698199043e-06
1.701297011e-06
1.710119246e-06
1.726916448e-06
1.754377654e-06
1.795725788e-06
1.854818688e-06
1.936400783e-06
2.046424132e-06
2.192310816e-06
2.383614263e-06
2.632905464e-06
2.956242645e-06
3.37556815e-06
3.921101483e-06
4.6327883e-06
5.568161127e-06
6.802541342e-06
8.447693433e-06
1.065708663e-05
1.3661238e-05
1.778419192e-05
2.353448734e-05
3.162705521e-05
4.329691346e-05
6.003118041e-05
8.449127535e-05
0.0001204460053
0.0001730338983
0.000258524684
0.0003860085735
0.0005799037022
0.0008709857533
0.001299087268
0.001911010371
0.002658525003
0.002855499552
1.740477152e-06
1.736645579e-06
1.73361802e-06
1.73279706e-06
1.735840797e-06
1.744702673e-06
1.76169031e-06
1.789549454e-06
1.831565711e-06
1.89169512e-06
1.974790049e-06
2.086901796e-06
2.235628705e-06
2.430724258e-06
2.68491866e-06
3.014758281e-06
3.442613489e-06
3.999025981e-06
4.725086267e-06
5.678595271e-06
6.937507552e-06
8.614698978e-06
1.086815992e-05
1.393124009e-05
1.813836791e-05
2.400274608e-05
3.226777256e-05
4.414835405e-05
6.121875529e-05
8.613998419e-05
0.000122731165
0.0001763504615
0.0002636517255
0.0003934328451
0.0005901904239
0.0008867512037
0.001321169287
0.001939382526
0.002685320037
0.002834567678
1.775953585e-06
1.772028293e-06
1.768897138e-06
1.767989359e-06
1.770997879e-06
1.779920678e-06
1.797118905e-06
1.825397636e-06
1.868111642e-06
1.929308869e-06
2.013948073e-06
2.128197302e-06
2.279820964e-06
2.478770543e-06
2.737994337e-06
3.074453845e-06
3.510954203e-06
4.078489217e-06
4.819095708e-06
5.791258388e-06
7.075089252e-06
8.785152554e-06
1.108343671e-05
1.420707353e-05
1.849960512e-05
2.448138533e-05
3.29182938e-05
4.501912166e-05
6.242795139e-05
8.78188087e-05
0.0001250686334
0.0001797183142
0.0002688515326
0.0004009983225
0.000601156735
0.000902692868
0.001343441539
0.001968034554
0.002712358997
0.002813471189
1.812026437e-06
1.808008853e-06
1.804779929e-06
1.803795855e-06
1.806783981e-06
1.815785429e-06
1.833213441e-06
1.861933683e-06
1.905372929e-06
1.967669143e-06
2.05388793e-06
2.170322577e-06
2.324901262e-06
2.527776596e-06
2.792143042e-06
3.13534374e-06
3.580626539e-06
4.159507797e-06
4.914890405e-06
5.906168133e-06
7.215375589e-06
8.959094062e-06
1.130306071e-05
1.448876046e-05
1.886814682e-05
2.497016847e-05
3.357968725e-05
4.590876864e-05
6.365959686e-05
8.952910465e-05
0.0001274568631
0.000183385279
0.0002741288847
0.0004087040484
0.0006124506382
0.000918815484
0.001365912772
0.001996963162
0.002739639707
0.002791669019
1.848719834e-06
1.844610667e-06
1.841288114e-06
1.840235752e-06
1.843215326e-06
1.852310542e-06
1.869986225e-06
1.899169359e-06
1.943360208e-06
2.006786628e-06
2.094622288e-06
2.213290566e-06
2.370884457e-06
2.577762207e-06
2.847379062e-06
3.197445906e-06
3.651661907e-06
4.242108252e-06
5.01252968e-06
6.023358025e-06
7.358442867e-06
9.136579739e-06
1.152715259e-05
1.477635626e-05
1.924418085e-05
2.546902399e-05
3.425276635e-05
4.681709916e-05
6.491444696e-05
9.127197362e-05
0.0001298949334
0.0001872174975
0.000279487786
0.0004165495979
0.0006239301374
0.0009351230514
0.001388590289
0.002026165074
0.002761810283
0.002755266504
1.886056051e-06
1.881855478e-06
1.878442198e-06
1.877327706e-06
1.880308388e-06
1.88951049e-06
1.907450408e-06
1.937117022e-06
1.982085106e-06
2.046673028e-06
2.136164017e-06
2.257114927e-06
2.417785978e-06
2.628745705e-06
2.903719004e-06
3.26078053e-06
3.724089916e-06
4.326322058e-06
5.112065478e-06
6.1428703e-06
7.504360949e-06
9.317674953e-06
1.175582002e-05
1.506993647e-05
1.962786686e-05
2.597798657e-05
3.493817443e-05
4.774409507e-05
6.619319976e-05
9.304834724e-05
0.0001323823973
0.0001911129005
0.0002849316717
0.0004245347749
0.0006355931965
0.0009516192321
0.001411479673
0.002055638901
0.002781423138
0.002718581333
1.924056016e-06
1.919763813e-06
1.916261782e-06
1.915089946e-06
1.918079762e-06
1.927400292e-06
1.945619802e-06
1.975789669e-06
2.021560077e-06
2.087340858e-06
2.178526425e-06
2.301809897e-06
2.465621656e-06
2.680745022e-06
2.961181052e-06
3.325369392e-06
3.797939762e-06
4.412183247e-06
5.213546065e-06
6.264752131e-06
7.653196644e-06
9.502450295e-06
1.198916355e-05
1.536958947e-05
2.001935204e-05
2.649715934e-05
3.563644166e-05
4.868986391e-05
6.749650937e-05
9.485904462e-05
0.0001349191213
0.0001950734601
0.0002904635786
0.0004326595881
0.0006474384031
0.0009683074045
0.001434584871
0.002084923257
0.002801208797
0.002681615273
1.962739676e-06
1.95835531e-06
1.954765808e-06
1.95354037e-06
1.956546095e-06
1.965995346e-06
1.984508759e-06
2.015200899e-06
2.061798273e-06
2.12880332e-06
2.22172333e-06
2.347390242e-06
2.514407716e-06
2.733778211e-06
3.019784578e-06
3.391235498e-06
3.873240845e-06
4.499727297e-06
5.317017993e-06
6.389053613e-06
7.805015509e-06
9.690979513e-06
1.22272802e-05
1.567541255e-05
2.041877999e-05
2.702668999e-05
3.634802355e-05
4.965460255e-05
6.882499678e-05
9.670481189e-05
0.0001375052213
0.0001991010651
0.0002960862194
0.0004409242236
0.0006594647959
0.0009851904709
0.001457911541
0.002114345627
0.002821166307
0.002644370089
2.002126268e-06
1.997648965e-06
1.993972734e-06
1.992696639e-06
1.995724074e-06
2.005311332e-06
2.02413208e-06
2.05536485e-06
2.102813472e-06
2.171074243e-06
2.265769084e-06
2.393871233e-06
2.564160816e-06
2.787863696e-06
3.079549922e-06
3.458402875e-06
3.950023047e-06
4.588990616e-06
5.422527147e-06
6.515826707e-06
7.95988281e-06
9.883338446e-06
1.247026557e-05
1.598750965e-05
2.082629548e-05
2.75667556e-05
3.70733268e-05
5.063857172e-05
7.017925869e-05
9.858635111e-05
0.0001401410086
0.000203197529
0.0003018020442
0.0004493290146
0.0006716717247
0.001002270915
0.001481465149
0.002144041004
0.002841294374
0.002606848143
2.042234528e-06
2.037663318e-06
2.03390068e-06
2.032576247e-06
2.035630427e-06
2.045364171e-06
2.064504949e-06
2.096296154e-06
2.144620006e-06
2.214168023e-06
2.31067857e-06
2.441268652e-06
2.614898086e-06
2.843020399e-06
3.140498275e-06
3.526896447e-06
4.028316839e-06
4.680010327e-06
5.530119308e-06
6.645124686e-06
8.117864049e-06
1.007960451e-05
1.271821523e-05
1.630599025e-05
2.1242047e-05
2.811755309e-05
3.78127268e-05
5.164207827e-05
7.155987484e-05
0.0001005043405
0.0001428269481
0.0002073645998
0.0003076132907
0.000457874417
0.0006840587123
0.001019550684
0.001505250258
0.002174010224
0.002861591644
0.002567140168
2.083082844e-06
2.078416599e-06
2.074567541e-06
2.073196593e-06
2.07628194e-06
2.086169994e-06
2.105642898e-06
2.138009879e-06
2.187232717e-06
2.258099591e-06
2.356467195e-06
2.48959879e-06
2.666637164e-06
2.8992678e-06
3.202651601e-06
3.596741952e-06
4.108153331e-06
4.772824183e-06
5.639840484e-06
6.777001855e-06
8.279025267e-06
1.027985652e-05
1.297122559e-05
1.663096867e-05
2.166618791e-05
2.867929329e-05
3.856657944e-05
5.266546284e-05
7.296741403e-05
0.0001024594486
0.0001455636257
0.0002116039688
0.0003135220256
0.0004665609952
0.0006966252988
0.001037030919
0.001529270592
0.002204254054
0.002882056714
0.002516801418
2.124689384e-06
2.119926841e-06
2.115991076e-06
2.114575037e-06
2.11769548e-06
2.127745142e-06
2.147561775e-06
2.180521507e-06
2.230666919e-06
2.302884386e-06
2.403150876e-06
2.538878457e-06
2.719396214e-06
2.956625964e-06
3.266032592e-06
3.66796589e-06
4.189564285e-06
4.867470544e-06
5.751737088e-06
6.911513417e-06
8.443433232e-06
1.04841746e-05
1.322939449e-05
1.696256373e-05
2.209887689e-05
2.925219719e-05
3.933522905e-05
5.370909135e-05
7.440243898e-05
0.0001044523442
0.0001483517232
0.0002159172782
0.00031953018
0.0004753894351
0.0007093708814
0.001054757121
0.001553639257
0.002234772992
0.002895177194
0.00246609638
2.167072186e-06
2.16221197e-06
2.158188987e-06
2.156728952e-06
2.159888022e-06
2.170106159e-06
2.190277732e-06
2.223846899e-06
2.274938373e-06
2.348538329e-06
2.450746037e-06
2.589124979e-06
2.773193943e-06
3.015115557e-06
3.330664636e-06
3.740595486e-06
4.272582124e-06
4.963988384e-06
5.865856063e-06
7.048715425e-06
8.611155578e-06
1.069264024e-05
1.349282157e-05
1.730089851e-05
2.254027809e-05
2.98364937e-05
4.01190139e-05
5.47733492e-05
7.586551031e-05
0.0001064837024
0.0001511919984
0.0002203061277
0.00032563958
0.0004843605794
0.0007222947067
0.001073250701
0.001578624784
0.002265569166
0.002904399072
0.002415027918
2.210249243e-06
2.205289877e-06
2.201178976e-06
2.199675774e-06
2.202876672e-06
2.213269807e-06
2.233807216e-06
2.268002288e-06
2.320063265e-06
2.395077811e-06
2.499269595e-06
2.6403562e-06
2.828049606e-06
3.074757844e-06
3.396571796e-06
3.814658668e-06
4.357239939e-06
5.062417309e-06
5.982244961e-06
7.18866478e-06
8.782260901e-06
1.090533641e-05
1.37616086e-05
1.764610022e-05
2.299056101e-05
3.043241832e-05
4.091826983e-05
5.585863728e-05
7.735718969e-05
0.0001085542093
0.0001540852696
0.0002247720801
0.0003318519633
0.0004934752938
0.0007353981965
0.001091958126
0.00160386205
0.002296642937
0.002913696385
0.002363600409
2.254238564e-06
2.249178484e-06
2.244978802e-06
2.243433036e-06
2.246678696e-06
2.25725307e-06
2.278166966e-06
2.313004262e-06
2.366058194e-06
2.442519677e-06
2.548738958e-06
2.692590485e-06
2.883983013e-06
3.135574696e-06
3.463778794e-06
3.890184052e-06
4.443571484e-06
5.162797576e-06
6.100952003e-06
7.331419246e-06
8.956818855e-06
1.112234758e-05
1.403585962e-05
1.79983001e-05
2.344990038e-05
3.104021226e-05
4.173333289e-05
5.696536938e-05
7.887804235e-05
0.0001106645645
0.0001570324032
0.0002293166652
0.0003381689959
0.0005027345744
0.000748682795
0.001110882282
0.001629351294
0.002327093689
0.002923069238
0.002311815532
2.299058228e-06
2.293895788e-06
2.289606323e-06
2.288018405e-06
2.29131154e-06
2.302073169e-06
2.323374017e-06
2.358869761e-06
2.412940164e-06
2.49088122e-06
2.599172014e-06
2.745846712e-06
2.941014528e-06
3.197588582e-06
3.532311003e-06
3.967200929e-06
4.531611195e-06
5.265170121e-06
6.222026132e-06
7.47703749e-06
9.134900233e-06
1.134375987e-05
1.431568113e-05
1.835763336e-05
2.3918476e-05
3.166012213e-05
4.256454108e-05
5.809397044e-05
8.042863896e-05
0.0001128154816
0.0001600343037
0.000233941382
0.000344592283
0.0005121394929
0.0007621499468
0.001130025963
0.001655093822
0.002356465384
0.00293251748
0.002255720325
2.344726427e-06
2.339459909e-06
2.335079536e-06
2.333449715e-06
2.336792852e-06
2.347747575e-06
2.369445705e-06
2.405616078e-06
2.460726575e-06
2.540180175e-06
2.650587134e-06
2.800144278e-06
2.999165068e-06
3.26082257e-06
3.602194438e-06
4.045739262e-06
4.621394185e-06
5.36957658e-06
6.345517054e-06
7.62557912e-06
9.316577044e-06
1.156966113e-05
1.46011822e-05
1.872423911e-05
2.43964726e-05
3.229239961e-05
4.341223563e-05
5.924487542e-05
8.200955701e-05
0.0001150076895
0.0001630919048
0.0002386476985
0.000351123371
0.0005216911507
0.0007758010564
0.001149391687
0.001681092771
0.002386099428
0.002942040636
0.002195554768
2.391261507e-06
2.385889123e-06
2.381416607e-06
2.379744995e-06
2.383140509e-06
2.394294024e-06
2.416399671e-06
2.453260856e-06
2.509435225e-06
2.590434713e-06
2.703003163e-06
2.855503091e-06
3.058456106e-06
3.325300325e-06
3.673455752e-06
4.125829686e-06
4.712956262e-06
5.476059314e-06
6.471475285e-06
7.77710474e-06
9.501922586e-06
1.180014103e-05
1.489247453e-05
1.909826033e-05
2.488407976e-05
3.293730145e-05
4.427676192e-05
6.041852862e-05
8.362138176e-05
0.0001172419305
0.0001662061615
0.0002434370473
0.0003577637401
0.000531390618
0.0007896374147
0.001168981844
0.001707350753
0.002415995307
0.002951240858
0.002134980093
2.438682e-06
2.433201898e-06
2.428635907e-06
2.426922493e-06
2.430372632e-06
2.441730527e-06
2.464253874e-06
2.501822096e-06
2.559084309e-06
2.641663443e-06
2.756439421e-06
2.911943575e-06
3.118909665e-06
3.391046104e-06
3.746122234e-06
4.207503506e-06
4.806333937e-06
5.584661437e-06
6.599952188e-06
7.931675993e-06
9.691011517e-06
1.203529111e-05
1.518967255e-05
1.947984384e-05
2.538149179e-05
3.359508944e-05
4.515847017e-05
6.161538319e-05
8.526470667e-05
0.0001195189589
0.0001693780416
0.0002483108143
0.0003645147897
0.0005412388433
0.0008036600829
0.001188798696
0.00173386993
0.002446152305
0.002946563236
0.002073996833
2.487006655e-06
2.48141692e-06
2.476756031e-06
2.475000698e-06
2.478507604e-06
2.490075388e-06
2.513026595e-06
2.551318156e-06
2.609692418e-06
2.693885408e-06
2.810915701e-06
2.969486663e-06
3.18054832e-06
3.458084761e-06
3.820221809e-06
4.290792701e-06
4.901564436e-06
5.695426837e-06
6.731000012e-06
8.089355613e-06
9.883919924e-06
1.22752049e-05
1.549289346e-05
1.986914029e-05
2.588890771e-05
3.426603046e-05
4.605771593e-05
6.283590091e-05
8.694013344e-05
0.0001218395371
0.0001726085175
0.0002532703161
0.0003713778149
0.0005512365333
0.0008178694972
0.001208844406
0.001760651656
0.002476572714
0.002941849161
0.002012605513
2.53625446e-06
2.53055312e-06
2.525795826e-06
2.523998363e-06
2.527564091e-06
2.539347218e-06
2.562736447e-06
2.601767761e-06
2.661278544e-06
2.747120089e-06
2.866452272e-06
3.028153803e-06
3.243395201e-06
3.526441741e-06
3.895783037e-06
4.375729932e-06
4.998685716e-06
5.808400206e-06
6.864671934e-06
8.25020748e-06
1.008072538e-05
1.251997798e-05
1.580225731e-05
2.026630413e-05
2.640653119e-05
3.495039659e-05
4.697486053e-05
6.408055197e-05
8.864827191e-05
0.0001242044288
0.0001758985566
0.0002583167606
0.0003783539112
0.0005613839993
0.0008328974372
0.001229121182
0.001787696355
0.002507258628
0.002937098688
0.001950619335
2.586444672e-06
2.580629695e-06
2.575774413e-06
2.573934525e-06
2.577561058e-06
2.589564941e-06
2.613402391e-06
2.653190011e-06
2.713862086e-06
2.801387406e-06
2.923069878e-06
3.087966954e-06
3.30747399e-06
3.596143087e-06
3.97283512e-06
4.462348549e-06
5.097736479e-06
5.923627062e-06
7.001022094e-06
8.414296662e-06
1.028150703e-05
1.276970801e-05
1.611788701e-05
2.067149364e-05
2.69345706e-05
3.56484652e-05
4.791027139e-05
6.534981509e-05
9.038974051e-05
0.0001266143861
0.0001792491009
0.000263451177
0.000385810693
0.0005716834571
0.0008481287889
0.001249628269
0.0018150992
0.002538211962
0.002932311804
0.001886325397
2.63759683e-06
2.63166613e-06
2.626711204e-06
2.62482852e-06
2.628517781e-06
2.640747819e-06
2.665043738e-06
2.705604382e-06
2.767462849e-06
2.856707723e-06
2.98078974e-06
3.148948593e-06
3.372808923e-06
3.667215441e-06
4.051407905e-06
4.550682596e-06
5.198756189e-06
6.041153782e-06
7.140105636e-06
8.581689471e-06
1.04863456e-05
1.302449483e-05
1.64399084e-05
2.108487095e-05
2.747323899e-05
3.63605191e-05
4.886432235e-05
6.664417782e-05
9.216516956e-05
0.0001290701249
0.0001828575288
0.0002686750822
0.000393498022
0.0005821363053
0.0008635607208
0.001270365698
0.001842910787
0.002566480343
0.002927488296
0.001821614049
2.689730782e-06
2.683682216e-06
2.678625921e-06
2.676700003e-06
2.680453867e-06
2.692915453e-06
2.717680163e-06
2.75903074e-06
2.822101058e-06
2.913101848e-06
3.03963356e-06
3.211121713e-06
3.439424798e-06
3.739686044e-06
4.131531891e-06
4.640766828e-06
5.301785088e-06
6.16102762e-06
7.281978743e-06
8.752453509e-06
1.069532352e-05
1.328444052e-05
1.676845029e-05
2.150660202e-05
2.802275413e-05
3.70868466e-05
4.983739397e-05
6.796413675e-05
9.397519978e-05
0.000131572442
0.0001866875077
0.000273990006
0.0004013100517
0.0005927596716
0.0008791943616
0.001291334672
0.001870994679
0.002593091198
0.002922628236
0.001756485107
2.742866698e-06
2.73669807e-06
2.731538614e-06
2.729568961e-06
2.733389265e-06
2.746087804e-06
2.771331719e-06
2.813489349e-06
2.877797357e-06
2.970591045e-06
3.099623526e-06
3.27450983e-06
3.50734697e-06
3.813582747e-06
4.213238232e-06
4.732636717e-06
5.406864217e-06
6.283296742e-06
7.426698678e-06
8.926657717e-06
1.090852492e-05
1.354964941e-05
1.710364451e-05
2.19368567e-05
2.858333858e-05
3.782774173e-05
5.08298738e-05
6.931019782e-05
9.58204846e-05
0.0001341222151
0.0001905876805
0.0002793973754
0.000409247534
0.0006041792642
0.0008950307121
0.001313031591
0.001899355297
0.002619930187
0.002906062619
0.001690936058
2.797025089e-06
2.790734149e-06
2.785469677e-06
2.783455731e-06
2.787344281e-06
2.800285198e-06
2.826018839e-06
2.869000875e-06
2.934572822e-06
3.029197032e-06
3.160782315e-06
3.339136986e-06
3.576601366e-06
3.888934013e-06
4.29655875e-06
4.826328465e-06
5.514035433e-06
6.408010251e-06
7.57432382e-06
9.104372417e-06
1.112603574e-05
1.382022818e-05
1.744562595e-05
2.237580876e-05
2.915521971e-05
3.858350434e-05
5.184215667e-05
7.068287683e-05
9.770169377e-05
0.0001367203313
0.0001945592322
0.0002848985887
0.0004173124175
0.0006157667369
0.0009110711421
0.001335146665
0.001927994485
0.002646997723
0.002885009505
0.001624967678
2.852226825e-06
2.845811268e-06
2.840439862e-06
2.838381013e-06
2.842339592e-06
2.855528346e-06
2.881762354e-06
2.925586399e-06
2.992448963e-06
3.088941991e-06
3.2231331e-06
3.405027752e-06
3.647214481e-06
3.965768923e-06
4.381525944e-06
4.921879024e-06
5.623341429e-06
6.535218215e-06
7.724913699e-06
9.285669365e-06
1.13479437e-05
1.40962859e-05
1.779453261e-05
2.282363596e-05
2.97386298e-05
3.935444027e-05
5.287464493e-05
7.208269989e-05
9.961951208e-05
0.0001393676915
0.0001986033781
0.000290495083
0.0004255065658
0.0006275236465
0.0009273176676
0.001357508846
0.001956912935
0.00267429482
0.002863800098
0.001561351661
2.908493145e-06
2.901950613e-06
2.896470297e-06
2.894365882e-06
2.898396256e-06
2.911838348e-06
2.9385835e-06
2.983267424e-06
3.051447735e-06
3.149848577e-06
3.286699553e-06
3.472207238e-06
3.71921339e-06
4.04411719e-06
4.468172997e-06
5.0193261e-06
5.734825758e-06
6.664971695e-06
7.878529037e-06
9.470621791e-06
1.157433846e-05
1.437793408e-05
1.815050564e-05
2.328052004e-05
3.033380612e-05
4.014086147e-05
5.392774873e-05
7.351020358e-05
0.0001015746385
0.0001420652063
0.0002027213504
0.0002961883159
0.0004338317947
0.0006394516708
0.0009437721574
0.001380119574
0.001986110974
0.002701822207
0.002842434054
0.00149783046
2.965845676e-06
2.959173758e-06
2.953582494e-06
2.951431806e-06
2.955535729e-06
2.969236709e-06
2.996503929e-06
3.042065887e-06
3.111591547e-06
3.211939919e-06
3.351505857e-06
3.540701098e-06
3.792625756e-06
4.124009157e-06
4.556533792e-06
5.11870818e-06
5.84853285e-06
6.797322775e-06
8.035231784e-06
9.659304446e-06
1.180531158e-05
1.466528672e-05
1.851368941e-05
2.374664684e-05
3.094099103e-05
4.09430862e-05
5.500188619e-05
7.496593512e-05
0.0001035677859
0.0001448137981
0.0002069143992
0.0003019797611
0.0004422898889
0.0006515524775
0.0009604363408
0.00140297996
0.002015588326
0.002729580319
0.002820911037
0.001433912452
3.024306445e-06
3.017502675e-06
3.011798367e-06
3.009600654e-06
3.013779873e-06
3.027745352e-06
3.055545718e-06
3.102004165e-06
3.172903268e-06
3.275239634e-06
3.417576707e-06
3.610535535e-06
3.867479832e-06
4.205475818e-06
4.646642921e-06
5.22006454e-06
5.964508037e-06
6.932324592e-06
8.195085152e-06
9.851793646e-06
1.204095662e-05
1.495846037e-05
1.888423156e-05
2.422220633e-05
3.156043202e-05
4.176143915e-05
5.609748364e-05
7.645045247e-05
0.0001055996805
0.0001476144018
0.0002111837918
0.0003078709048
0.0004508826002
0.0006638276939
0.0009773118141
0.001426090662
0.002045343712
0.002755035214
0.002799230681
0.00136959684
3.083897894e-06
3.076959751e-06
3.071140246e-06
3.068894714e-06
3.073150971e-06
3.087386623e-06
3.115731385e-06
3.163105086e-06
3.235406236e-06
3.339771833e-06
3.484937325e-06
3.681737313e-06
3.943804478e-06
4.288548822e-06
4.738535699e-06
5.323435266e-06
6.082797574e-06
7.070031362e-06
8.358153655e-06
1.004816732e-05
1.228136915e-05
1.525757417e-05
1.926228305e-05
2.470739271e-05
3.219238187e-05
4.25962516e-05
5.721497579e-05
7.796432442e-05
0.0001076710622
0.0001504679654
0.0002155308112
0.0003138632422
0.0004596116438
0.0006762788663
0.0009944000532
0.001449451685
0.00207511491
0.002774972198
0.002766494738
0.001304882288
3.144642892e-06
3.137567801e-06
3.131630887e-06
3.1293367e-06
3.13367174e-06
3.14818331e-06
3.177083891e-06
3.225391941e-06
3.29912427e-06
3.405561128e-06
3.55361346e-06
3.754333764e-06
4.021629164e-06
4.373260484e-06
4.832248179e-06
5.428861272e-06
6.203448665e-06
7.210498413e-06
8.524503145e-06
1.024850503e-05
1.252664685e-05
1.556274993e-05
1.964799822e-05
2.520240443e-05
3.283709872e-05
4.344786156e-05
5.835480592e-05
7.95081307e-05
0.0001097826838
0.0001533754499
0.0002199567552
0.0003199582741
0.0004684786954
0.0006889073953
0.001011702262
0.001473063992
0.002104823068
0.00279507641
0.002729124036
0.001245520922
3.206564748e-06
3.199350078e-06
3.193293485e-06
3.190949768e-06
3.195365339e-06
3.210158648e-06
3.239626661e-06
3.288888492e-06
3.364081678e-06
3.472632644e-06
3.623631407e-06
3.828352796e-06
4.100983983e-06
4.4596438e-06
4.927817165e-06
5.536384316e-06
6.326509482e-06
7.353782214e-06
8.694200848e-06
1.045288808e-05
1.277688952e-05
1.587411217e-05
2.004153487e-05
2.570744432e-05
3.34948462e-05
4.431661395e-05
5.951742603e-05
8.108246201e-05
0.0001119353112
0.0001563378297
0.0002244629356
0.0003261575051
0.0004774853909
0.0007017144341
0.001029219175
0.001496930421
0.002134812055
0.002815347752
0.002691484077
0.001187464074
3.269687226e-06
3.26233029e-06
3.25615169e-06
3.25375753e-06
3.258255384e-06
3.273336336e-06
3.303383586e-06
3.353618982e-06
3.430303267e-06
3.541012028e-06
3.695018009e-06
3.903822905e-06
4.181899661e-06
4.547732459e-06
5.025280228e-06
5.646047023e-06
6.452029195e-06
7.499940403e-06
8.867315405e-06
1.066139946e-05
1.303219914e-05
1.619178816e-05
2.04430543e-05
2.622271964e-05
3.416589351e-05
4.520286071e-05
6.0703297e-05
8.268792003e-05
0.0001141297231
0.0001593560915
0.0002290506767
0.0003324624426
0.0004866333446
0.0007147007588
0.001046950721
0.001521053486
0.002165083769
0.00283578617
0.002653575297
0.001129055766
3.334034555e-06
3.326532608e-06
3.320229617e-06
3.31778406e-06
3.32236596e-06
3.337740545e-06
3.36837904e-06
3.419608148e-06
3.497814352e-06
3.610725457e-06
3.767800668e-06
3.980773185e-06
4.264407572e-06
4.637560855e-06
5.124675725e-06
5.757892903e-06
6.580057992e-06
7.649031824e-06
9.043916903e-06
1.087412398e-05
1.329267995e-05
1.651590802e-05
2.08527214e-05
2.67484422e-05
3.485051558e-05
4.610696094e-05
6.191288867e-05
8.432511731e-05
0.0001163667101
0.0001624312341
0.0002337213135
0.0003388745988
0.0004959242021
0.0007278666077
0.001065290683
0.001545435242
0.002195640158
0.00285639148
0.002615398106
0.001070296233
3.399631445e-06
3.391981685e-06
3.385551856e-06
3.383053913e-06
3.387721631e-06
3.40339593e-06
3.434637887e-06
3.48688123e-06
3.566640769e-06
3.681799651e-06
3.842007361e-06
4.05923334e-06
4.348539745e-06
4.729164101e-06
5.22604281e-06
5.871966369e-06
6.710647106e-06
7.801116551e-06
9.224076918e-06
1.109114828e-05
1.355843845e-05
1.684660475e-05
2.127070473e-05
2.728482841e-05
3.554899313e-05
4.702928105e-05
6.314667992e-05
8.599467708e-05
0.000118647074
0.0001655642666
0.0002384761896
0.0003453954851
0.0005053595825
0.0007412135753
0.001084073616
0.001570513363
0.002226483462
0.002877163219
0.00257695307
0.001011185588
3.466503095e-06
3.458702662e-06
3.452143491e-06
3.449592136e-06
3.454347455e-06
3.470327644e-06
3.502185497e-06
3.555463982e-06
3.636808884e-06
3.754261883e-06
3.917666645e-06
4.139233693e-06
4.434328881e-06
4.822578045e-06
5.329421458e-06
5.988312765e-06
6.843848845e-06
7.956255925e-06
9.407868553e-06
1.131256086e-05
1.38295835e-05
1.718401428e-05
2.169717654e-05
2.783209938e-05
3.626161282e-05
4.797019489e-05
6.440515877e-05
8.769723283e-05
0.0001209716261
0.0001687562053
0.0002433166524
0.0003520266041
0.0005149411057
0.0007547438818
0.001103082975
0.001595910184
0.002257612326
0.002893143463
0.002526401844
0.0009601531076
3.534675212e-06
3.526721185e-06
3.520030107e-06
3.517424274e-06
3.522268995e-06
3.538561346e-06
3.571047754e-06
3.625382686e-06
3.708345606e-06
3.82813999e-06
3.99480767e-06
4.220805201e-06
4.521808365e-06
4.917839287e-06
5.434852477e-06
6.106978379e-06
6.979716609e-06
8.114512582e-06
9.595366473e-06
1.153845215e-05
1.410622634e-05
1.752827558e-05
2.213231291e-05
2.839048103e-05
3.698866735e-05
4.893008382e-05
6.568882229e-05
8.943342771e-05
0.0001233411835
0.0001720080688
0.000248244046
0.0003587694374
0.000524670406
0.0007684596269
0.001122321326
0.001621576229
0.002289025889
0.002902500174
0.002474857611
0.0009102470325
3.604174018e-06
3.596063417e-06
3.589237806e-06
3.586576394e-06
3.591512328e-06
3.608123219e-06
3.641251068e-06
3.69666416e-06
3.781278397e-06
3.903462383e-06
4.073460194e-06
4.303979466e-06
4.611012277e-06
5.014985189e-06
5.54237753e-06
6.228010472e-06
7.118304928e-06
8.275950489e-06
9.786646948e-06
1.176891456e-05
1.438848067e-05
1.787953067e-05
2.257629379e-05
2.896020418e-05
3.773045558e-05
4.990933688e-05
6.699817668e-05
9.120391375e-05
0.0001257565626
0.0001753208677
0.0002532597005
0.0003656254197
0.0005345490891
0.0007823627742
0.001141791164
0.001647511115
0.00232034355
0.002911932596
0.002422956306
0.0008600470998
3.675026268e-06
3.66675605e-06
3.659793218e-06
3.657075087e-06
3.662104064e-06
3.679039976e-06
3.712822391e-06
3.769335773e-06