/*--------------------------------*- C++ -*----------------------------------*\
| =========                 |                                                 |
| \\      /  F ield         | OpenFOAM: The Open Source CFD Toolbox           |
|  \\    /   O peration     | Version:  v2006                                 |
|   \\  /    A nd           | Website:  www.openfoam.com                      |
|    \\/     M anipulation  |                                                 |
\*---------------------------------------------------------------------------*/
FoamFile
{
    version     2.0;
    format      ascii;
    class       volScalarField;
    location    "0.15";
    object      CH4;
}
// * * * * * * * * * * * * * * * * * * * * * * * * * * * * * * * * * * * * * //

dimensions      [0 0 0 0 0 0 0];


internalField   nonuniform List<scalar> 
168000
(
0.05515839441
0.05515838317
0.05515836716
0.05515834301
0.05515828851
0.05515819036
0.05515807262
0.05515792376
0.0551576366
0.05515727633
0.05515685712
0.05515620563
0.05515536805
0.05515441214
0.05515294392
0.05515118553
0.05514903775
0.05514586917
0.05514230969
0.05513689519
0.05513049646
0.05512126216
0.05510963106
0.05509282851
0.0550713271
0.05503866424
0.05499831166
0.05493075135
0.05484263237
0.0547101147
0.0545069287
0.05422859683
0.05379979613
0.05314169948
0.05221503097
0.05092690457
0.04909208242
0.04654544482
0.04322311613
0.03898879074
0.05515819901
0.05515819293
0.05515817983
0.05515815392
0.05515810219
0.05515801484
0.05515789369
0.05515772283
0.0551574521
0.05515709348
0.05515663714
0.05515599257
0.05515515679
0.05515412501
0.05515268401
0.05515088974
0.05514862909
0.0551455124
0.05514172587
0.05513637242
0.05512969722
0.05512042886
0.05510840324
0.05509150357
0.05506921244
0.05503658628
0.05499412663
0.05492675342
0.05483597658
0.05470058615
0.05449584201
0.05420975529
0.0537725121
0.05310807517
0.05216856073
0.05085690505
0.0489971038
0.04643121293
0.04308151041
0.03881528398
0.05515800514
0.0551580008
0.05515798935
0.05515796388
0.05515791432
0.05515783119
0.05515770757
0.05515752729
0.05515726063
0.055156899
0.05515642237
0.05515577398
0.05515492874
0.05515385159
0.05515240877
0.05515057767
0.05514823778
0.05514511335
0.05514117238
0.05513580141
0.05512891571
0.05511954572
0.05510719143
0.0550900941
0.05506714839
0.0550342836
0.05499011748
0.0549224602
0.05482925042
0.05469107489
0.05448413966
0.0541907245
0.05374519874
0.05307359254
0.05212074496
0.05078623036
0.04890194057
0.04631552158
0.04293845547
0.03864050442
0.05515781047
0.05515780678
0.05515779635
0.05515777171
0.05515772359
0.05515764204
0.05515751661
0.0551573314
0.05515706393
0.05515669735
0.0551562072
0.05515555014
0.05515469087
0.05515358159
0.05515212293
0.05515025435
0.05514785083
0.05514468932
0.05514062981
0.05513519932
0.05512813674
0.0551186267
0.05510597835
0.05508862224
0.05506509673
0.0550318184
0.054986204
0.05491793216
0.05482243956
0.05468152079
0.05447190639
0.05417147909
0.0537177666
0.0530382747
0.05207168333
0.05071486032
0.04880643202
0.0461984629
0.0427939656
0.03846439773
0.05515761393
0.05515761056
0.0551576008
0.05515757689
0.0551575296
0.05515744849
0.05515732154
0.05515713296
0.05515686266
0.05515649027
0.05515598923
0.05515532127
0.05515444606
0.05515331021
0.05515182876
0.05514992211
0.05514746198
0.05514424873
0.05514008807
0.05513457504
0.055127352
0.05511767929
0.05510475389
0.05508710052
0.05506303432
0.05502923021
0.0549823317
0.05491321078
0.0548155322
0.05467187945
0.05445920599
0.05415199686
0.05369014194
0.05300214197
0.05202145909
0.05064277196
0.0487104512
0.04608009913
0.04264804359
0.03828692967
0.05515741499
0.05515741182
0.05515740251
0.05515737911
0.05515733224
0.05515725101
0.0551571226
0.05515693111
0.05515665708
0.05515627845
0.05515576746
0.05515508747
0.05515419546
0.05515303521
0.05515152732
0.05514958199
0.05514706815
0.05514379563
0.05513954181
0.05513393312
0.05512655692
0.05511670744
0.05510351206
0.05508553589
0.05506094714
0.05502654393
0.05497846336
0.05490832436
0.05480851844
0.05466211807
0.05444608624
0.05413225807
0.05366226407
0.05296521236
0.05197013776
0.05056993733
0.04861388853
0.04596045594
0.04250069759
0.03810809203
0.0551572133
0.05515721026
0.05515720126
0.05515717819
0.05515713144
0.05515704976
0.05515691983
0.0551567255
0.05515644728
0.05515606212
0.05515554144
0.05515484879
0.05515393945
0.0551527555
0.0551512191
0.05514923445
0.05514666784
0.05514333189
0.05513898815
0.05513327583
0.05512574888
0.0551157131
0.05510224918
0.05508393211
0.05505882672
0.05502377507
0.05497457341
0.05490329201
0.05480138982
0.05465221226
0.05443258269
0.05411224496
0.05363408334
0.05292750268
0.0519177673
0.05049633028
0.04851666004
0.04583955699
0.04235193966
0.03792783711
0.0551570086
0.05515700565
0.05515699687
0.05515697396
0.05515692712
0.05515684478
0.05515671321
0.05515651596
0.05515623326
0.05515584135
0.05515531093
0.05515460519
0.05515367815
0.05515247053
0.05515090428
0.05514887965
0.05514626025
0.0551428583
0.05513842548
0.05513260421
0.05512492631
0.05511469714
0.05510096291
0.05508229105
0.05505666783
0.05502093307
0.05497064407
0.0548981264
0.05479413899
0.0546421438
0.05441872148
0.05409194129
0.05360555954
0.05288902618
0.05186438506
0.0504219312
0.04841869984
0.04571741688
0.04220178067
0.03774615411
0.05515680069
0.0551567978
0.05515678916
0.0551567663
0.05515671921
0.05515663602
0.05515650269
0.0551563024
0.05515601499
0.05515561612
0.05515507581
0.05515435665
0.05515341154
0.05515217998
0.05515058293
0.05514851759
0.05514584494
0.05514237515
0.05513785282
0.05513191869
0.0551240882
0.05511365982
0.05509965166
0.05508061355
0.05505446722
0.0550180235
0.05496666282
0.05489283568
0.05478675953
0.05463189885
0.05440452163
0.05407133232
0.05357665671
0.05284979253
0.05181002476
0.0503467218
0.04831994486
0.04559404323
0.04205023167
0.03756303564
0.05515658939
0.05515658654
0.05515657797
0.05515655507
0.0551565076
0.05515642344
0.05515628821
0.05515608473
0.05515579244
0.05515538639
0.055154836
0.05515410309
0.05515313956
0.05515188367
0.05515025502
0.05514814824
0.0551454216
0.05514188247
0.05513726955
0.05513121933
0.05512323385
0.05511260109
0.05509831431
0.05507889982
0.05505222273
0.05501504943
0.05496262065
0.05488742487
0.05477924571
0.05462146676
0.05438999673
0.05405040464
0.05354734367
0.05280981268
0.0517547115
0.05027067175
0.04822033912
0.04546945257
0.04189730307
0.03737847706
0.05515637454
0.05515637171
0.05515636317
0.05515634015
0.05515629221
0.05515620696
0.0551560697
0.0551558629
0.05515556553
0.05515515212
0.0551545914
0.05515384444
0.05515286211
0.05515158144
0.05514992048
0.0551477715
0.05514499001
0.05514138014
0.0551366752
0.05513050602
0.05512236271
0.0551115207
0.05509694995
0.05507714973
0.05504993286
0.05501201234
0.05495851092
0.05488189676
0.0547715924
0.05461083911
0.05437515641
0.05402914545
0.05351759349
0.05276909168
0.05169846059
0.05019375848
0.0481198435
0.04534365923
0.04174300716
0.03719247935
0.05515615599
0.05515615317
0.05515614463
0.05515612144
0.05515607294
0.0551559865
0.05515584709
0.05515563682
0.05515533421
0.05515491323
0.05515434194
0.05515358062
0.05515257912
0.05515127317
0.05514957922
0.05514738726
0.05514454998
0.055140868
0.0551360694
0.05512977856
0.0551214743
0.05511041829
0.05509555783
0.05507536292
0.05504759644
0.05500891266
0.05495432858
0.05487625254
0.0547637949
0.05460000906
0.05436000638
0.05400754197
0.05348738359
0.05272763179
0.0516412853
0.05011596289
0.04801842534
0.04521667745
0.04158735249
0.0370050735
0.05515593361
0.05515593079
0.05515592222
0.05515589881
0.05515584969
0.05515576197
0.05515562031
0.05515540643
0.0551550984
0.05515466964
0.05515408754
0.05515331155
0.05515229047
0.05515095875
0.05514923115
0.05514699539
0.05514410133
0.05514034586
0.05513545184
0.05512903668
0.05512056819
0.05510929347
0.05509413729
0.05507353893
0.05504521247
0.05500575018
0.05495006963
0.05487049234
0.05475584888
0.05458897081
0.05434454943
0.05398558229
0.0534566946
0.05268543404
0.05158319575
0.05003726752
0.04791605967
0.04508851328
0.04143032375
0.03681621248
0.05515570728
0.05515570445
0.05515569583
0.05515567216
0.05515562236
0.05515553328
0.05515538925
0.05515517164
0.05515485803
0.05515442129
0.05515382813
0.05515303713
0.05515199608
0.05515063807
0.05514887615
0.05514659577
0.05514364387
0.05513981351
0.05513482221
0.0551282801
0.05511964396
0.05510814578
0.0550926877
0.05507167722
0.05504278005
0.05500252425
0.05494573078
0.05486461549
0.05474775026
0.05457771928
0.05432878638
0.05396325531
0.05342550941
0.05264249837
0.051524199
0.04995765625
0.04781272884
0.04495915845
0.04127191148
0.03662590541
0.05515547687
0.05515547403
0.05515546535
0.05515544138
0.05515539085
0.05515530033
0.05515515384
0.05515493236
0.05515461301
0.05515416809
0.0551535636
0.05515275729
0.05515169585
0.05515031101
0.0551485141
0.05514618825
0.05514317742
0.05513927073
0.05513418023
0.0551275085
0.05511870121
0.05510697478
0.05509120847
0.05506977717
0.05504029827
0.05499923397
0.0549413092
0.05485862077
0.05473949519
0.05456624983
0.05431271651
0.05394055038
0.05339381273
0.05259882382
0.05146429982
0.04987711523
0.04770840754
0.04482859816
0.0411121233
0.03643416135
0.05515524228
0.05515523941
0.05515523065
0.05515520637
0.05515515506
0.05515506303
0.05515491399
0.05515468852
0.05515436327
0.05515390996
0.05515329389
0.05515247192
0.05515138967
0.05514997748
0.05514814488
0.05514577268
0.0551427018
0.05513871729
0.05513352561
0.05512672155
0.05511773953
0.05510578
0.05508969898
0.05506783814
0.05503776625
0.05499587823
0.05493680236
0.05485250655
0.05473107996
0.0545545581
0.05429633788
0.05391745726
0.05336159073
0.05255440861
0.05140350146
0.04979563261
0.04760307134
0.04469682641
0.04095096956
0.03624099248
0.05515500339
0.0551550005
0.05515499164
0.05515496701
0.05515491488
0.05515482128
0.05515466961
0.05515444002
0.05515410871
0.05515364681
0.05515301888
0.05515218093
0.05515107744
0.05514963734
0.05514776835
0.05514534891
0.05514221682
0.05513815296
0.05513285807
0.05512591894
0.05511675851
0.05510456094
0.05508815866
0.05506585945
0.05503518305
0.05499245581
0.05493220792
0.05484627094
0.05472250097
0.05454263987
0.05427964762
0.05389396611
0.05332883082
0.05250925034
0.05134180629
0.04971319912
0.04749669981
0.04456383951
0.04078846111
0.03604641578
0.0551547601
0.05515475717
0.05515474821
0.05515472321
0.05515467022
0.055154575
0.05515442059
0.05515418678
0.05515384925
0.05515337854
0.0551527385
0.05515188422
0.05515075904
0.05514929047
0.05514738438
0.05514491678
0.05514172228
0.0551375775
0.05513217732
0.05512510031
0.05511575775
0.05510331713
0.0550865869
0.05506384039
0.05503254773
0.05498896539
0.05492752369
0.0548399118
0.05471375468
0.05453049098
0.05426264207
0.05387006739
0.05329552133
0.05246334603
0.0512792166
0.0496298093
0.04738927632
0.04442963403
0.04062460918
0.03585047032
0.05515451229
0.05515450933
0.05515450025
0.05515447486
0.05515442097
0.05515432406
0.05515416685
0.05515392869
0.05515358479
0.05515310507
0.05515245264
0.05515158168
0.05515043437
0.05514893676
0.05514699282
0.05514447612
0.055141218
0.05513699069
0.05513148308
0.05512426533
0.05511473682
0.05510204807
0.05508498309
0.05506178023
0.0550298593
0.05498540561
0.0549227475
0.05483342687
0.0547048376
0.05451810729
0.05424531701
0.05384575185
0.05326165138
0.05241669205
0.0512157354
0.04954546344
0.04728078528
0.04429420777
0.04045941678
0.03565309906
0.05515425985
0.05515425685
0.05515424765
0.05515422186
0.05515416704
0.05515406839
0.05515390829
0.05515366567
0.05515331523
0.05515282629
0.05515216121
0.05515127321
0.05515010332
0.05514857608
0.05514659355
0.05514402677
0.05514070376
0.05513639228
0.05513077504
0.05512341365
0.05511369532
0.05510075324
0.05508334662
0.05505967819
0.05502711673
0.05498177505
0.05491787728
0.05482681376
0.05469574625
0.0545054846
0.05422766771
0.05382101046
0.05322721068
0.05236928395
0.05115136644
0.04946015366
0.04717120268
0.04415755129
0.04029287045
0.03545431317
0.05515400268
0.05515399965
0.05515399031
0.05515396409
0.05515390831
0.05515380788
0.0551536448
0.0551533976
0.05515304048
0.0551525421
0.05515186409
0.0551509587
0.05514976576
0.05514820829
0.0551461864
0.05514356855
0.05514017937
0.05513578202
0.05513005293
0.05512254492
0.0551126328
0.05509943214
0.05508167685
0.05505753349
0.05502431899
0.05497807223
0.05491291092
0.05482006997
0.05468647713
0.05449261864
0.05420968911
0.05379583443
0.05319218943
0.05232111715
0.05108610263
0.04937385742
0.04706051599
0.04401966299
0.04012496177
0.03525412967
0.05515374068
0.0551537376
0.05515372813
0.05515370147
0.0551536447
0.05515354242
0.05515337629
0.0551531244
0.05515276043
0.05515225241
0.05515156118
0.05515063803
0.05514942157
0.05514783327
0.05514577122
0.05514310129
0.05513964461
0.05513515966
0.05512931643
0.05512165878
0.05511154885
0.05509808424
0.05507997314
0.05505534531
0.05502146497
0.05497429566
0.05490784634
0.05481319294
0.05467702673
0.05447950508
0.05419137581
0.05377021511
0.05315657824
0.05227218639
0.05101993678
0.04928656142
0.04694872417
0.04388053958
0.03995568885
0.0350525551
0.05515347373
0.05515347061
0.05515346099
0.05515343387
0.05515337608
0.0551532719
0.05515310265
0.05515284596
0.05515247498
0.05515195711
0.05515125237
0.05515031109
0.05514907062
0.05514745086
0.05514534785
0.0551426248
0.05513909927
0.05513452495
0.05512856525
0.05512075486
0.05511044303
0.055096709
0.05507823483
0.05505311281
0.05501855357
0.05497044381
0.05490268144
0.05480618001
0.05466739151
0.05446613946
0.05417272219
0.05374414407
0.05312036806
0.052222486
0.0509528617
0.04919825277
0.04683582148
0.04374016979
0.03978505442
0.03484963183
0.05515320173
0.05515319856
0.05515318879
0.0551531612
0.05515310235
0.05515299624
0.05515282378
0.05515256218
0.05515218403
0.05515165608
0.05515093756
0.05514997776
0.05514871279
0.05514706093
0.05514491615
0.0551421389
0.05513854314
0.05513387764
0.05512779908
0.05511983279
0.05510931487
0.05509530588
0.05507646123
0.05505083513
0.05501558363
0.05496651511
0.0548974141
0.05479902849
0.05465756788
0.05445251727
0.05415372245
0.05371761302
0.05308355017
0.05217201018
0.0508848704
0.04910891985
0.04672179417
0.04359854621
0.03961306702
0.03464535694
0.05515292456
0.05515292134
0.05515291142
0.05515288334
0.05515282342
0.05515271531
0.05515253956
0.05515227293
0.05515188746
0.05515134922
0.05515061661
0.05514963792
0.05514834795
0.05514666334
0.05514447593
0.0551416434
0.05513797599
0.05513321745
0.0551270176
0.05511889221
0.05510816394
0.05509387433
0.05507465166
0.05504851139
0.05501255398
0.05496250798
0.05489204217
0.05479173562
0.05464755219
0.05443863389
0.05413437066
0.0536906139
0.05304611622
0.05212075325
0.05081595644
0.04901855163
0.04660663078
0.04345567129
0.03943973335
0.03443969301
0.05515264212
0.05515263885
0.05515262877
0.05515260019
0.05515253916
0.05515242901
0.05515224991
0.05515197813
0.05515158517
0.05515103642
0.05515028943
0.05514929144
0.05514797595
0.05514625793
0.05514402704
0.05514113811
0.0551373976
0.05513254413
0.05512622049
0.05511793272
0.05510698976
0.05509241377
0.0550728054
0.05504614065
0.05500946341
0.05495842077
0.05488656349
0.05478429859
0.05463734078
0.05442448463
0.05411466081
0.05366313888
0.05300805834
0.05206871021
0.05074611453
0.04892713768
0.04649032183
0.04331154847
0.0392650664
0.03423264184
0.05515235429
0.05515235098
0.05515234073
0.05515231164
0.05515224946
0.05515213723
0.05515195469
0.05515167766
0.05515127704
0.05515071755
0.05514995587
0.05514893819
0.05514759667
0.05514584455
0.0551435693
0.05514062283
0.05513680773
0.05513185739
0.05512540744
0.05511695393
0.05510579187
0.05509092362
0.05507092173
0.05504372201
0.05500631069
0.05495425184
0.05488097583
0.05477671452
0.05462692988
0.05441006476
0.05409458685
0.05363518055
0.05296936922
0.05201587733
0.05067534251
0.04883466802
0.04637286138
0.04316616678
0.03908903825
0.03402420522
0.05515206097
0.0551520576
0.05515204718
0.05515201756
0.05515195423
0.05515183985
0.0551516538
0.05515137139
0.05515096296
0.0551503925
0.05514961583
0.05514857805
0.05514720995
0.05514542305
0.05514310253
0.05514009735
0.05513620615
0.05513115697
0.05512457811
0.05511595546
0.05510456977
0.05508940329
0.0550689999
0.05504125448
0.05500309454
0.0549499995
0.05487527695
0.05476898048
0.05461631572
0.05439536954
0.05407414276
0.0536067321
0.05293004268
0.05196225295
0.0506036322
0.04874113247
0.04625424758
0.04301951622
0.03891165099
0.03381439811
0.05515176203
0.05515175861
0.05515174801
0.05515171786
0.05515165333
0.05515153677
0.05515134712
0.05515105923
0.05515064281
0.05515006114
0.05514926917
0.05514821087
0.05514681566
0.05514499325
0.05514262655
0.05513956148
0.05513559262
0.05513044258
0.05512373216
0.05511493689
0.05510332299
0.05508785217
0.05506703915
0.05503873709
0.05499981368
0.05494566201
0.05486946457
0.05476109352
0.05460549446
0.05438039428
0.05405332271
0.05357778772
0.05289007184
0.05190782538
0.05053097072
0.04864653451
0.04613447745
0.04287158763
0.03873290406
0.03360330705
0.05515145737
0.05515145389
0.05515144311
0.0551514124
0.05515134666
0.05515122786
0.05515103455
0.05515074104
0.05515031646
0.05514972336
0.05514891576
0.05514783652
0.05514641364
0.05514455501
0.05514214118
0.05513901499
0.0551349669
0.05512971393
0.05512286926
0.05511389782
0.05510205102
0.05508626965
0.05506503869
0.05503616884
0.05499646678
0.05494123763
0.05486353638
0.05475305059
0.05459446217
0.05436513454
0.05403212069
0.05354833887
0.05284944809
0.05185258721
0.05045735238
0.04855087399
0.04601354136
0.04272237283
0.0385527896
0.03339084554
0.05515114686
0.05515114332
0.05515113235
0.05515110108
0.05515103409
0.05515091301
0.05515071595
0.05515041671
0.05514998381
0.05514937903
0.05514855548
0.05514745487
0.05514600373
0.05514410814
0.05514164623
0.05513845768
0.05513432874
0.05512897074
0.05512198905
0.05511283783
0.05510075335
0.05508465508
0.05506299772
0.05503354868
0.05499305249
0.05493672456
0.05485748999
0.05474484862
0.05458321487
0.05434958537
0.05401052986
0.05351837692
0.05280816535
0.05179653418
0.05038277178
0.04845414537
0.04589142118
0.04257186552
0.0383713102
0.03317701298
0.05515083038
0.05515082678
0.05515081563
0.05515078378
0.05515071552
0.0551505921
0.0551503912
0.05515008611
0.05514964471
0.055149028
0.05514818817
0.05514706575
0.0551455858
0.05514365249
0.05514114151
0.05513788933
0.05513367788
0.05512821269
0.05512109118
0.05511175648
0.05509942945
0.05508300783
0.05506091544
0.05503087557
0.05498956942
0.05493212097
0.05485132301
0.05473648445
0.05457174851
0.05433374132
0.05398854333
0.05348789382
0.05276621966
0.05173965727
0.05030722415
0.048356338
0.04576809769
0.04242006791
0.03818849034
0.03296180111
0.05515050781
0.05515050415
0.0551504928
0.05515046036
0.0551503908
0.05515026501
0.05515006019
0.05514974913
0.05514929904
0.05514867017
0.05514781371
0.05514666903
0.05514515967
0.05514318787
0.05514062682
0.0551373097
0.05513301406
0.05512743949
0.05512017529
0.05511065334
0.05509807879
0.05508132722
0.05505879099
0.05502814843
0.05498601617
0.05492742501
0.05484503298
0.05472795489
0.05456005892
0.05431759687
0.05396615441
0.0534568817
0.05272360072
0.05168194421
0.05023070295
0.04825743519
0.04564356285
0.04226697767
0.0380043111
0.03274521249
0.05515017902
0.05515017531
0.05515016376
0.05515013072
0.05515005983
0.0551499316
0.05514972279
0.05514940562
0.05514894667
0.05514830537
0.05514743196
0.05514626456
0.05514472517
0.0551427141
0.05514010196
0.05513671858
0.05513233703
0.05512665083
0.05511924101
0.05510952797
0.05509670083
0.05507961259
0.05505662352
0.05502536615
0.05498239129
0.05492263477
0.05483861741
0.05471925666
0.05454814185
0.05430114642
0.05394335626
0.05342533245
0.05268029868
0.05162338724
0.05015319857
0.04815742727
0.04551781367
0.04211258906
0.03781876455
0.03252736015
0.0551498439
0.05514984012
0.05514982837
0.05514979472
0.05514972247
0.05514959176
0.05514937887
0.05514905547
0.05514858747
0.05514793349
0.05514704276
0.05514585217
0.05514428216
0.055142231
0.05513956673
0.05513611573
0.0551316465
0.05512584639
0.05511828796
0.05510837991
0.05509529502
0.05507786324
0.05505441216
0.0550225276
0.0549786933
0.05491774831
0.05483207373
0.05471038643
0.05453599296
0.05428438432
0.05392014193
0.05339323786
0.05263630394
0.05156397802
0.0500747021
0.0480563078
0.04539084873
0.04195689796
0.03763184769
0.03230816186
0.0551495023
0.05514949847
0.05514948651
0.05514945222
0.0551493786
0.05514924535
0.05514902829
0.05514869854
0.0551482213
0.05514755438
0.05514664598
0.05514543172
0.05514383045
0.05514173839
0.05513902091
0.05513550091
0.05513094221
0.05512502585
0.05511731575
0.05510720869
0.05509386077
0.05507607845
0.055052156
0.05501963164
0.0549749207
0.05491276366
0.05482539936
0.0547013408
0.05452360781
0.05426730483
0.05389650437
0.05336058961
0.05259160709
0.05150370823
0.04999520528
0.04795407181
0.04526266922
0.04179990191
0.03744355758
0.03208759427
0.05514915411
0.05514915021
0.05514913804
0.05514910312
0.05514902808
0.05514889223
0.05514867093
0.05514833468
0.05514784802
0.05514716789
0.05514624146
0.05514500304
0.05514336987
0.05514123607
0.0551384643
0.05513487388
0.05513022387
0.05512418888
0.055116324
0.05510601385
0.05509239752
0.05507425752
0.05504985414
0.05501667707
0.05497107195
0.0549076788
0.05481859165
0.05469211631
0.05451098189
0.05424990216
0.05387243643
0.05332737934
0.05254619884
0.05144256977
0.04991470049
0.04785071636
0.0451332807
0.04164159816
0.03725389101
0.03186565464
0.05514879918
0.05514879522
0.05514878284
0.05514874726
0.05514867077
0.05514853229
0.05514830665
0.05514796378
0.05514746749
0.05514677387
0.05514582904
0.05514456598
0.05514290025
0.05514072384
0.05513789667
0.05513423438
0.0551294912
0.05512333513
0.05511531231
0.0551047949
0.05509090466
0.05507239969
0.05504750562
0.05501366269
0.05496714548
0.05490249167
0.0548116479
0.05468270941
0.05449811061
0.05423217039
0.0538479309
0.0532935986
0.05250007015
0.05138055493
0.04983318071
0.04774624143
0.04500268232
0.04148197432
0.03706287371
0.03164233834
0.05514843738
0.05514843335
0.05514842075
0.05514838451
0.05514830656
0.05514816537
0.05514793531
0.05514758567
0.05514707956
0.05514637219
0.05514540856
0.05514412035
0.05514242139
0.05514020152
0.0551373178
0.05513358218
0.0551287439
0.05512246428
0.05511428027
0.05510355135
0.0550893816
0.05507050421
0.05504510951
0.05501058727
0.05496313969
0.05489720018
0.05480456534
0.05467311651
0.05448498929
0.05421410357
0.05382298044
0.05325923895
0.05245321216
0.05131765675
0.04975064018
0.04764064272
0.04487085384
0.04132101158
0.03687048335
0.03141777433
0.05514806857
0.05514806448
0.05514805166
0.05514801473
0.05514793528
0.05514779135
0.05514755676
0.05514720022
0.05514668409
0.05514596267
0.05514497988
0.05514366599
0.05514193313
0.05513966889
0.05513672747
0.05513291701
0.05512798168
0.05512157597
0.05511322745
0.05510228269
0.05508782771
0.05506857031
0.05504266481
0.05500744955
0.05495905295
0.05489180216
0.05479734118
0.05466333394
0.05447161317
0.05419569564
0.05379757767
0.05322429189
0.05240561622
0.05125386948
0.0496670754
0.04753390752
0.0447377792
0.04115871072
0.0366767068
0.03119187871
0.05514769261
0.05514768845
0.05514767541
0.05514763779
0.05514755681
0.05514741006
0.05514717087
0.05514680729
0.05514628093
0.05514554517
0.05514454281
0.05514320273
0.05514143526
0.05513912575
0.05513612543
0.0551322386
0.05512720424
0.05512066984
0.05511215344
0.0551009884
0.05508624235
0.0550665972
0.05504017052
0.05500424825
0.05495488357
0.05488629545
0.05478997255
0.05465335796
0.0544579774
0.05417694047
0.05377171511
0.05318874894
0.05235727381
0.05118918925
0.04958248671
0.04742602459
0.04460344997
0.04099507218
0.03648154632
0.03096461558
0.05514730936
0.05514730513
0.05514729185
0.05514725353
0.05514717099
0.05514702138
0.05514677748
0.05514640671
0.05514586992
0.05514511953
0.05514409721
0.05514273038
0.0551409276
0.05513857188
0.05513551147
0.05513154669
0.05512641126
0.05511974553
0.0551110578
0.05509966797
0.0550846249
0.05506458406
0.05503762561
0.05500098204
0.05495062985
0.05488067781
0.05478245653
0.05464318476
0.05444407708
0.05415783185
0.05374538525
0.05315260156
0.05230817622
0.05112361487
0.04949687251
0.04731698475
0.0444678575
0.04083009742
0.03628500401
0.03073598585
0.05514691866
0.05514691436
0.05514690086
0.05514686181
0.05514677768
0.05514662515
0.05514637645
0.05514599835
0.0551454509
0.05514468559
0.05514364288
0.05514224877
0.05514040994
0.05513800707
0.05513488533
0.055130841
0.05512560242
0.05511880266
0.05510994008
0.05509832085
0.05508297467
0.05506253009
0.05503502905
0.05499764958
0.05494629004
0.05487494697
0.05477479014
0.05463281046
0.05442990723
0.05413836351
0.05371858051
0.05311584124
0.0522583149
0.05105713841
0.04941022798
0.0472067778
0.04433099187
0.04066379016
0.03608708278
0.03050598998
0.05514652037
0.055146516
0.05514650226
0.05514646248
0.05514637673
0.05514622122
0.05514596762
0.05514558204
0.05514502371
0.05514424317
0.05514317967
0.0551417577
0.0551398821
0.0551374311
0.05513424676
0.05513012125
0.0551247774
0.05511784086
0.05510879984
0.05509694649
0.05508129099
0.05506043441
0.05503237977
0.0549942495
0.05494186237
0.05486910059
0.05476697035
0.05462223114
0.05441546281
0.05411852914
0.05369129329
0.0530784595
0.0522076813
0.05098974881
0.04932253895
0.04709539133
0.04419285908
0.04049615425
0.03588783557
0.03027480009
0.05514611434
0.0551461099
0.05514609592
0.05514605539
0.05514596798
0.05514580943
0.05514555083
0.05514515762
0.0551445882
0.0551437921
0.05514270738
0.055141257
0.05513934385
0.05513684374
0.05513359552
0.05512938715
0.05512393587
0.05511685973
0.0551076366
0.05509554434
0.05507957318
0.05505829619
0.05502967666
0.05499078039
0.05493734502
0.05486313632
0.05475899408
0.0546114428
0.05440073873
0.05409832241
0.05366351602
0.05304044801
0.05215626677
0.0509214356
0.0492337936
0.04698282407
0.04405346294
0.04032717297
0.03568719758
0.0300422656
0.0551457004
0.05514569589
0.05514568166
0.05514564038
0.05514555128
0.05514538963
0.05514512593
0.05514472493
0.05514414419
0.05514333223
0.05514222584
0.05514074646
0.055138795
0.05513624477
0.05513293135
0.05512863842
0.05512307749
0.05511585889
0.0551064499
0.05509411382
0.05507782053
0.05505611453
0.05502691861
0.05498724083
0.05493273612
0.05485705173
0.05475085818
0.05460044139
0.05438572992
0.05407773703
0.0536352412
0.05300179865
0.05210406282
0.05085218902
0.0491439804
0.04686907773
0.04391279909
0.04015682435
0.03548516967
0.0298083619
0.05514527841
0.05514527382
0.05514525935
0.05514521729
0.05514512647
0.05514496166
0.05514469276
0.0551442838
0.05514369151
0.05514286336
0.05514173487
0.05514022588
0.05513823533
0.05513563394
0.05513225399
0.05512787476
0.05512220192
0.05511483792
0.05510523926
0.05509265434
0.05507603232
0.05505388854
0.05502410448
0.05498362934
0.05492803379
0.05485084436
0.05474255945
0.05458922279
0.0543704314
0.05405676696
0.05360646152
0.05296250391
0.05205106139
0.05078200033
0.04905308786
0.04675415374
0.04377085411
0.03998510082
0.03528175632
0.02957309715
0.05514484819
0.05514484353
0.0551448288
0.05514478595
0.05514469338
0.05514452534
0.05514425114
0.05514383407
0.05514322999
0.05514238531
0.05514123427
0.05513969507
0.05513766461
0.05513501102
0.05513156316
0.05512709585
0.05512130881
0.05511379641
0.05510400417
0.0550911653
0.05507420781
0.05505161728
0.0550212331
0.05497994443
0.05492323609
0.0548445117
0.05473409462
0.05457778284
0.0543548384
0.05403540613
0.05357716996
0.05292255772
0.05199725513
0.05071086318
0.04896110475
0.04663804061
0.04362761363
0.0398120079
0.03507696244
0.0293365036
0.05514440958
0.05514440485
0.05514438986
0.05514434621
0.05514425185
0.05514408052
0.0551438009
0.05514337556
0.05514275945
0.05514189791
0.05514072385
0.05513915382
0.05513708263
0.05513437576
0.05513085859
0.0551263014
0.05512039779
0.05511273395
0.05510274414
0.0550896461
0.05507234624
0.05504929983
0.05501830327
0.05497618458
0.05491834104
0.05483805117
0.05472546037
0.05456611728
0.05433894586
0.05401364766
0.05354736093
0.05288195202
0.05194263762
0.05063877001
0.04886801847
0.04652072945
0.04348307622
0.03963755096
0.03487082685
0.02909877654
0.05514396241
0.05514395761
0.05514394236
0.05514389789
0.05514380171
0.05514362703
0.05514334188
0.0551429081
0.05514227971
0.05514140097
0.05514020341
0.05513860191
0.05513648917
0.05513372791
0.05513014001
0.05512549107
0.05511946851
0.05511165009
0.05510145865
0.0550880961
0.05507044685
0.05504693521
0.05501531379
0.05497234821
0.05491334663
0.05483146017
0.05471665332
0.05455422178
0.05432274801
0.05399148449
0.05351702623
0.05284067689
0.05188720391
0.05056570743
0.04877382168
0.04640221332
0.04333724079
0.03946173506
0.03466335044
0.02885966553
0.05514350651
0.05514350163
0.05514348612
0.05514344082
0.05514334279
0.05514316468
0.0551428739
0.0551424315
0.05514179059
0.05514089428
0.05513967274
0.05513803914
0.05513588398
0.05513306722
0.05512940713
0.05512466456
0.05511852057
0.0551105444
0.05510014717
0.05508651468
0.05506850886
0.05504452245
0.0550122634
0.05496843374
0.0549082508
0.05482473602
0.05470767001
0.05454209193
0.05430623908
0.05396890988
0.0534861577
0.05279872588
0.05183094603
0.05049166318
0.04867851455
0.04628248737
0.04319010803
0.0392845679
0.03445447102
0.02861918878
0.05514304171
0.05514303675
0.05514302097
0.05514297482
0.0551428749
0.0551426933
0.05514239678
0.05514194558
0.05514129189
0.05514037767
0.05513913166
0.05513746528
0.05513526682
0.05513239342
0.05512865965
0.05512382151
0.05511755361
0.05510941643
0.05509880917
0.05508490117
0.05506653144
0.05504206053
0.05500915083
0.05496443953
0.05490305144
0.05481787601
0.05469850692
0.05452972319
0.05428941331
0.05394591698
0.05345474718
0.05275609372
0.05177385597
0.05041662767
0.04858210066
0.04616154959
0.04304166353
0.03910601789
0.03424419022
0.02837736709
0.05514256781
0.05514256278
0.05514254673
0.05514249972
0.05514239786
0.05514221271
0.05514191032
0.05514145016
0.05514078343
0.05513985092
0.05513857994
0.05513688011
0.05513463747
0.05513170625
0.05512789728
0.05512296161
0.05511656723
0.05510826571
0.05509744409