/*--------------------------------*- C++ -*----------------------------------*\
| =========                 |                                                 |
| \\      /  F ield         | OpenFOAM: The Open Source CFD Toolbox           |
|  \\    /   O peration     | Version:  v2006                                 |
|   \\  /    A nd           | Website:  www.openfoam.com                      |
|    \\/     M anipulation  |                                                 |
\*---------------------------------------------------------------------------*/
FoamFile
{
    version     2.0;
    format      ascii;
    class       volScalarField;
    location    "0.15";
    object      CO;
}
// * * * * * * * * * * * * * * * * * * * * * * * * * * * * * * * * * * * * * //

dimensions      [0 0 0 0 0 0 0];


internalField   nonuniform List<scalar> 
168000
(
6.991925577e-06
7.002719666e-06
7.017388773e-06
7.038612916e-06
7.084128855e-06
7.164554834e-06
7.260691481e-06
7.381750978e-06
7.61336074e-06
7.903452979e-06
8.240726142e-06
8.763755329e-06
9.435635054e-06
1.020222457e-05
1.137868099e-05
1.278732755e-05
1.450761773e-05
1.704482396e-05
1.989491536e-05
2.422975397e-05
2.93523962e-05
3.674476421e-05
4.60556737e-05
5.95061803e-05
7.67180126e-05
0.0001028643758
0.0001351662331
0.000189247465
0.0002597856258
0.0003658643227
0.0005285120645
0.0007513130715
0.001094561674
0.001621357448
0.002363140189
0.003394263584
0.004863006817
0.006901557415
0.00956106182
0.0129509351
7.147659885e-06
7.154381916e-06
7.166767305e-06
7.189444524e-06
7.23279737e-06
7.304643837e-06
7.403552356e-06
7.542231187e-06
7.760752541e-06
8.049572233e-06
8.41656654e-06
8.934101266e-06
9.604583743e-06
1.043189989e-05
1.158660693e-05
1.302400882e-05
1.483464217e-05
1.733034833e-05
2.036218497e-05
2.464818114e-05
2.999213283e-05
3.741178007e-05
4.703850288e-05
6.05667662e-05
7.841076052e-05
0.0001045277474
0.000138516289
0.0001924477539
0.0002651134884
0.0003734917931
0.000537386806
0.000766395473
0.001116402092
0.001648273164
0.002400338829
0.003450297005
0.004939035605
0.00699299858
0.009674417968
0.01308985846
7.302173912e-06
7.307553449e-06
7.318663254e-06
7.341038465e-06
7.382697341e-06
7.451222404e-06
7.552149014e-06
7.698395646e-06
7.913711106e-06
8.204982387e-06
8.588236792e-06
9.108871391e-06
9.786965149e-06
1.065060073e-05
1.180680707e-05
1.327371018e-05
1.514777876e-05
1.764971495e-05
2.080518522e-05
2.510521643e-05
3.061768069e-05
3.811869304e-05
4.800851456e-05
6.169500493e-05
8.006298958e-05
0.0001063710021
0.0001417255472
0.0001958844057
0.0002704976867
0.0003811054271
0.0005467543803
0.0007816293666
0.001138265997
0.001675875949
0.002438614551
0.003506870892
0.005015212179
0.007085608029
0.009788934234
0.01322980094
7.457325915e-06
7.462223913e-06
7.472568152e-06
7.49432058e-06
7.534883102e-06
7.602193871e-06
7.704612336e-06
7.854838932e-06
8.070853588e-06
8.366127923e-06
8.760233905e-06
9.287835622e-06
9.97719532e-06
1.086657695e-05
1.203548364e-05
1.353241161e-05
1.545742609e-05
1.798907364e-05
2.123943805e-05
2.55871329e-05
3.124120041e-05
3.885432794e-05
4.897954565e-05
6.287318962e-05
8.170529763e-05
0.0001083443505
0.000144858225
0.0001995090365
0.0002759496876
0.0003887533562
0.0005565469495
0.0007970350586
0.001160224984
0.001704147307
0.00247788756
0.003564001399
0.005091665165
0.007179312009
0.009904599511
0.01337080602
7.613966253e-06
7.618649559e-06
7.628504807e-06
7.649722246e-06
7.689660941e-06
7.756668092e-06
7.860346608e-06
8.013317612e-06
8.231640907e-06
8.531603556e-06
8.934457988e-06
9.470825638e-06
1.017297317e-05
1.10836494e-05
1.227082826e-05
1.379825314e-05
1.576860486e-05
1.834167893e-05
2.167303168e-05
2.608681032e-05
3.186932672e-05
3.961267999e-05
4.995967996e-05
6.40912891e-05
8.335621651e-05
0.0001104161537
0.0001479579443
0.0002032884329
0.0002814789294
0.0003964711116
0.000566713449
0.0008126303224
0.001182338076
0.001733070977
0.002518091211
0.003621706878
0.005168496206
0.007274060818
0.01002141353
0.01351290449
7.772524395e-06
7.777093006e-06
7.786628367e-06
7.807478406e-06
7.847130168e-06
7.914281772e-06
8.019175241e-06
8.174518039e-06
8.395868705e-06
8.700870619e-06
9.111722984e-06
9.657752799e-06
1.037339051e-05
1.130361661e-05
1.251198826e-05
1.407039441e-05
1.608375847e-05
1.870429963e-05
2.211023721e-05
2.660060538e-05
3.250573569e-05
4.039060183e-05
5.095372426e-05
6.53437305e-05
8.502695523e-05
0.0001125664718
0.0001510544859
0.0002071999388
0.0002870933439
0.0004042849654
0.0005772156278
0.000828430955
0.001204653851
0.001762632535
0.002559173075
0.003680009707
0.005245792999
0.007369833801
0.01013936748
0.0136561135
7.933272175e-06
7.937777619e-06
7.947107593e-06
7.967745229e-06
8.007347357e-06
8.074904049e-06
8.181062694e-06
8.33872268e-06
8.563470906e-06
8.873738531e-06
9.292391424e-06
9.84858982e-06
1.057812323e-05
1.152734998e-05
1.275857636e-05
1.434847757e-05
1.640410189e-05
1.907543913e-05
2.255336289e-05
2.712670706e-05
3.315252208e-05
4.118652518e-05
5.196461796e-05
6.662751811e-05
8.672431227e-05
0.0001147828974
0.0001541683288
0.0002112282624
0.0002927997085
0.0004122144258
0.0005880250412
0.0008444511856
0.001227212071
0.001792818516
0.002601094748
0.003738930839
0.005323622778
0.00746661201
0.01025845172
0.01380045743
8.09641372e-06
8.100889675e-06
8.110096535e-06
8.130646101e-06
8.17036964e-06
8.238508967e-06
8.346024328e-06
8.506063225e-06
8.73444162e-06
9.050157146e-06
9.476640368e-06
1.004334939e-05
1.07870882e-05
1.175529419e-05
1.301043557e-05
1.463237501e-05
1.673026881e-05
1.945445475e-05
2.300370583e-05
2.766427207e-05
3.381093746e-05
4.199975406e-05
5.299423481e-05
6.794113962e-05
8.845245481e-05
0.0001170578657
0.0001573137014
0.0002153632612
0.0002986038932
0.000420274096
0.0005991207498
0.0008607039978
0.00125004491
0.001823618315
0.002643826333
0.003798485974
0.00540203833
0.007564383751
0.01037865754
0.01394594495
8.262116303e-06
8.266587188e-06
8.275731908e-06
8.296289521e-06
8.336262206e-06
8.405119592e-06
8.514096909e-06
8.676617192e-06
8.908803203e-06
9.230134285e-06
9.664572354e-06
1.024206814e-05
1.100029967e-05
1.198769699e-05
1.326752502e-05
1.492207117e-05
1.706262057e-05
1.984112309e-05
2.346204136e-05
2.821296969e-05
3.448178549e-05
4.283007415e-05
5.404383906e-05
6.928393409e-05
9.021399918e-05
0.0001193869225
0.0001605006314
0.0002195983987
0.000304511048
0.0004284750386
0.0006104875383
0.0008772012025
0.001273181159
0.001855024187
0.002687340834
0.003858689768
0.005481090633
0.007663142931
0.01049997609
0.01409258194
8.430523311e-06
8.435007539e-06
8.444136211e-06
8.464776154e-06
8.505096956e-06
8.574782962e-06
8.685328389e-06
8.850444713e-06
9.08659285e-06
9.413703103e-06
9.856261404e-06
1.044479661e-05
1.121781018e-05
1.222471542e-05
1.352986404e-05
1.521760705e-05
1.740139285e-05
2.023542602e-05
2.392887517e-05
2.877274172e-05
3.516563318e-05
4.367753701e-05
5.511434569e-05
7.065572936e-05
9.201066309e-05
0.0001217676101
0.0001637363255
0.0002239296697
0.0003105257488
0.0004368257806
0.0006221145193
0.0008939535294
0.001296645768
0.001887027383
0.002731618156
0.003919566473
0.005560823959
0.007762876308
0.01062239905
0.01424037214
8.601761371e-06
8.60627313e-06
8.615421221e-06
8.636201751e-06
8.67694998e-06
8.747558497e-06
8.859773855e-06
9.027602296e-06
9.26785671e-06
9.600909137e-06
1.00517719e-05
1.065159342e-05
1.143968709e-05
1.246646515e-05
1.379750441e-05
1.551905386e-05
1.774676502e-05
2.063744582e-05
2.440457362e-05
2.934367581e-05
3.586292371e-05
4.454234092e-05
5.620646931e-05
7.205663537e-05
9.384365653e-05
0.0001241987514
0.0001670260972
0.0002283548474
0.000316652115
0.0004453330656
0.0006339939948
0.0009109711809
0.001320460306
0.001919623851
0.00277664605
0.003981134181
0.005641269622
0.007863572419
0.01074591656
0.01438931559
8.775945032e-06
8.780495469e-06
8.789690791e-06
8.810658543e-06
8.851899635e-06
8.923512408e-06
9.037493516e-06
9.208147703e-06
9.452647138e-06
9.791805067e-06
1.025116622e-05
1.086252226e-05
1.16660036e-05
1.27130437e-05
1.407051653e-05
1.582650025e-05
1.809889256e-05
2.104731402e-05
2.488943122e-05
2.992593845e-05
3.657403636e-05
4.542476544e-05
5.732080998e-05
7.348692754e-05
9.571391363e-05
0.0001266799909
0.0001703739927
0.0002328729579
0.0003228939031
0.0004540023732
0.0006461213855
0.0009282644153
0.001344642841
0.001952811795
0.0028224139
0.004043408166
0.005722453772
0.00796521986
0.01087052521
0.01453940844
8.953180057e-06
8.957778114e-06
8.967042912e-06
8.988236057e-06
9.030025374e-06
9.10271489e-06
9.218551499e-06
9.392141444e-06
9.641021254e-06
9.986448495e-06
1.04545077e-05
1.107765037e-05
1.189683572e-05
1.296454142e-05
1.434898227e-05
1.614004603e-05
1.845792205e-05
2.146518669e-05
2.538370586e-05
3.051973942e-05
3.729931839e-05
4.632513551e-05
5.845790305e-05
7.49469814e-05
9.762222837e-05
0.0001292115008
0.0001737832118
0.0002374839108
0.0003292545856
0.0004628383373
0.0006584944676
0.0009458427752
0.001369208875
0.001986590386
0.002868913589
0.004106402412
0.005804396394
0.008067813795
0.01099623562
0.01469066672
9.133565799e-06
9.138218805e-06
9.14757124e-06
9.169021716e-06
9.211407132e-06
9.285238658e-06
9.403015014e-06
9.579647023e-06
9.833040099e-06
1.01849009e-05
1.066186179e-05
1.129704783e-05
1.213226144e-05
1.322104672e-05
1.463299138e-05
1.645979887e-05
1.882399804e-05
2.18912326e-05
2.588763713e-05
3.112531305e-05
3.803910186e-05
4.724380206e-05
5.961824858e-05
7.643723652e-05
9.956933282e-05
0.0001317937941
0.0001772563916
0.0002421882409
0.0003357374159
0.0004718450322
0.0006711125773
0.0009637151587
0.001394172112
0.002020959659
0.002916139484
0.004170129818
0.005887111617
0.008171361461
0.01112305363
0.01484308315
9.317196955e-06
9.321911044e-06
9.331366244e-06
9.353101324e-06
9.396125047e-06
9.471158155e-06
9.590953774e-06
9.770730774e-06
1.002876807e-05
1.03872271e-05
1.087329644e-05
1.15207873e-05
1.237236069e-05
1.34826486e-05
1.49226395e-05
1.678587257e-05
1.919726616e-05
2.232562767e-05
2.640145613e-05
3.174290819e-05
3.879371258e-05
4.818113171e-05
6.080232889e-05
7.795817656e-05
0.0001015559411
0.0001344276053
0.0001807957977
0.0002469869274
0.000342345483
0.0004810261694
0.0006839762906
0.0009818900899
0.001419544793
0.002055920402
0.002964087753
0.004234601469
0.005970619696
0.008275874267
0.01125097313
0.01499665045
9.50416485e-06
9.508945265e-06
9.518516072e-06
9.540559504e-06
9.584259382e-06
9.660549134e-06
9.782439579e-06
9.965461584e-06
1.022827253e-05
1.059349489e-05
1.108888216e-05
1.174894393e-05
1.261721555e-05
1.374943795e-05
1.521802708e-05
1.711838596e-05
1.957787441e-05
2.276855248e-05
2.692539062e-05
3.237278293e-05
3.956347491e-05
4.913750146e-05
6.201061935e-05
7.951031848e-05
0.0001035827731
0.0001371138151
0.0001844034529
0.0002518812672
0.0003490817547
0.0004903852409
0.0006970871561
0.001000375752
0.001445337975
0.002091474025
0.003012755806
0.004299826851
0.006054940195
0.008381356837
0.01137998584
0.01515135888
9.694558421e-06
9.69940973e-06
9.709107242e-06
9.731480062e-06
9.775890563e-06
9.853488435e-06
9.977546032e-06
1.016391064e-05
1.043162347e-05
1.080377479e-05
1.130869203e-05
1.198159535e-05
1.28669104e-05
1.402150811e-05
1.551925882e-05
1.745746235e-05
1.996597374e-05
2.322019115e-05
2.745966789e-05
3.30152019e-05
4.034871438e-05
5.011329619e-05
6.324359513e-05
8.109420664e-05
0.0001056505675
0.000139853403
0.0001880812245
0.0002568727865
0.0003559491148
0.0004999256201
0.0007104474862
0.001019180034
0.001471561754
0.002127622456
0.003062141736
0.004365813395
0.006140089458
0.008487812137
0.01151008306
0.01530719937
9.888464961e-06
9.893391214e-06
9.903225184e-06
9.925946326e-06
9.971099265e-06
1.005005389e-05
1.017634835e-05
1.036615122e-05
1.063889332e-05
1.101813991e-05
1.153280167e-05
1.221882171e-05
1.312153215e-05
1.429895519e-05
1.582644323e-05
1.78032291e-05
2.036171829e-05
2.368073091e-05
2.800451629e-05
3.367043484e-05
4.114975919e-05
5.11089076e-05
6.450173562e-05
8.271040954e-05
0.0001077600868
0.0001426474175
0.0001918308825
0.0002619631796
0.0003629503924
0.0005096506327
0.0007240601954
0.001038310566
0.001498225458
0.002164368082
0.003112243714
0.00443256546
0.00622608081
0.008595242899
0.01164125582
0.01546416058
1.00859707e-05
1.009097555e-05
1.010095468e-05
1.012404142e-05
1.016996653e-05
1.025032428e-05
1.037892326e-05
1.057225855e-05
1.085015677e-05
1.123666578e-05
1.176128918e-05
1.246070564e-05
1.338117027e-05
1.45818782e-05
1.613969244e-05
1.815581733e-05
2.076526542e-05
2.415036202e-05
2.856016625e-05
3.433875597e-05
4.196694114e-05
5.212473406e-05
6.578552722e-05
8.435951801e-05
0.0001099121203
0.0001454969577
0.0001956541396
0.0002671542667
0.0003700883866
0.0005195636046
0.0007379286748
0.001057774761
0.0015253378
0.002201713805
0.003163059333
0.004500082831
0.006312926667
0.008703650884
0.01177350724
0.01562226393
1.028716128e-05
1.029224805e-05
1.030238021e-05
1.032584854e-05
1.03725739e-05
1.045437937e-05
1.058534889e-05
1.078230965e-05
1.106549063e-05
1.145943025e-05
1.19942351e-05
1.270733233e-05
1.364591691e-05
1.487037911e-05
1.645912203e-05
1.851536178e-05
2.117677579e-05
2.462927781e-05
2.912685078e-05
3.502044372e-05
4.280059634e-05
5.316118069e-05
6.709546543e-05
8.604214409e-05
0.0001121074842
0.0001484031622
0.0001995526782
0.0002724479646
0.0003773658859
0.0005296678945
0.0007520566938
0.001077579835
0.001552907021
0.00223966319
0.003214585591
0.004568371874
0.006400646136
0.008813043655
0.01190684556
0.01578150046
1.04921221e-05
1.049729389e-05
1.050758627e-05
1.053145113e-05
1.057900353e-05
1.066229994e-05
1.07957048e-05
1.099638332e-05
1.128497376e-05
1.168651345e-05
1.223172237e-05
1.295878949e-05
1.391586692e-05
1.516456286e-05
1.678485094e-05
1.888200069e-05
2.159641337e-05
2.511767473e-05
2.970480594e-05
3.571578071e-05
4.365106566e-05
5.421865982e-05
6.843205615e-05
8.775892038e-05
0.0001143470215
0.0001513672021
0.0002035281689
0.0002778462673
0.000384785684
0.0005399669151
0.0007664483227
0.001097732842
0.001580940963
0.002278219898
0.003266828157
0.004637450558
0.006489249413
0.008923422497
0.01204127459
0.01594185654
1.070093865e-05
1.070619833e-05
1.071665761e-05
1.074093312e-05
1.078933831e-05
1.08741678e-05
1.101007191e-05
1.121456005e-05
1.150868699e-05
1.191799769e-05
1.24738363e-05
1.321516734e-05
1.419111786e-05
1.546453736e-05
1.711700136e-05
1.925587568e-05
2.202434544e-05
2.561575246e-05
3.029427112e-05
3.642505387e-05
4.451869524e-05
5.529759144e-05
6.979581674e-05
8.951049948e-05
0.0001166316013
0.0001543902773
0.0002075822829
0.000283351233
0.0003923505924
0.0005504641453
0.0007811078712
0.001118240686
0.001609447142
0.002317388143
0.003319792787
0.004707329537
0.006578737337
0.00903479064
0.01217679584
0.01610332693
1.091369673e-05
1.091904705e-05
1.092967946e-05
1.095437908e-05
1.100366202e-05
1.109006592e-05
1.122853259e-05
1.143692204e-05
1.17367131e-05
1.215396743e-05
1.272066455e-05
1.347655866e-05
1.447177002e-05
1.577041349e-05
1.74556987e-05
1.963713173e-05
2.246074263e-05
2.612371407e-05
3.089548926e-05
3.71485546e-05
4.540383688e-05
5.639840361e-05
7.11872767e-05
9.129755375e-05
0.0001189621176
0.0001574736142
0.0002117167015
0.0002889649752
0.0004000634495
0.0005611631361
0.0007960398382
0.001139110129
0.001638432803
0.002357172459
0.003373485242
0.004778019129
0.006669114494
0.009147157418
0.01231340712
0.01626589606
1.113048271e-05
1.113592626e-05
1.11467377e-05
1.117187437e-05
1.122205939e-05
1.131007845e-05
1.14511706e-05
1.166355313e-05
1.196913677e-05
1.239450928e-05
1.297229711e-05
1.374305873e-05
1.47579264e-05
1.608230508e-05
1.780107154e-05
2.002591716e-05
2.290577896e-05
2.664176607e-05
3.150870714e-05
3.7886579e-05
4.630684841e-05
5.752153302e-05
7.260697828e-05
9.312077493e-05
0.0001213394893
0.0001606184645
0.0002159331218
0.0002946896575
0.0004079271279
0.0005720675115
0.000811248868
0.001160347797
0.001667904924
0.002397577505
0.003427911121
0.004849528631
0.006760391896
0.009260527862
0.0124511016
0.01642956517
1.135138366e-05
1.135692295e-05
1.136791902e-05
1.139350525e-05
1.144461622e-05
1.15342908e-05
1.16780712e-05
1.18945389e-05
1.220604462e-05
1.263971196e-05
1.322882627e-05
1.401476532e-05
1.504969273e-05
1.640032888e-05
1.815325162e-05
2.042238361e-05
2.335963189e-05
2.717011862e-05
3.213417551e-05
3.863942808e-05
4.722809407e-05
5.866742535e-05
7.405547688e-05
9.498087403e-05
0.000123764659
0.0001638261053
0.0002202332617
0.0003005274897
0.0004159445386
0.0005831809646
0.0008267397105
0.001181960154
0.001697870185
0.002438607807
0.003483075571
0.004921866872
0.00685257871
0.009374900006
0.01258987427
0.01659434721
1.157648755e-05
1.158212499e-05
1.159331107e-05
1.161935905e-05
1.16714195e-05
1.176278971e-05
1.190932115e-05
1.21299666e-05
1.244752516e-05
1.288966631e-05
1.349034665e-05
1.429177874e-05
1.534717743e-05
1.672460458e-05
1.851237383e-05
2.082668603e-05
2.382248235e-05
2.770898557e-05
3.277214935e-05
3.940740803e-05
4.816794484e-05
5.98365357e-05
7.553334141e-05
9.687858113e-05
0.0001262385932
0.0001670978385
0.0002246188631
0.0003064807258
0.0004241186334
0.0005945072474
0.0008425171805
0.001203953454
0.0017283349
0.002480267378
0.003538982822
0.0049950422
0.006945682534
0.009490271107
0.01272972656
0.01676024073
1.180588337e-05
1.181162133e-05
1.18230026e-05
1.184952426e-05
1.190255747e-05
1.199566331e-05
1.214500877e-05
1.236992523e-05
1.269366882e-05
1.314446528e-05
1.375695517e-05
1.457420178e-05
1.565049164e-05
1.705525481e-05
1.887857618e-05
2.123898272e-05
2.429451484e-05
2.825858464e-05
3.342288805e-05
4.019083046e-05
4.912677883e-05
6.102932897e-05
7.704115461e-05
9.881464533e-05
0.0001287622816
0.0001704349915
0.0002290916945
0.0003125516626
0.0004324524052
0.0006060501522
0.0008585861137
0.001226333639
0.001759304913
0.002522559207
0.003595634614
0.005069062605
0.007039708119
0.009606649936
0.01287066875
0.0169272443
1.203966126e-05
1.204550203e-05
1.205708353e-05
1.208409061e-05
1.213811971e-05
1.22330012e-05
1.238522399e-05
1.261450556e-05
1.294456797e-05
1.340420392e-05
1.402875104e-05
1.486213975e-05
1.595974922e-05
1.739240509e-05
1.925199984e-05
2.165943535e-05
2.477591747e-05
2.881913752e-05
3.408665559e-05
4.099001266e-05
5.010498153e-05
6.224628022e-05
7.857951329e-05
0.0001007898347
0.0001313367372
0.0001738389174
0.0002336535528
0.0003187426387
0.0004409488873
0.0006178134767
0.0008749513228
0.001249106159
0.001790785168
0.002565484611
0.003653037442
0.005143936238
0.007134656949
0.009724044503
0.01301269914
0.01709534976
1.22779126e-05
1.228385846e-05
1.229564508e-05
1.232314918e-05
1.237819724e-05
1.247489451e-05
1.263005837e-05
1.286380015e-05
1.320031695e-05
1.366897945e-05
1.43058358e-05
1.515570045e-05
1.627506674e-05
1.77361839e-05
1.963278913e-05
2.2088209e-05
2.526688203e-05
2.939087001e-05
3.476372073e-05
4.180527784e-05
5.110294615e-05
6.348787496e-05
8.014902858e-05
0.0001028049364
0.000133962996
0.0001773109959
0.0002383062657
0.0003250560353
0.0004496111557
0.0006298009627
0.0008916174932
0.001272275658
0.001822781148
0.002609052963
0.003711201655
0.005219660316
0.007230531461
0.009842462132
0.0131558182
0.01726452262
1.252073015e-05
1.252678333e-05
1.253877989e-05
1.256679251e-05
1.262288258e-05
1.272143595e-05
1.287960521e-05
1.31179034e-05
1.346101208e-05
1.393889121e-05
1.458831333e-05
1.545499422e-05
1.659656348e-05
1.808672265e-05
2.002109156e-05
2.252547218e-05
2.576760409e-05
2.997401216e-05
3.545435722e-05
4.263695537e-05
5.212107395e-05
6.475460945e-05
8.175032614e-05
0.0001048607564
0.0001366421178
0.0001808526333
0.0002430516924
0.0003314942773
0.0004584423457
0.000642016171
0.0009085893835
0.001295848981
0.001855299775
0.002653270179
0.003770131827
0.005296234948
0.00732733939
0.009961911044
0.01330003221
0.01743479379
1.276820812e-05
1.277437082e-05
1.278658206e-05
1.281511464e-05
1.287226981e-05
1.297271989e-05
1.313395952e-05
1.337691157e-05
1.372675169e-05
1.421404072e-05
1.487628983e-05
1.576013392e-05
1.692436148e-05
1.844415573e-05
2.041705786e-05
2.297139691e-05
2.62782831e-05
3.056879839e-05
3.615884396e-05
4.348538103e-05
5.315977444e-05
6.604699104e-05
8.33840464e-05
0.0001069581201
0.0001393751855
0.0001844652638
0.0002478917258
0.0003380598347
0.0004674456441
0.0006544630642
0.000925872485
0.001319833031
0.001888345904
0.002698139685
0.003829832267
0.005373664576
0.00742509517
0.01008239569
0.0134453391
0.01760616374
1.302044224e-05
1.302671666e-05
1.303914725e-05
1.306821119e-05
1.312645468e-05
1.322884242e-05
1.339321814e-05
1.364092284e-05
1.399763614e-05
1.449453169e-05
1.51698739e-05
1.607123497e-05
1.725858552e-05
1.880862051e-05
2.082084198e-05
2.342615876e-05
2.679912244e-05
3.117546761e-05
3.687746523e-05
4.435089725e-05
5.421946575e-05
6.736553839e-05
8.505084478e-05
0.0001090978722
0.0001421633058
0.0001881503495
0.0002528282935
0.000344755224
0.0004766243011
0.0006671460094
0.0009434723404
0.001344234249
0.001921922716
0.002743668678
0.003890306796
0.00545195817
0.007523814193
0.01020391326
0.01359173218
0.01777863911
1.327752987e-05
1.328391819e-05
1.329657276e-05
1.332617948e-05
1.338553463e-05
1.34899014e-05
1.365747977e-05
1.391003736e-05
1.427376791e-05
1.478047008e-05
1.546917648e-05
1.638841536e-05
1.759936318e-05
1.918025735e-05
2.123260119e-05
2.388993692e-05
2.733032953e-05
3.17942634e-05
3.761051082e-05
4.523385333e-05
5.530057482e-05
6.871078178e-05
8.675139193e-05
0.0001112808766
0.0001450076096
0.0001919093817
0.0002578633591
0.0003515830107
0.0004859816479
0.0006800694174
0.0009613942973
0.001369058944
0.001956038453
0.002789866994
0.003951560646
0.005531128806
0.007623502877
0.0103264656
0.01373921861
0.01795221783
1.353957006e-05
1.354607447e-05
1.355895761e-05
1.358911855e-05
1.364960888e-05
1.37559965e-05
1.392684498e-05
1.418435727e-05
1.455525156e-05
1.507196406e-05
1.577431097e-05
1.671179567e-05
1.794682483e-05
1.955920971e-05
2.165249608e-05
2.436291427e-05
2.787211595e-05
3.242543412e-05
3.835827626e-05
4.613460568e-05
5.640353771e-05
7.008326334e-05
8.848637394e-05
0.0001135080173
0.0001479092521
0.0001957438816
0.000262998924
0.0003585458115
0.0004955210907
0.0006932377703
0.0009796438394
0.0013943136
0.001990700999
0.002836740841
0.004013601516
0.005611184065
0.007724163629
0.01045005732
0.01388779994
0.01812685228
1.380666363e-05
1.38132863e-05
1.382640259e-05
1.385712922e-05
1.391877847e-05
1.402722929e-05
1.420141634e-05
1.446398675e-05
1.484219382e-05
1.536912413e-05
1.608539318e-05
1.704149913e-05
1.830110369e-05
1.99456241e-05
2.208069061e-05
2.484527743e-05
2.842469752e-05
3.306923305e-05
3.912106298e-05
4.705351803e-05
5.752879981e-05
7.148353734e-05
9.025649261e-05
0.000115780198
0.0001508694131
0.0001996554007
0.0002682370279
0.0003656462954
0.0005052461062
0.0007066555974
0.0009982265276
0.001420004796
0.002025918035
0.002884296906
0.004076436541
0.005692129105
0.007825797585
0.01057469171
0.01403747859
0.01830257332
1.407891323e-05
1.408565633e-05
1.409901034e-05
1.413031421e-05
1.419314637e-05
1.430370329e-05
1.448129839e-05
1.474903208e-05
1.513470361e-05
1.56720631e-05
1.640254142e-05
1.73776516e-05
1.866233585e-05
2.033965017e-05
2.251735221e-05
2.533721687e-05
2.898829441e-05
3.372591856e-05
3.98991785e-05
4.799096166e-05
5.867681613e-05
7.291217044e-05
9.206246572e-05
0.0001180983428
0.0001538892979
0.0002036455217
0.0002735797505
0.000372887184
0.0005151602397
0.0007203274863
0.001017148003
0.00144613918
0.002061697111
0.00293254184
0.004140072325
0.005773967908
0.007928403792
0.01070037075
0.0141882569
0.01847939207
1.435642341e-05
1.436328912e-05
1.437688541e-05
1.440877814e-05
1.447281748e-05
1.458552402e-05
1.476659773e-05
1.503960165e-05
1.543289209e-05
1.598089612e-05
1.672587651e-05
1.772038167e-05
1.903066032e-05
2.074144075e-05
2.296265178e-05
2.583892696e-05
2.956313126e-05
3.43957542e-05
4.069293661e-05
4.894731564e-05
5.984805155e-05
7.436974196e-05
9.390502727e-05
0.0001204633964
0.0001569701373
0.0002077158595
0.0002790292123
0.0003802712527
0.0005252671042
0.0007342580876
0.001036413984
0.001472723461
0.002098045636
0.002981482129
0.004204514964
0.005856702829
0.00803197779
0.01082709824
0.01434013745
0.01865731072
1.463930069e-05
1.46462912e-05
1.466013434e-05
1.469262765e-05
1.475789872e-05
1.487279902e-05
1.50574231e-05
1.533580606e-05
1.573687269e-05
1.629574077e-05
1.705552181e-05
1.806982063e-05
1.940621906e-05
2.11511519e-05
2.341676383e-05
2.63506061e-05
3.014943726e-05
3.507900891e-05
4.150265756e-05
4.992296702e-05
6.104298103e-05
7.585684413e-05
9.578492779e-05
0.0001228763244
0.0001601131884
0.0002118680617
0.0002845875752
0.0003878013304
0.0005355703789
0.0007484521162
0.001056030259
0.001499764384
0.002134970866
0.00303112394
0.004269770095
0.005940333881
0.008136520625
0.01095488616
0.01449311608
0.01883633298
1.492765361e-05
1.493477112e-05
1.494886568e-05
1.49819714e-05
1.504849909e-05
1.516563797e-05
1.535388535e-05
1.563775814e-05
1.604676119e-05
1.661671707e-05
1.73916033e-05
1.842610258e-05
1.978915705e-05
2.156894295e-05
2.387986646e-05
2.687245674e-05
3.074744632e-05
3.577595712e-05
4.232866825e-05
5.091831104e-05
6.22620899e-05
7.737408239e-05
9.770293465e-05
0.0001253381136
0.000163319735
0.0002161038094
0.0002902570441
0.0003954803006
0.0005460738089
0.0007629143527
0.001076002687
0.001527268722
0.002172479889
0.003081472855
0.004335842314
0.006024864513
0.008242048599
0.01108374595
0.014647201
0.01901640176
1.52215928e-05
1.522883953e-05
1.524319011e-05
1.527692017e-05
1.53447297e-05
1.54641527e-05
1.565609758e-05
1.594557298e-05
1.63626757e-05
1.694394751e-05
1.773424958e-05
1.878936443e-05
2.017962231e-05
2.199497662e-05
2.435214152e-05
2.740468553e-05
3.135739714e-05
3.648687891e-05
4.317130238e-05
5.193375139e-05
6.350587407e-05
7.892207566e-05
9.965983235e-05
0.0001278497725
0.0001665910881
0.0002204248179
0.000296039867
0.0004033111013
0.0005567812037
0.0007776496428
0.001096337185
0.001555243265
0.002210579627
0.003132533472
0.004402734425
0.006110304885
0.008348574121
0.01121367698
0.0148023961
0.01919755172
1.552123107e-05
1.552860923e-05
1.554322044e-05
1.557758692e-05
1.564670386e-05
1.576845727e-05
1.596417515e-05
1.625936801e-05
1.66847368e-05
1.727755715e-05
1.808359194e-05
1.915974597e-05
2.057776598e-05
2.242941897e-05
2.48337746e-05
2.79475034e-05
3.197953335e-05
3.72120602e-05
4.403090068e-05
5.29697004e-05
6.477484033e-05
8.050145661e-05
0.0001016564228
0.0001304123318
0.0001699285864
0.0002248328375
0.0003019383361
0.0004112967252
0.0005676964359
0.0007926628953
0.001117039729
0.001583694814
0.002249276905
0.003184308886
0.004470446157
0.006196663999
0.008456103933
0.0113446789
0.0149586996
0.01937979831
1.582668341e-05
1.583419523e-05
1.58490717e-05
1.588408682e-05
1.595453713e-05
1.607866799e-05
1.627823571e-05
1.657926305e-05
1.70130675e-05
1.761767362e-05
1.84397644e-05
1.953738991e-05
2.098374237e-05
2.287243959e-05
2.53249552e-05
2.850112563e-05
3.261410362e-05
3.795179282e-05
4.490781105e-05
5.402657927e-05
6.606950657e-05
8.211287194e-05
0.0001036935259
0.0001330268447
0.0001733335972
0.0002293296543
0.0003079547883
0.0004194402189
0.0005788234382
0.0008079590778
0.001138116345
0.001612630194
0.002288578687
0.003236800047
0.00453897884
0.006283949211
0.008564644956
0.01147675053
0.01511610979
0.01956314081
1.613806709e-05
1.614571484e-05
1.616086123e-05
1.619653732e-05
1.626834736e-05
1.639490351e-05
1.659839932e-05
1.690538035e-05
1.734779335e-05
1.796442717e-05
1.880290378e-05
1.992244195e-05
2.1397709e-05
2.332421159e-05
2.582587674e-05
2.906577202e-05
3.326136181e-05
3.870637475e-05
4.580238878e-05
5.510481828e-05
6.739040202e-05
8.375698273e-05
0.0001057719795
0.0001356943872
0.0001768075164
0.0002339170905
0.0003140916053
0.0004277446822
0.0005901661988
0.000823543209
0.001159573094
0.001642056225
0.002328491821
0.00329001331
0.004608336328
0.006372168477
0.008674205144
0.01160988891
0.01527462436
0.01974757884
1.645550173e-05
1.646328766e-05
1.647870867e-05
1.651505824e-05
1.658825477e-05
1.671728488e-05
1.692478843e-05
1.723784464e-05
1.768904246e-05
1.831795076e-05
1.917314974e-05
2.031505083e-05
2.18198267e-05
2.378491168e-05
2.633673668e-05
2.964166689e-05
3.392156707e-05
3.947611022e-05
4.671499674e-05
5.620485703e-05
6.873806758e-05
8.543446469e-05
0.0001078926401
0.0001384160589
0.0001803517696
0.0002385970053
0.0003203512143
0.000436213266
0.0006017287527
0.0008394203447
0.001181416057
0.001671979687
0.002369023159
0.00334395753
0.00467852991
0.006461331915
0.008784779687
0.0117440946
0.0154342289
0.01993303473
1.677910934e-05
1.678703573e-05
1.680273607e-05
1.683977179e-05
1.691438199e-05
1.704593558e-05
1.725752801e-05
1.75767832e-05
1.803694559e-05
1.867838009e-05
1.955064484e-05
2.071536837e-05
2.225025966e-05
2.425472028e-05
2.685773659e-05
3.02290393e-05
3.459498399e-05
4.02613099e-05
4.764600555e-05
5.732714465e-05
7.011305601e-05
8.71460085e-05
0.000110056383
0.000141192983
0.0001839678124
0.0002433712955
0.0003267360875
0.0004448491691
0.0006135151642
0.000855595551
0.0012036513
0.001702407266
0.002410179614
0.003398641075
0.004749569064
0.006551440549
0.008896365526
0.01187938234
0.01559494903
0.02011957949
1.710901437e-05
1.711708353e-05
1.713306795e-05
1.717080264e-05
1.724685412e-05
1.738098159e-05
1.759674554e-05
1.792232591e-05
1.839163616e-05
1.904585366e-05
1.993553457e-05
2.112354957e-05
2.268917547e-05
2.473382158e-05
2.738908227e-05
3.082812308e-05
3.528188272e-05
4.106229103e-05
4.859579378e-05
5.847214004e-05
7.151593225e-05
8.889232011e-05
0.0001122641029
0.0001440263073
0.0001876571309
0.0002482418958
0.0003332487426
0.0004536556345
0.000625529494
0.0008720738548
0.001226284823
0.001733345434
0.002451967978
0.003454071776
0.004821463003
0.006642493029
0.00900896642
0.01201576479
0.01575678254
0.02030722266
1.744534382e-05
1.745355806e-05
1.746983134e-05
1.7508278e-05
1.758579882e-05
1.772255144e-05
1.794257111e-05
1.827460531e-05
1.875325036e-05
1.942051284e-05
2.032796748e-05
2.153975264e-05
2.313674523e-05
2.522240361e-05
2.793098384e-05
3.143915697e-05
3.598253912e-05
4.187937764e-05
4.956474815e-05
5.964031212e-05
7.294727367e-05
9.067412109e-05
0.0001145167141
0.0001469172043
0.0001914212426