/*--------------------------------*- C++ -*----------------------------------*\
| =========                 |                                                 |
| \\      /  F ield         | OpenFOAM: The Open Source CFD Toolbox           |
|  \\    /   O peration     | Version:  v2006                                 |
|   \\  /    A nd           | Website:  www.openfoam.com                      |
|    \\/     M anipulation  |                                                 |
\*---------------------------------------------------------------------------*/
FoamFile
{
    version     2.0;
    format      ascii;
    class       volScalarField;
    location    "0.15";
    object      CO2;
}
// * * * * * * * * * * * * * * * * * * * * * * * * * * * * * * * * * * * * * //

dimensions      [0 0 0 0 0 0 0];


internalField   nonuniform List<scalar> 
168000
(
1.081363987e-05
1.082445759e-05
1.084104987e-05
1.086753885e-05
1.093127451e-05
1.10486237e-05
1.11899508e-05
1.136941648e-05
1.171884612e-05
1.215804428e-05
1.266954201e-05
1.346629866e-05
1.44915579e-05
1.566201191e-05
1.746137873e-05
1.961687496e-05
2.225019494e-05
2.613626447e-05
3.050193121e-05
3.714375009e-05
4.499315664e-05
5.632156928e-05
7.059063004e-05
9.12044239e-05
0.0001175831265
0.0001576554027
0.0002071618855
0.0002900483862
0.0003981573914
0.000560737167
0.0008100167077
0.001151489287
0.001677566829
0.002484959807
0.003621854227
0.005202208407
0.007453285296
0.01057764106
0.01465369253
0.01984917218
1.105449769e-05
1.105888682e-05
1.107180991e-05
1.110039881e-05
1.116066015e-05
1.126463554e-05
1.141008539e-05
1.161654888e-05
1.19456958e-05
1.238278314e-05
1.293983848e-05
1.372803348e-05
1.475100012e-05
1.601456304e-05
1.778044386e-05
1.997993258e-05
2.275174053e-05
2.657406731e-05
3.121830814e-05
3.778518552e-05
4.597376965e-05
5.734395677e-05
7.209702791e-05
9.282997364e-05
0.0001201775421
0.0001602047763
0.0002122963345
0.00029495328
0.0004063230811
0.0005724273116
0.0008236184603
0.001174605119
0.001711040533
0.002526212161
0.003678866817
0.005288088213
0.007569811008
0.01071778727
0.01482742554
0.02006209859
1.12934672e-05
1.129564932e-05
1.130646338e-05
1.13344444e-05
1.139195053e-05
1.149065741e-05
1.163906702e-05
1.185704234e-05
1.218111159e-05
1.262181804e-05
1.320373141e-05
1.399656005e-05
1.503107404e-05
1.635027113e-05
1.811833906e-05
2.036296808e-05
2.32319819e-05
2.706376282e-05
3.189747835e-05
3.848580414e-05
4.69326358e-05
5.842749524e-05
7.358378195e-05
9.455921264e-05
0.0001227098567
0.0001630298479
0.0002172149905
0.0003002204338
0.0004145751127
0.0005840962504
0.0008379755466
0.001197953134
0.001744550235
0.00256851755
0.003737530201
0.005374796366
0.007686563223
0.01085972405
0.01500293658
0.02027658699
1.153342316e-05
1.153472942e-05
1.154422344e-05
1.157110137e-05
1.162677146e-05
1.172345693e-05
1.187401403e-05
1.209797054e-05
1.242296755e-05
1.286967939e-05
1.346813133e-05
1.427152828e-05
1.532320387e-05
1.668179872e-05
1.846923855e-05
2.07598126e-05
2.370686894e-05
2.758411343e-05
3.256323847e-05
3.922456378e-05
4.788839455e-05
5.955505667e-05
7.507209949e-05
9.636500235e-05
0.0001252269663
0.0001660543076
0.0002220162762
0.0003057756924
0.0004229310612
0.0005958177517
0.0008529839955
0.001221564452
0.001778205664
0.002611847628
0.003797722077
0.005462357625
0.007803739082
0.01100333834
0.01518020872
0.02049270403
1.177568106e-05
1.177652327e-05
1.178512429e-05
1.181103387e-05
1.186559488e-05
1.196166137e-05
1.211400693e-05
1.23420376e-05
1.267043525e-05
1.312420491e-05
1.373595798e-05
1.455268153e-05
1.562385533e-05
1.701501031e-05
1.883036865e-05
2.116761171e-05
2.418410295e-05
2.812477573e-05
3.322798837e-05
3.999054977e-05
4.885121534e-05
6.07174376e-05
7.657437032e-05
9.823196848e-05
0.0001277572738
0.0001692296641
0.0002267670482
0.0003115681515
0.0004314053919
0.0006076462716
0.0008685655439
0.001245466316
0.001812097283
0.00265617747
0.003859340306
0.00555080021
0.00792149437
0.01114855426
0.01535924211
0.02071049896
1.202090515e-05
1.20214367e-05
1.202940494e-05
1.205460361e-05
1.210857351e-05
1.220471007e-05
1.235877247e-05
1.259029988e-05
1.292320067e-05
1.338456551e-05
1.4008462e-05
1.483988468e-05
1.593163336e-05
1.735266644e-05
1.920042171e-05
2.158507557e-05
2.466743194e-05
2.868079515e-05
3.389827603e-05
4.07781773e-05
4.982673272e-05
6.19098142e-05
7.809796162e-05
0.0001001515697
0.0001303179586
0.0001725253568
0.00023151295
0.0003175630872
0.0004400102618
0.0006196220757
0.0008846615666
0.001269682935
0.001846299545
0.002701484973
0.003922304529
0.005640158446
0.008039963493
0.01129533991
0.0155400226
0.02093000445
1.226951583e-05
1.226981485e-05
1.22773257e-05
1.230205112e-05
1.235579418e-05
1.245240074e-05
1.260825506e-05
1.284319191e-05
1.318116221e-05
1.365046763e-05
1.428620039e-05
1.513309635e-05
1.624604004e-05
1.769610461e-05
1.957880395e-05
2.201165494e-05
2.515871973e-05
2.924987686e-05
3.457764016e-05
4.158467029e-05
5.081815744e-05
6.31297828e-05
7.964737854e-05
0.0001021192148
0.0001329194405
0.0001759223694
0.0002362853687
0.0003237370629
0.000448756058
0.000631775063
0.0009012284686
0.001294236118
0.00188087339
0.002747749497
0.003986555889
0.00573046433
0.0081592495
0.01144366622
0.0157225354
0.0211512495
1.252182879e-05
1.252194552e-05
1.252912428e-05
1.255356654e-05
1.260734466e-05
1.270469286e-05
1.286247775e-05
1.31009161e-05
1.344431072e-05
1.392183386e-05
1.456944516e-05
1.543233627e-05
1.65669476e-05
1.804600742e-05
1.996527475e-05
2.24471539e-05
2.565893845e-05
2.983103541e-05
3.526806933e-05
4.240873608e-05
5.182740786e-05
6.437627672e-05
8.122549291e-05
0.0001041325857
0.0001355681063
0.0001794091076
0.0002411061112
0.0003300745335
0.0004576517773
0.000644127615
0.0009182341572
0.001319145764
0.00191586813
0.002794954874
0.004052048562
0.005821741922
0.008279433069
0.01159351525
0.01590676719
0.02137424739
1.277810269e-05
1.277807289e-05
1.278501171e-05
1.280931713e-05
1.286332524e-05
1.296162164e-05
1.312149672e-05
1.33635915e-05
1.371268042e-05
1.419867598e-05
1.48583538e-05
1.573766083e-05
1.689437784e-05
1.84027552e-05
2.035977159e-05
2.289154855e-05
2.616864242e-05
3.042392827e-05
3.597075218e-05
4.324986771e-05
5.285571577e-05
6.564896754e-05
8.283424247e-05
0.0001061906697
0.0001382679661
0.0001829787449
0.0002459905469
0.0003365654811
0.0004667053125
0.0006566966865
0.0009356553129
0.001344429975
0.00195132789
0.002843089168
0.004118741175
0.005914013688
0.008400590594
0.01174487768
0.01609270439
0.02159900717
1.303855928e-05
1.303840926e-05
1.304517715e-05
1.306945815e-05
1.312384664e-05
1.322325928e-05
1.338538554e-05
1.363131041e-05
1.398632834e-05
1.448104478e-05
1.515303997e-05
1.604914767e-05
1.722841142e-05
1.876658903e-05
2.076232427e-05
2.33449018e-05
2.668819326e-05
3.102852767e-05
3.668646402e-05
4.410797601e-05
5.39039503e-05
6.694793427e-05
8.447502956e-05
0.0001082932028
0.0001410216525
0.0001866275145
0.0002509497205
0.000343203767
0.0004759236772
0.0006694953462
0.0009534752492
0.001370105196
0.001987290913
0.002892138952
0.004186602952
0.006007316795
0.008522791872
0.0118977332
0.01628033424
0.02182553454
1.330339438e-05
1.330314379e-05
1.330979318e-05
1.33341373e-05
1.338902608e-05
1.348969719e-05
1.36542288e-05
1.390415962e-05
1.426532532e-05
1.476901013e-05
1.545360254e-05
1.636688684e-05
1.756915175e-05
1.913768651e-05
2.117301234e-05
2.38073229e-05
2.721786612e-05
3.164495981e-05
3.74157665e-05
4.498319536e-05
5.497279072e-05
6.82734809e-05
8.614894949e-05
0.0001104403535
0.00014383102
0.0001903536122
0.0002559917763
0.0003499859785
0.0004853131848
0.0006825339301
0.0009716821682
0.001396187227
0.002023790253
0.002942098016
0.004255615107
0.006101678974
0.008646084897
0.01205206424
0.01646964166
0.02205383022
1.357278515e-05
1.357244882e-05
1.35790202e-05
1.360349691e-05
1.365898434e-05
1.376103726e-05
1.392811907e-05
1.418222785e-05
1.454975174e-05
1.50626529e-05
1.576013728e-05
1.669097615e-05
1.791671123e-05
1.951619738e-05
2.159194388e-05
2.427894788e-05
2.77578995e-05
3.227342641e-05
3.815911118e-05
4.587578097e-05
5.606281844e-05
6.962603591e-05
8.785692198e-05
0.0001126325441
0.0001466975003
0.0001941564931
0.0002611229154
0.0003569106227
0.0004948795928
0.0006958208358
0.0009902690513
0.0014226917
0.002060853605
0.002992963609
0.004325761357
0.006197123632
0.008770509745
0.01220785334
0.01666062181
0.02228390545
1.384689515e-05
1.38464844e-05
1.385300956e-05
1.387767514e-05
1.39338439e-05
1.403738761e-05
1.420715501e-05
1.446560813e-05
1.483969536e-05
1.536206155e-05
1.607274146e-05
1.702151885e-05
1.827120655e-05
1.990226033e-05
2.201924458e-05
2.475992988e-05
2.830851826e-05
3.291416679e-05
3.891689342e-05
4.678605447e-05
5.717456572e-05
7.100609738e-05
8.959976759e-05
0.0001148703501
0.0001496223104
0.0001980364213
0.000266348042
0.0003639775611
0.000504628223
0.0007093631658
0.00100923249
0.001449633171
0.002098504726
0.003044734457
0.004397029262
0.006293672203
0.008896097045
0.01236509307
0.01685329081
0.02251576716
1.412587804e-05
1.41254016e-05
1.413190592e-05
1.41568069e-05
1.421372804e-05
1.431886026e-05
1.449144006e-05
1.475439811e-05
1.513524998e-05
1.566733052e-05
1.639151561e-05
1.735862256e-05
1.863275745e-05
2.029601106e-05
2.245505219e-05
2.525043412e-05
2.886994413e-05
3.356743976e-05
3.968948059e-05
4.771437508e-05
5.830854156e-05
7.241420322e-05
9.137825275e-05
0.0001171544452
0.0001526065722
0.000201994183
0.0002716711979
0.0003711876135
0.000514564062
0.0007231671645
0.001028571468
0.001477025278
0.00213676462
0.003097410617
0.004469410191
0.00639134446
0.009022868454
0.01252379387
0.01704765735
0.02274940417
1.440988027e-05
1.440934495e-05
1.441584902e-05
1.444102465e-05
1.449876034e-05
1.460556991e-05
1.478108153e-05
1.504869983e-05
1.54365146e-05
1.597855938e-05
1.671656407e-05
1.770239885e-05
1.900148666e-05
2.069758624e-05
2.289951349e-05
2.575063517e-05
2.944240049e-05
3.42335151e-05
4.0477227e-05
4.866112426e-05
5.94652454e-05
7.385091537e-05
9.319311674e-05
0.0001194855707
0.0001556513803
0.0002060309039
0.0002770958553
0.0003785422808
0.0005246918438
0.0007372385202
0.001048286866
0.001504881084
0.00217565205
0.003150993295
0.004542898269
0.006490157388
0.009150855015
0.01268397368
0.01724371208
0.02298480534
1.469904309e-05
1.469845422e-05
1.470497502e-05
1.473045903e-05
1.478906463e-05
1.489763332e-05
1.507619001e-05
1.534861929e-05
1.574359278e-05
1.629585233e-05
1.704799517e-05
1.805296314e-05
1.93775202e-05
2.110712536e-05
2.335278265e-05
2.626071537e-05
3.002611433e-05
3.491266972e-05
4.128048185e-05
4.96266977e-05
6.064517444e-05
7.531681169e-05
9.504508818e-05
0.0001218645191
0.0001587578383
0.0002101479339
0.0002826251148
0.0003860435504
0.0005350161174
0.0007515825848
0.00106838106
0.001533213133
0.002215183959
0.003205484653
0.004617489526
0.006590125528
0.009280086712
0.01284563979
0.01744144232
0.02322195573
1.499350403e-05
1.499286584e-05
1.499941758e-05
1.502523939e-05
1.508476496e-05
1.519516893e-05
1.537687884e-05
1.565426603e-05
1.605659217e-05
1.661931776e-05
1.738592119e-05
1.841043466e-05
1.976098763e-05
2.152477171e-05
2.381502031e-05
2.678086389e-05
3.062131719e-05
3.560518594e-05
4.20995936e-05
5.061150108e-05
6.184882766e-05
7.681248213e-05
9.693489541e-05
0.0001242921246
0.0001619270779
0.0002143467743
0.000288261838
0.0003936937616
0.0005455413024
0.0007662045288
0.001088857592
0.001562033513
0.002255375825
0.003260887645
0.004693181042
0.006691260269
0.009410588595
0.01300879673
0.01764083474
0.02346084586
1.529339811e-05
1.529271395e-05
1.529930866e-05
1.532549439e-05
1.538598579e-05
1.549829673e-05
1.56832639e-05
1.596575286e-05
1.637562418e-05
1.694906805e-05
1.77304583e-05
1.877493647e-05
2.015202237e-05
2.19506728e-05
2.4286393e-05
2.73112761e-05
3.122824546e-05
3.631135089e-05
4.29349124e-05
5.161594791e-05
6.307670816e-05
7.833852711e-05
9.886327316e-05
0.0001267692587
0.000165160268
0.0002186290319
0.0002940087379
0.0004014955112
0.0005562717348
0.000781109449
0.00110972093
0.001591353923
0.00229624194
0.00331720593
0.004769970009
0.006793568291
0.009542381084
0.0131734487
0.01784187555
0.02370147792
1.55988587e-05
1.559813121e-05
1.560477925e-05
1.563135237e-05
1.569285217e-05
1.580713819e-05
1.599546338e-05
1.628319557e-05
1.670080371e-05
1.728521932e-05
1.808172652e-05
1.914659552e-05
2.05507618e-05
2.23849806e-05
2.476707279e-05
2.785215316e-05
3.184714051e-05
3.703145632e-05
4.37867915e-05
5.264045856e-05
6.432932456e-05
7.98955572e-05
0.000100830967
0.0001292968268
0.0001684586184
0.0002229963914
0.0002998684393
0.0004094515888
0.0005672117047
0.000796302443
0.001130976271
0.001621185719
0.002337795661
0.003374443956
0.004847852743
0.006897049243
0.009675483475
0.0133395984
0.01804457062
0.02394386094
1.591001822e-05
1.590924952e-05
1.591595985e-05
1.594294176e-05
1.60054899e-05
1.612181628e-05
1.631359768e-05
1.660671275e-05
1.703224893e-05
1.762789127e-05
1.84398496e-05
1.952554264e-05
2.095734741e-05
2.282785163e-05
2.525723702e-05
2.840370177e-05
3.247824874e-05
3.776579867e-05
4.465558818e-05
5.368545987e-05
6.560719206e-05
8.148419343e-05
0.0001028387364
0.000131875767
0.00017182338
0.0002274505979
0.0003058435209
0.0004175649321
0.0005783654857
0.0008117886584
0.001152629392
0.001651539967
0.002380049619
0.003432607186
0.00492682464
0.007001712626
0.00980992569
0.01350725742
0.01824893205
0.02418798122
1.622700878e-05
1.62262005e-05
1.623298101e-05
1.626039141e-05
1.632402575e-05
1.644245554e-05
1.663778936e-05
1.693642573e-05
1.737008117e-05
1.797720709e-05
1.8804955e-05
1.991191255e-05
2.137192482e-05
2.327944696e-05
2.57570682e-05
2.896613398e-05
3.312182162e-05
3.851467918e-05
4.554166435e-05
5.475138511e-05
6.69108332e-05
8.31050678e-05
0.0001048873568
0.000134507049
0.000175255845
0.0002319934463
0.000311936543
0.0004258385975
0.0005897373598
0.0008275733258
0.001174686532
0.001682427473
0.00242301583
0.003491701233
0.005006894389
0.007107586254
0.009945722462
0.01367642772
0.01845496518
0.02443381784
1.654996258e-05
1.654911598e-05
1.655597366e-05
1.658383091e-05
1.664858762e-05
1.676918216e-05
1.696816313e-05
1.727245846e-05
1.771442481e-05
1.833329337e-05
1.917717384e-05
2.030584386e-05
2.179464384e-05
2.373993222e-05
2.626675381e-05
2.953966705e-05
3.377811571e-05
3.927840405e-05
4.644538703e-05
5.583867416e-05
6.824077858e-05
8.475882405e-05
0.0001069776211
0.000137191673
0.0001787573452
0.0002366267756
0.0003181500672
0.0004342757393
0.0006013316358
0.0008436617769
0.001197154296
0.001713858819
0.002466705816
0.003551732554
0.005088070813
0.007214686459
0.01008287508
0.0138471141
0.0186626723
0.02468136277
1.687901234e-05
1.687812837e-05
1.688506946e-05
1.691339082e-05
1.697930478e-05
1.710212406e-05
1.73048459e-05
1.761493748e-05
1.806540725e-05
1.869628001e-05
1.955664085e-05
2.070747907e-05
2.222565846e-05
2.420947759e-05
2.678648629e-05
3.012452339e-05
3.444739271e-05
4.005728466e-05
4.736712871e-05
5.694777373e-05
6.959756745e-05
8.644611835e-05
0.000109110341
0.0001399306696
0.000182329251
0.0002413524653
0.00032448667
0.0004428795969
0.0006131526642
0.0008600594542
0.001220039578
0.001745844372
0.002511130681
0.003612708098
0.005170362741
0.007323029051
0.01022139057
0.01401933079
0.01887205007
0.02493061377
1.721429161e-05
1.721337096e-05
1.722040109e-05
1.724920293e-05
1.731630798e-05
1.744141101e-05
1.764796677e-05
1.796399195e-05
1.84231588e-05
1.906630019e-05
1.994349433e-05
2.111696455e-05
2.266512683e-05
2.46882578e-05
2.731646293e-05
3.07209305e-05
3.512991949e-05
4.085163769e-05
4.830726773e-05
5.807913773e-05
7.098174833e-05
8.816762004e-05
0.0001112863476
0.0001427250989
0.0001859729707
0.0002461724342
0.0003309489528
0.0004516534861
0.0006252048475
0.0008767719121
0.001243349498
0.001778394284
0.002556301119
0.003674635006
0.005253778755
0.00743262828
0.01036128581
0.01419308572
0.01908308801
0.02518157143
1.755593508e-05
1.75549782e-05
1.756210248e-05
1.759140046e-05
1.765972962e-05
1.778717472e-05
1.799765711e-05
1.831975363e-05
1.878781276e-05
1.944349038e-05
2.033787615e-05
2.153445052e-05
2.311321128e-05
2.517645204e-05
2.785688589e-05
3.132912101e-05
3.582596822e-05
4.166178537e-05
4.926618855e-05
5.923322764e-05
7.239387957e-05
8.992401227e-05
0.0001135064921
0.0001455760507
0.0001896899492
0.0002510886394
0.0003375395485
0.0004606007939
0.0006374926473
0.0008938048106
0.001267091334
0.001811518465
0.002602227367
0.003737520214
0.005338326742
0.007543497681
0.01050257485
0.0143683759
0.01929577857
0.02543423556
1.790407879e-05
1.790308595e-05
1.791030906e-05
1.794011824e-05
1.800970392e-05
1.813954895e-05
1.835405066e-05
1.868235692e-05
1.915950535e-05
1.982799027e-05
2.073993174e-05
2.196009106e-05
2.357007833e-05
2.567424404e-05
2.840796211e-05
3.194933261e-05
3.65358164e-05
4.248805563e-05
5.024428211e-05
6.041051285e-05
7.383452985e-05
9.171599264e-05
0.0001157716466
0.0001484846441
0.0001934816676
0.0002561030764
0.0003442611266
0.0004697249749
0.0006500205876
0.0009111639003
0.001291272467
0.001845226498
0.002648919104
0.003801369875
0.005424013187
0.007655650047
0.01064526934
0.0145451971
0.01951012878
0.02568860396
1.825886038e-05
1.825783165e-05
1.826515793e-05
1.82954929e-05
1.836636706e-05
1.849866961e-05
1.87172835e-05
1.905193889e-05
1.953837576e-05
2.021994283e-05
2.114981007e-05
2.239404409e-05
2.403589863e-05
2.6181822e-05
2.896990338e-05
3.258180813e-05
3.725974697e-05
4.333078231e-05
5.124194608e-05
6.161147106e-05
7.530427877e-05
9.354427375e-05
0.0001180827043
0.0001514520272
0.0001973496429
0.0002612177795
0.0003511163978
0.0004790295491
0.0006627932556
0.0009288549934
0.001315900307
0.001879527491
0.002696385287
0.003866188568
0.005510840756
0.007769097622
0.01078937656
0.01472356279
0.01972614946
0.02594467442
1.862041924e-05
1.861935457e-05
1.8626788e-05
1.865766298e-05
1.872985728e-05
1.886467489e-05
1.908749424e-05
1.942863931e-05
1.992456616e-05
2.061949428e-05
2.156766367e-05
2.283647139e-05
2.451084702e-05
2.669937861e-05
2.954292631e-05
3.322679557e-05
3.799804842e-05
4.419030536e-05
5.225958518e-05
6.283658867e-05
7.680371723e-05
9.540958376e-05
0.00012044058
0.0001544793773
0.0002012954275
0.0002664348229
0.0003581081162
0.0004885181011
0.0006758153001
0.0009468839106
0.001340982231
0.001914429796
0.002744633492
0.003931978312
0.005598819614
0.007883852901
0.01093489877
0.01490348522
0.01994383803
0.02620243982
1.898889674e-05
1.898779592e-05
1.899534025e-05
1.902676914e-05
1.910031503e-05
1.923770532e-05
1.946482401e-05
1.981260076e-05
2.031822174e-05
2.102679414e-05
2.199364862e-05
2.328753861e-05
2.499510248e-05
2.722711107e-05
3.012725235e-05
3.388454815e-05
3.87510149e-05
4.506697101e-05
5.329761149e-05
6.408636117e-05
7.833344802e-05
9.731266686e-05
0.0001228462102
0.0001575679006
0.0002053206098
0.0002717563209
0.0003652390828
0.0004981942802
0.0006890914356
0.0009652563865
0.00136652542
0.001949940532
0.002793672207
0.003998753473
0.005687965417
0.007999911617
0.01108183986
0.01508497563
0.02016319518
0.02646189614
1.936443631e-05
1.936329903e-05
1.937095775e-05
1.940295424e-05
1.947788308e-05
1.961790388e-05
1.984941656e-05
2.020396862e-05
2.071949076e-05
2.144199521e-05
2.242792461e-05
2.374741524e-05
2.548884821e-05
2.77652211e-05
3.072310784e-05
3.455532437e-05
3.951894636e-05
4.5961132e-05
5.43564447e-05
6.53612935e-05
7.98940862e-05
9.925428377e-05
0.0001253005541
0.0001607188329
0.0002094268136
0.000277184429
0.0003725121474
0.000508061803
0.0007026264674
0.0009839778785
0.001392537298
0.00198607019
0.002843511982
0.004066523118
0.005778285172
0.008117273937
0.01123021174
0.01526804709
0.02038423055
0.02672303691
1.974718366e-05
1.974600947e-05
1.975378591e-05
1.97863635e-05
1.986270662e-05
2.000541612e-05
2.024141837e-05
2.060289117e-05
2.112852456e-05
2.186525366e-05
2.287065489e-05
2.421627471e-05
2.599227161e-05
2.831391497e-05
3.133072405e-05
3.523938812e-05
4.030214866e-05
4.68731478e-05
5.543651243e-05
6.666190042e-05
8.148625953e-05
0.0001012352121
0.0001278045933
0.000163933439
0.0002136156989
0.0002827213452
0.000379930211
0.0005181244552
0.0007164252797
0.00100305446
0.001419026257
0.002022829349
0.002894160236
0.004135292497
0.005869785485
0.008235946671
0.01138003634
0.01545270625
0.02060694097
0.02698586287
2.013728685e-05
2.013607523e-05
2.01439725e-05
2.017714458e-05
2.02549334e-05
2.040039021e-05
2.064097867e-05
2.100951963e-05
2.154547765e-05
2.229672904e-05
2.332200641e-05
2.469429433e-05
2.65055643e-05
2.887340355e-05
3.195033724e-05
3.593700871e-05
4.110093372e-05
4.780338476e-05
5.653825051e-05
6.798870687e-05
8.311060894e-05
0.000103256247
0.0001303593324
0.0001672130135
0.0002178889619
0.0002883693107
0.000387496228
0.0005283860936
0.000730492854
0.001022492825
0.00144600069
0.002060227881
0.002945621843
0.004205072679
0.005962472213
0.008355941964
0.01153133724
0.01563894849
0.02083132402
0.02725038417
2.053489647e-05
2.053364678e-05
2.054166788e-05
2.057544773e-05
2.065471378e-05
2.080297707e-05
2.104824957e-05
2.142400824e-05
2.197050774e-05
2.273658429e-05
2.378214973e-05
2.51816554e-05
2.702892219e-05
2.944390232e-05
3.258218871e-05
3.664846102e-05
4.191561967e-05
4.875221636e-05
5.766210325e-05
6.934224834e-05
8.476778889e-05
0.0001053182011
0.0001329657992
0.0001705588808
0.0002222483359
0.0002941306111
0.0003952132079
0.0005388506504
0.0007448342958
0.001042299732
0.001473468792
0.002098275455
0.002997909437
0.004275878702
0.006056353374
0.00847728087
0.01168412429
0.01582677667
0.02105738582
0.02751659767
2.09401657e-05
2.093887722e-05
2.094702501e-05
2.098142587e-05
2.106220089e-05
2.121333043e-05
2.14633861e-05
2.184651432e-05
2.240377577e-05
2.318498586e-05
2.425125916e-05
2.567854318e-05
2.75625455e-05
3.002563145e-05
3.322652488e-05
3.73740256e-05
4.274653098e-05
4.972002345e-05
5.880852375e-05
7.07230712e-05
8.645846782e-05
0.0001074219055
0.0001356250454
0.0001739723955
0.0002266955913
0.0003000075778
0.0004030842181
0.0005495221359
0.0007594548256
0.001062482051
0.001501438969
0.00213698201
0.0030510351
0.00434772008
0.006151440767
0.008599975575
0.01183840117
0.01601619784
0.02128512585
0.02778450103
2.135325047e-05
2.13519224e-05
2.13601996e-05
2.13952347e-05
2.147755066e-05
2.163160695e-05
2.188654632e-05
2.227719834e-05
2.284544604e-05
2.36421037e-05
2.472951278e-05
2.618514701e-05
2.810663882e-05
3.061881585e-05
3.388359736e-05
3.811398872e-05
4.359399865e-05
5.07071944e-05
5.997797415e-05
7.213173306e-05
8.818332849e-05
0.0001095682097
0.0001383381468
0.000177454943
0.0002312325366
0.0003060025887
0.0004111123849
0.0005604046408
0.000774359772
0.001083046725
0.001529919743
0.002176357628
0.003105010605
0.004420607064
0.006247745329
0.008724033981
0.01199416963
0.01620721706
0.02151454781
0.02805408392
2.177430954e-05
2.177294099e-05
2.178135025e-05
2.181703282e-05
2.190092197e-05
2.205796626e-05
2.231789136e-05
2.271622399e-05
2.329568621e-05
2.410811134e-05
2.521709244e-05
2.670166028e-05
2.866141113e-05
3.122368525e-05
3.455366304e-05
3.886864257e-05
4.445836035e-05
5.171412538e-05
6.117092593e-05
7.356880313e-05
8.994306837e-05
0.0001117579824
0.0001411062034
0.0001810079396
0.0002358610191
0.0003121180697
0.0004193008957
0.0005715023366
0.0007895545687
0.001104000784
0.00155891976
0.0022164125
0.003159847521
0.004494549846
0.006345277181
0.008849462193
0.0121514282
0.01639983733
0.0217456553
0.02832535086
2.220350461e-05
2.220209463e-05
2.221063848e-05
2.224698179e-05
2.233247672e-05
2.249257108e-05
2.275758555e-05
2.316375825e-05
2.375466737e-05
2.458318593e-05
2.57141839e-05
2.722828055e-05
2.922707592e-05
3.184047426e-05
3.52369842e-05
3.963828534e-05
4.53399606e-05
5.274122053e-05
6.23878602e-05
7.503486248e-05
9.173840007e-05
0.0001139921116
0.0001439303403
0.0001846328332
0.0002405829253
0.0003183564959
0.0004276530005
0.0005828194765
0.000805044753
0.001125351356
0.001588447784
0.002257156907
0.003215557207
0.004569558368
0.006444045667
0.008976263818
0.01231017005
0.01659406472
0.02197845226
0.02859830523
2.264100042e-05
2.263954797e-05
2.264822888e-05
2.268524625e-05
2.277237989e-05
2.29355873e-05
2.320579644e-05
2.361997145e-05
2.422256415e-05
2.506750835e-05
2.622097681e-05
2.776520958e-05
2.980385121e-05
3.246942242e-05
3.59338286e-05
4.042322133e-05
4.623915092e-05
5.378889222e-05
6.362926795e-05
7.653050449e-05
9.357005166e-05
0.000116271505
0.000146811708
0.0001883311038
0.0002454001819
0.0003247203924
0.0004361720129
0.0005943603967
0.0008208359641
0.001147105668
0.001618512688
0.002298601187
0.003272150783
0.00464564208
0.006544059424
0.009104438879
0.01247039641
0.01678991784
0.02221294575
0.0288729527
2.308696484e-05
2.308546882e-05
2.309428918e-05
2.313199399e-05
2.322079969e-05
2.338718406e-05
2.366269492e-05
2.408503738e-05
2.469955473e-05
2.556126321e-05
2.673766485e-05
2.831265339e-05
3.039195964e-05
3.311077434e-05
3.664446954e-05
4.122376116e-05
4.715629004e-05
5.485756129e-05
6.489565038e-05
7.805633508e-05
9.543876711e-05
0.0001185970907
0.0001497514826
0.0001921042639
0.0002503147564
0.0003312123358
0.0004448613121
0.0006061295165
0.0008369339418
0.001169271045
0.00164912345
0.002340755722
0.003329639112
0.004722809539
0.0066453255
0.009233992659
0.01263213213
0.01698741375
0.02244914041
0.02914929338
2.3541569e-05
2.354002823e-05
2.354899035e-05
2.358739607e-05
2.367790761e-05
2.384753384e-05
2.412845529e-05
2.455913333e-05
2.518582097e-05
2.606463898e-05
2.726444573e-05
2.887082237e-05
3.099162855e-05
3.376477977e-05
3.736918607e-05
4.204022182e-05
4.809174404e-05
5.59476572e-05
6.618751911e-05
7.961297311e-05
9.73453066e-05
0.0001209698173
0.0001527508665
0.0001959538593
0.0002553286583
0.0003378349552
0.0004537243436
0.0006181313388
0.0008533445246
0.001191854916
0.00168028914
0.002383630916
0.003388032802
0.004801067793
0.006747848191
0.009364940731
0.01279539674
0.01718655149
0.02268703688
0.02942731871
2.400498733e-05
2.400340056e-05
2.40125067e-05
2.405162691e-05
2.41438785e-05
2.431681253e-05
2.460325535e-05
2.504244017e-05
2.568154843e-05
2.6577828e-05
2.78015213e-05
2.94399313e-05
3.160309005e-05
3.443169368e-05
3.8108263e-05
4.287292688e-05
4.904588657e-05
5.705961836e-05
6.750539653e-05
8.12010507e-05
9.9290447e-05
0.0001233906547
0.000155811089
0.0001998814698
0.0002604439395
0.0003445909333
0.0004627646205
0.0006303704503
0.0008700736478
0.001214864803
0.001712018917
0.002427237195
0.003447342317
0.004880421584
0.006851627081
0.009497296893
0.01296020056
0.01738733052
0.02292663239
0.02970702713
2.447739769e-05
2.447576361e-05
2.448501596e-05
2.452486434e-05
2.461889069e-05
2.479519953e-05
2.508727647e-05
2.553514247e-05
2.61869265e-05
2.710102663e-05
2.834909762e-05
3.002019948e-05
3.222658111e-05
3.511177638e-05
3.886199109e-05
4.372220662e-05
5.001909904e-05
5.81938923e-05
6.884981606e-05
8.282121353e-05
0.0001012749822
0.000125860594
0.0001589334065
0.0002038887094
0.0002656626953
0.0003514830075
0.0004719857245
0.0006428515205
0.0008871273392
0.00123830832
0.001744322017
0.002471585019
0.003507578326
0.004960872368
0.006956664016
0.009631072418
0.01312655419
0.01758974904
0.02316792435
0.02998841752
2.495898146e-05
2.49572987e-05
2.496669939e-05
2.500728975e-05
2.510312605e-05
2.528287785e-05
2.558070365e-05
2.603742851e-05
2.670214842e-05
2.763443525e-05
2.890738502e-05
3.061185079e-05
3.286234369e-05
3.580529359e-05
3.963066718e-05
4.458839819e-05
5.101177076e-05
5.935093591e-05
7.022132241e-05
8.447412126e-05
0.0001032997234
0.0001283806487
0.0001621191036
0.0002079772277
0.0002709870657
0.0003585139706
0.0004813913061
0.0006555793003
0.0009045117111
0.00126219316
0.001777207729
0.00251668484
0.003568751327
0.005042429887
0.007062964984
0.009766280554
0.01329446984
0.0177938025
0.02341090918
0.03027148933
2.544992365e-05
2.544819074e-05
2.545774186e-05
2.549908813e-05
2.55967701e-05
2.578003414e-05
2.608372567e-05
2.654949044e-05
2.722741142e-05
2.81782584e-05
2.947659824e-05
3.121511375e-05
3.351062477e-05
3.651251663e-05
4.041459427e-05
4.547184575e-05
5.202429921e-05
6.053121571e-05
7.162047194e-05
8.616044779e-05
0.0001053654998
0.0001309518544
0.0001653694928
0.0002121487097
0.0002764192354
0.0003656866723
0.0004909850851
0.0006685586188
0.0009222329476
0.00128652707
0.001810685373
0.002562547049
0.003630871822
0.00512510771
0.007170547395
0.009902935888
0.01346394012
0.01799949246
0.02365559225
0.03055625263
2.595041294e-05
2.594862836e-05
2.595833193e-05
2.60004482e-05
2.610001209e-05
2.628685886e-05
2.659653511e-05
2.707152432e-05
2.776291676e-05
2.873270484e-05
3.005695644e-05
3.183022168e-05
3.41716765e-05
3.723372245e-05
4.121408168e-05
4.637290067e-05
5.305709019e-05
6.173520809e-05
7.304783286e-05
8.788088165e-05
0.0001074731587
0.0001335752699
0.000168685916
0.0002164048773
0.0002819614354
0.0003730040197
0.0005007708509
0.0006817943789
0.0009402972781
0.001311317815
0.001844764245
0.002609181894
0.003693950406
0.005208918665
0.007279425778
0.01004103987
0.01363496035
0.01820684176
0.02390198705
0.03084270982
2.646064184e-05
2.645880399e-05
2.646866198e-05
2.651156246e-05
2.66130451e-05
2.680354631e-05
2.711932849e-05
2.760373019e-05
2.830886985e-05
2.929798764e-05
3.064868333e-05
3.245741275e-05
3.48457563e-05
3.79691938e-05
4.202944524e-05
4.729192168e-05
5.411055803e-05
6.296339953e-05
7.450398561e-05
8.963612637e-05
0.0001096235661
0.0001362519773
0.0001720697444
0.0002207474896
0.0002876159436
0.0003804689779
0.000510752462
0.0006952915509
0.0009587109262
0.001336573099
0.001879453544
0.002656599297
0.003757997489
0.005293874752
0.007389614251
0.01018059043
0.01380753623
0.01841586886
0.02415008876
0.03113085372
2.698080673e-05
2.697891395e-05
2.698892828e-05
2.703262733e-05
2.713606611e-05
2.733029474e-05
2.765230631e-05
2.814631222e-05
2.886548031e-05
2.987432427e-05
3.125200729e-05
3.309693007e-05
3.553312695e-05
3.871921933e-05
4.286100736e-05
4.822927502e-05
5.518512581e-05
6.421628685e-05
7.598952311e-05
9.142690079e-05
0.0001118176072
0.0001389830826
0.0001755223794
0.0002251783437
0.0002933850857
0.0003880845717
0.000520933847
0.0007090551723
0.0009774800131
0.001362300352
0.001914762239
0.002704808509
0.003823022981
0.005379986671
0.007501126948
0.01032158579