/*--------------------------------*- C++ -*----------------------------------*\
| =========                 |                                                 |
| \\      /  F ield         | OpenFOAM: The Open Source CFD Toolbox           |
|  \\    /   O peration     | Version:  v2006                                 |
|   \\  /    A nd           | Website:  www.openfoam.com                      |
|    \\/     M anipulation  |                                                 |
\*---------------------------------------------------------------------------*/
FoamFile
{
    version     2.0;
    format      ascii;
    class       volScalarField;
    location    "0.15";
    object      H;
}
// * * * * * * * * * * * * * * * * * * * * * * * * * * * * * * * * * * * * * //

dimensions      [0 0 0 0 0 0 0];


internalField   nonuniform List<scalar> 
168000
(
8.221628451e-20
8.429553658e-20
8.645325047e-20
8.87247744e-20
9.134355743e-20
9.44508059e-20
9.779511083e-20
1.015086981e-19
1.067995624e-19
1.129370736e-19
1.19775004e-19
1.293731672e-19
1.411853624e-19
1.544231691e-19
1.739216026e-19
1.96956667e-19
2.2479168e-19
2.652977896e-19
3.106195683e-19
3.791370016e-19
4.599047119e-19
5.762070741e-19
7.225057703e-19
9.336813431e-19
1.203762184e-18
1.613950985e-18
2.120565478e-18
2.968799045e-18
4.075009367e-18
5.738594873e-18
8.289309763e-18
1.178329193e-17
8.096919536e-17
2.611104111e-16
1.8552488e-15
1.758822098e-14
6.37060148e-13
4.122610027e-11
2.005742283e-09
3.567277834e-08
8.405084661e-20
8.613204464e-20
8.831309047e-20
9.06537968e-20
9.329110944e-20
9.633070851e-20
9.975967321e-20
1.037614002e-19
1.08905822e-19
1.150675937e-19
1.223799741e-19
1.319264257e-19
1.437533052e-19
1.579468487e-19
1.771336372e-19
2.006397737e-19
2.29897004e-19
2.697713489e-19
3.179536117e-19
3.857111131e-19
4.699609894e-19
5.866925819e-19
7.379526844e-19
9.503464094e-19
1.230349655e-18
1.640070022e-18
2.17315172e-18
3.019021857e-18
4.158607206e-18
5.858253919e-18
8.428523224e-18
1.201986337e-17
8.84377416e-17
2.703144911e-16
1.956203459e-15
1.877974042e-14
7.336951275e-13
4.597302682e-11
2.225868211e-09
3.881129383e-08
8.587153812e-20
8.798716032e-20
9.020349587e-20
9.259072544e-20
9.525439482e-20
9.829777923e-20
1.018017452e-19
1.059528936e-19
1.110933828e-19
1.173331704e-19
1.249228825e-19
1.345488213e-19
1.465256265e-19
1.61303032e-19
1.805375138e-19
2.04525465e-19
2.347878648e-19
2.747758818e-19
3.249079904e-19
3.928929445e-19
4.79795243e-19
5.978062345e-19
7.531993046e-19
9.680751181e-19
1.256301988e-18
1.669014e-18
2.223529062e-18
3.07295516e-18
4.243089356e-18
5.977697364e-18
8.575468082e-18
1.225881154e-17
9.591432923e-17
2.797535299e-16
2.060081309e-15
1.9982753e-14
8.305179619e-13
5.078060205e-11
2.448246968e-09
4.197283275e-08
8.769997938e-20
8.986065871e-20
9.21185967e-20
9.454854659e-20
9.724755461e-20
1.003238084e-19
1.038961821e-19
1.081481682e-19
1.133419359e-19
1.196823982e-19
1.274709029e-19
1.372361365e-19
1.494178653e-19
1.64618429e-19
1.840742741e-19
2.085518088e-19
2.396261452e-19
2.800947217e-19
3.31726271e-19
4.004669094e-19
4.895986779e-19
6.09372453e-19
7.684630744e-19
9.865894386e-19
1.282099652e-18
1.700001383e-18
2.272705431e-18
3.129839619e-18
4.328635968e-18
6.097680151e-18
8.729080337e-18
1.250045509e-17
1.03423441e-16
2.894212035e-16
2.166665791e-15
2.119760221e-14
9.276921411e-13
5.564499732e-11
2.710992868e-09
4.515837782e-08
8.954609038e-20
9.175563929e-20
9.405903179e-20
9.653339174e-20
9.927484898e-20
1.02396974e-19
1.06035317e-19
1.103722046e-19
1.156435225e-19
1.220951335e-19
1.300525286e-19
1.399854412e-19
1.523953214e-19
1.679518119e-19
1.877158071e-19
2.126902396e-19
2.444900292e-19
2.856223591e-19
3.385354414e-19
4.083211989e-19
4.994756587e-19
6.212969178e-19
7.838710611e-19
1.005731887e-18
1.308033685e-18
1.73253556e-18
2.321365531e-18
3.189154001e-18
4.415395304e-18
6.218759612e-18
8.888559086e-18
1.274507293e-17
1.109852611e-16
2.993119515e-16
2.275776048e-15
2.609421064e-14
1.025346857e-12
7.435391336e-11
3.223500781e-09
4.863670085e-08
9.141491662e-20
9.367533405e-20
9.602697437e-20
9.854862057e-20
1.013377982e-19
1.045126103e-19
1.082171361e-19
1.126348871e-19
1.179951714e-19
1.24563783e-19
1.326800443e-19
1.427952333e-19
1.554443834e-19
1.71330904e-19
1.914488613e-19
2.169279162e-19
2.494175942e-19
2.913082794e-19
3.454026116e-19
4.163986286e-19
5.09484049e-19
6.335302219e-19
7.994988522e-19
1.025414999e-18
1.334280154e-18
1.766303567e-18
2.369976847e-18
3.250542773e-18
4.503491951e-18
6.341347873e-18
9.053304405e-18
1.299291297e-17
1.186164018e-16
3.094208428e-16
2.387269793e-15
3.565478858e-14
1.123593576e-12
9.541913654e-11
3.741009996e-09
5.324619589e-08
9.330967368e-20
9.562251284e-20
9.802469082e-20
1.005964582e-19
1.034373415e-19
1.066691872e-19
1.104414746e-19
1.149403998e-19
1.203960035e-19
1.270857764e-19
1.353589915e-19
1.456650677e-19
1.58560274e-19
1.747691843e-19
1.9526744e-19
2.212594296e-19
2.544278084e-19
2.9712912e-19
3.523640925e-19
4.246708058e-19
5.196568567e-19
6.460477802e-19
8.153927e-19
1.045591791e-18
1.360945881e-18
1.801110683e-18
2.418860874e-18
3.31376599e-18
4.593032356e-18
6.465750981e-18
9.22287019e-18
1.324419849e-17
1.263304605e-16
3.197432734e-16
2.501042808e-15
4.531675946e-14
1.222517756e-12
1.167054595e-10
4.263478224e-09
5.789222067e-08
9.523278481e-20
9.759949164e-20
1.000542178e-19
1.026786454e-19
1.055744039e-19
1.088665701e-19
1.127088057e-19
1.172907933e-19
1.228460582e-19
1.296605629e-19
1.380921406e-19
1.485951752e-19
1.617418572e-19
1.782735749e-19
1.991691465e-19
2.256829144e-19
2.595306031e-19
3.030748904e-19
3.594403274e-19
4.331245485e-19
5.300138362e-19
6.588387224e-19
8.315821173e-19
1.066238577e-18
1.388096372e-18
1.836838211e-18
2.468241006e-18
3.37866452e-18
4.684108713e-18
6.592198054e-18
9.396928063e-18
1.349913325e-17
1.3413844e-16
3.910228561e-16
2.617013956e-15
5.508269779e-14
1.386510689e-12
1.382103103e-10
4.790867274e-09
6.257505423e-08
9.718623825e-20
9.960823601e-20
1.02117349e-19
1.047966973e-19
1.077499962e-19
1.111052611e-19
1.150198553e-19
1.196873466e-19
1.253458053e-19
1.322884236e-19
1.408811511e-19
1.515861884e-19
1.649894675e-19
1.818479739e-19
2.031534055e-19
2.301982309e-19
2.647316793e-19
3.091421695e-19
3.666435714e-19
4.417547336e-19
5.405677017e-19
6.718997529e-19
8.480870436e-19
1.087345049e-18
1.415772787e-18
1.873416289e-18
2.518274709e-18
3.445135836e-18
4.776801909e-18
6.720862684e-18
9.57523943e-18
1.375790257e-17
1.420501861e-16
4.762566337e-16
2.735109986e-15
6.495500716e-14
2.118291296e-12
1.599323489e-10
5.323138298e-09
6.729488643e-08
9.917173903e-20
1.01650455e-19
1.042156858e-19
1.069520091e-19
1.099652004e-19
1.133860639e-19
1.173754754e-19
1.221310846e-19
1.278959371e-19
1.34970003e-19
1.437272593e-19
1.546389721e-19
1.683040204e-19
1.854948891e-19
2.072205899e-19
2.348061131e-19
2.700347915e-19
3.153307566e-19
3.739818495e-19
4.505605258e-19
5.513274499e-19
6.85231759e-19
8.649219335e-19
1.108908578e-18
1.444002176e-18
1.910806401e-18
2.569075172e-18
3.513117137e-18
4.871183823e-18
6.851878694e-18
9.757633586e-18
1.402067486e-17
1.50074232e-16
5.631115937e-16
3.49743204e-15
7.493766449e-14
2.856376171e-12
1.818686627e-10
5.860254789e-09
7.205183696e-08
1.011907934e-19
1.037276721e-19
1.063506876e-19
1.091459013e-19
1.122211402e-19
1.157099314e-19
1.197765969e-19
1.24622973e-19
1.30497277e-19
1.377061235e-19
1.466315616e-19
1.577545272e-19
1.71686658e-19
1.892161987e-19
2.113715872e-19
2.395077648e-19
2.754428247e-19
3.216420284e-19
3.814610018e-19
4.595433865e-19
5.623001328e-19
6.988379384e-19
8.820980968e-19
1.130930971e-18
1.472803618e-18
1.948990136e-18
2.620725873e-18
3.582573543e-18
4.967319164e-18
6.985351944e-18
9.943989862e-18
1.818708705e-17
1.582179534e-16
6.515767482e-16
4.45492732e-15
8.503363666e-14
3.601055202e-12
2.040167304e-10
6.402173546e-09
7.69032723e-08
1.032447647e-19
1.058412766e-19
1.085237104e-19
1.113796421e-19
1.145189594e-19
1.180778955e-19
1.222242078e-19
1.271639879e-19
1.331507366e-19
1.404977108e-19
1.49595127e-19
1.609339399e-19
1.751386153e-19
1.93013508e-19
2.156075824e-19
2.443046646e-19
2.809582993e-19
3.280781389e-19
3.89085745e-19
4.687060201e-19
5.734918016e-19
7.127227703e-19
8.996250469e-19
1.153416636e-18
1.502191866e-18
1.987961987e-18
2.673290401e-18
3.653489832e-18
5.065266952e-18
7.121368462e-18
1.013423651e-17
2.41007557e-17
1.6648753e-16
7.41647228e-16
5.428157883e-15
9.524542852e-14
4.352570446e-12
2.26374044e-10
7.292308992e-09
8.332228753e-08
1.053349123e-19
1.079925603e-19
1.107360351e-19
1.136544612e-19
1.168598102e-19
1.204910327e-19
1.247193405e-19
1.297551385e-19
1.358572945e-19
1.433457625e-19
1.526190425e-19
1.641783562e-19
1.786611748e-19
1.968883184e-19
2.199299475e-19
2.491984695e-19
2.865836039e-19
3.346416312e-19
3.968602239e-19
4.780518168e-19
5.849080071e-19
7.268914512e-19
9.17511284e-19
1.176371558e-18
1.532179472e-18
2.027724738e-18
2.726819061e-18
3.725864659e-18
5.165081746e-18
7.260001022e-18
1.032833871e-17
3.011194027e-17
1.748882637e-16
8.333207854e-16
6.416951155e-15
1.055753334e-13
5.111106912e-12
2.489395398e-10
8.367047326e-09
8.979114485e-08
1.0746242e-19
1.101827446e-19
1.129888879e-19
1.159715593e-19
1.192448469e-19
1.229504479e-19
1.27263064e-19
1.323974716e-19
1.386179841e-19
1.462513328e-19
1.557044291e-19
1.674889708e-19
1.822556543e-19
2.008421086e-19
2.243401833e-19
2.541909647e-19
2.923211026e-19
3.413352535e-19
4.047883016e-19
4.875845566e-19
5.965540654e-19
7.413495903e-19
9.357647575e-19
1.199802731e-18
1.56277802e-18
2.068286523e-18
2.78135333e-18
3.799706494e-18
5.266814677e-18
7.401313622e-18
1.052628616e-17
3.622368433e-17
1.834248414e-16
9.265975276e-16
7.421187419e-15
1.160254668e-13
5.876795406e-12
3.114971964e-10
9.451254868e-09
9.630953259e-08
1.09628417e-19
1.12413e-19
1.152834554e-19
1.18332116e-19
1.216752247e-19
1.254572657e-19
1.298564778e-19
1.350920717e-19
1.414338862e-19
1.492155258e-19
1.588524478e-19
1.708670217e-19
1.859234069e-19
2.048763731e-19
2.288398897e-19
2.592840365e-19
2.981731821e-19
3.481618713e-19
4.12873712e-19
4.973082524e-19
6.084351985e-19
7.561030477e-19
9.543931419e-19
1.223717847e-18
1.593998816e-18
2.109658961e-18
2.836928855e-18
3.875030784e-18
5.370514292e-18
7.545364572e-18
1.072808796e-17
4.243890362e-17
1.921014501e-16
1.021479597e-15
8.44078521e-15
1.265976466e-13
6.649823431e-12
3.862205672e-10
1.054487942e-08
1.028771397e-07
1.118339932e-19
1.146844606e-19
1.176208965e-19
1.207372961e-19
1.241521002e-19
1.280126273e-19
1.325007085e-19
1.378400576e-19
1.443061239e-19
1.522394903e-19
1.620643009e-19
1.743137896e-19
1.896658239e-19
2.089926417e-19
2.33430748e-19
2.644796567e-19
3.04142273e-19
3.551244286e-19
4.211201418e-19
5.072270679e-19
6.205566101e-19
7.711578511e-19
9.734040069e-19
1.248125124e-18
1.625853262e-18
2.151855968e-18
2.89357748e-18
3.951857967e-18
5.476227248e-18
7.692208741e-18
1.093376851e-17
4.876039739e-17
2.009218715e-16
1.117970826e-15
9.475689458e-15
1.372934285e-13
7.430372099e-12
4.616372928e-10
1.164785019e-08
1.094935496e-07
1.140802106e-19
1.169982352e-19
1.200023512e-19
1.231882556e-19
1.266766329e-19
1.306176884e-19
1.351969074e-19
1.406425806e-19
1.472358592e-19
1.553244173e-19
1.653412325e-19
1.778305972e-19
1.934843375e-19
2.131924891e-19
2.381145121e-19
2.69779873e-19
3.102308583e-19
3.622259309e-19
4.295312756e-19
5.173452742e-19
6.329235269e-19
7.865201566e-19
9.928049237e-19
1.273033214e-18
1.658353054e-18
2.194893018e-18
2.951328607e-18
4.030212083e-18
5.583998882e-18
7.841899148e-18
1.114336416e-17
5.519086393e-17
2.098895596e-16
1.216076453e-15
1.052585972e-14
1.481140314e-13
8.218592712e-12
5.377494923e-10
1.276009285e-08
1.164369957e-07
1.163681122e-19
1.19355416e-19
1.224289477e-19
1.256861462e-19
1.292499873e-19
1.332736195e-19
1.379462488e-19
1.435008227e-19
1.502242906e-19
1.584715378e-19
1.686845278e-19
1.814188095e-19
1.973804242e-19
2.174775386e-19
2.428930023e-19
2.751868027e-19
3.164414769e-19
3.694694386e-19
4.381108205e-19
5.276672279e-19
6.455412223e-19
8.021962326e-19
1.012603533e-18
1.298451154e-18
1.691510271e-18
2.238786671e-18
3.010210117e-18
4.110119817e-18
5.693873678e-18
7.99448806e-18
1.135692075e-17
6.173291401e-17
2.190077044e-16
1.315802968e-15
1.159125706e-14
1.590601702e-13
9.014608624e-12
6.145591191e-10
1.388153055e-08
1.249383287e-07
1.186987294e-19
1.217570851e-19
1.249018085e-19
1.282321197e-19
1.318733354e-19
1.359816065e-19
1.407499302e-19
1.464159952e-19
1.532726517e-19
1.616821217e-19
1.720955133e-19
1.850798349e-19
2.013556056e-19
2.218494652e-19
2.477681016e-19
2.807026287e-19
3.227767252e-19
3.768580655e-19
4.468625213e-19
5.381973616e-19
6.584150321e-19
8.181924568e-19
1.032807593e-18
1.324388335e-18
1.725337416e-18
2.283554287e-18
3.070248996e-18
4.191609829e-18
5.805895655e-18
8.150027756e-18
1.157449156e-17
6.838908271e-17
2.282792873e-16
1.41715825e-15
1.267183041e-14
1.757700662e-13
1.066881913e-11
6.92067434e-10
1.553848487e-08
1.335015214e-07
1.210730867e-19
1.242043202e-19
1.274220545e-19
1.308273314e-19
1.345478587e-19
1.387428512e-19
1.436091714e-19
1.493893382e-19
1.5638221e-19
1.649574768e-19
1.755755561e-19
1.888151252e-19
2.054114503e-19
2.263099959e-19
2.527417536e-19
2.863295972e-19
3.292392574e-19
3.843949797e-19
4.557901702e-19
5.489401795e-19
6.715503644e-19
8.345153187e-19
1.053425007e-18
1.350854488e-18
1.759847418e-18
2.329213849e-18
3.131471757e-18
4.274712306e-18
5.920108668e-18
8.308571035e-18
1.179613583e-17
7.516183972e-17
2.377071271e-16
1.520151983e-15
1.376751593e-14
2.625677966e-13
1.522254688e-11
7.702798441e-10
1.748971642e-08
1.421260901e-07
1.234922068e-19
1.266981985e-19
1.299908096e-19
1.334729436e-19
1.372747506e-19
1.415585729e-19
1.465252156e-19
1.524221205e-19
1.595542661e-19
1.682989484e-19
1.791260642e-19
1.92626176e-19
2.095495744e-19
2.308609107e-19
2.578159608e-19
2.920700157e-19
3.358317863e-19
3.920834048e-19
4.648976128e-19
5.599002581e-19
6.849527085e-19
8.511714264e-19
1.074463849e-18
1.377859669e-18
1.795053634e-18
2.37578386e-18
3.193904734e-18
4.359458649e-18
6.036556662e-18
8.470171545e-18
1.202191753e-17
8.205359764e-17
2.472939065e-16
1.624794113e-15
1.487843423e-14
3.503692146e-13
1.982215576e-11
8.491972672e-10
1.945690917e-08
1.508112956e-07
1.259571139e-19
1.29239801e-19
1.326092039e-19
1.361701281e-19
1.400552183e-19
1.444300098e-19
1.494993296e-19
1.555156392e-19
1.627901542e-19
1.717079188e-19
1.827484864e-19
1.965145272e-19
2.137716421e-19
2.355040419e-19
2.629927835e-19
2.979262517e-19
3.425570836e-19
3.99926622e-19
4.741887534e-19
5.710822472e-19
6.986276421e-19
8.681675137e-19
1.095932378e-18
1.405414258e-18
1.830969831e-18
2.423283273e-18
3.257574277e-18
4.445881271e-18
6.155283863e-18
8.634883979e-18
1.225190437e-17
8.906671824e-17
2.570421975e-16
1.731096084e-15
1.600470778e-14
4.391878657e-13
2.446768942e-11
9.837757344e-10
2.14400852e-08
1.595568546e-07
1.284688367e-19
1.318302147e-19
1.352783762e-19
1.389200688e-19
1.428904851e-19
1.4735842e-19
1.525328048e-19
1.586712206e-19
1.660912415e-19
1.751858079e-19
1.864443123e-19
2.004817632e-19
2.180793658e-19
2.40241275e-19
2.682743393e-19
3.039007325e-19
3.494179807e-19
4.079279722e-19
4.836675591e-19
5.824908734e-19
7.125808377e-19
8.855104478e-19
1.117839049e-18
1.433528945e-18
1.867610181e-18
2.471731468e-18
3.322506895e-18
4.534013458e-18
6.276334925e-18
8.802764166e-18
1.248616705e-17
9.620351596e-17
2.669544784e-16
1.839070209e-15
1.71464591e-14
5.290368645e-13
2.915938593e-11
1.20198042e-09
2.343921241e-08
1.694101737e-07
1.310284111e-19
1.344705361e-19
1.379994769e-19
1.41723964e-19
1.457817917e-19
1.503450828e-19
1.556269579e-19
1.618902207e-19
1.69458929e-19
1.787340726e-19
1.902150728e-19
2.04529513e-19
2.224745069e-19
2.450745481e-19
2.736628026e-19
3.09995945e-19
3.56417369e-19
4.160908578e-19
4.933380636e-19
5.941309436e-19
7.268180693e-19
9.032072369e-19
1.140192523e-18
1.462214736e-18
1.904989244e-18
2.521148229e-18
3.388729354e-18
4.623889288e-18
6.399755045e-18
8.973869087e-18
1.272477855e-17
1.034662573e-16
2.770331369e-16
1.948729141e-15
1.830380734e-14
6.199280296e-13
3.389781696e-11
1.422134127e-09
2.545419086e-08
1.803076574e-07
1.336368826e-19
1.371618727e-19
1.407736699e-19
1.445830283e-19
1.487303983e-19
1.533913007e-19
1.587831321e-19
1.651740253e-19
1.728946515e-19
1.82354208e-19
1.9406234e-19
2.08659451e-19
2.269588754e-19
2.500058523e-19
2.791604045e-19
3.162144352e-19
3.635582016e-19
4.244187452e-19
5.032043706e-19
6.060073491e-19
7.413452181e-19
9.212650375e-19
1.163001675e-18
1.491482941e-18
1.943121964e-18
2.571553737e-18
3.456268751e-18
4.71554357e-18
6.525590026e-18
9.14825681e-18
1.296781353e-17
1.108571542e-16
2.872804587e-16
2.060085176e-15
1.947686196e-14
7.118725866e-13
3.868345855e-11
1.64423304e-09
2.751577642e-08
1.912792426e-07
1.362953074e-19
1.399053455e-19
1.436021348e-19
1.474984943e-19
1.51737586e-19
1.564984001e-19
1.620026981e-19
1.685240516e-19
1.763998784e-19
1.86047747e-19
1.979877277e-19
2.128732968e-19
2.315343307e-19
2.550372319e-19
2.847694328e-19
3.225588093e-19
3.708434939e-19
4.32915167e-19
5.132706575e-19
6.181250693e-19
7.561682784e-19
9.396911607e-19
1.186275598e-18
1.521345179e-18
1.982023662e-18
2.622968575e-18
3.525152566e-18
4.809011813e-18
6.65388632e-18
9.325986335e-18
1.321534763e-17
1.183783467e-16
2.976986043e-16
2.173149214e-15
2.066571302e-14
8.048811484e-13
4.351670506e-11
1.868271831e-09
3.067527783e-08
2.023248329e-07
1.390047552e-19
1.427020904e-19
1.464860684e-19
1.504716144e-19
1.548046584e-19
1.596677327e-19
1.652870551e-19
1.719417483e-19
1.799761146e-19
1.898162614e-19
2.019928923e-19
2.171728159e-19
2.362027817e-19
2.601707844e-19
2.904922324e-19
3.290317336e-19
3.782763248e-19
4.41583724e-19
5.235411782e-19
6.304891765e-19
7.712933632e-19
9.584930786e-19
1.210023609e-18
1.551813374e-18
2.021710033e-18
2.675413731e-18
3.595408701e-18
4.9043302e-18
6.784691029e-18
9.5071173e-18
1.346745688e-17
1.260318679e-16
3.082895741e-16
2.287929378e-15
2.187039753e-14
8.989638709e-13
4.839780323e-11
2.094267534e-09
3.385940177e-08
2.134443331e-07
1.417663096e-19
1.455532599e-19
1.494266865e-19
1.535036625e-19
1.579329432e-19
1.62900677e-19
1.686376319e-19
1.754285971e-19
1.836249005e-19
1.936613623e-19
2.060795327e-19
2.215598201e-19
2.409661872e-19
2.654086611e-19
2.963312055e-19
3.356359356e-19
3.858598384e-19
4.504280875e-19
5.340202671e-19
6.431048397e-19
7.867267093e-19
9.776784298e-19
1.234255255e-18
1.582899753e-18
2.062197143e-18
2.728910604e-18
3.667065514e-18
5.001535585e-18
6.918051894e-18
9.691709437e-18
1.372421692e-17
1.338195831e-16
3.190550601e-16
2.404429253e-15
3.123140657e-14
9.941311175e-13
5.332683009e-11
2.322235705e-09
3.70681103e-08
2.24856572e-07
1.445810704e-19
1.484600248e-19
1.524252252e-19
1.565959352e-19
1.61123793e-19
1.661986395e-19
1.720558882e-19
1.789861132e-19
1.873478138e-19
1.975847006e-19
2.10249391e-19
2.26036168e-19
2.458265566e-19
2.707530674e-19
3.022888126e-19
3.423742048e-19
3.935972452e-19
4.594520019e-19
5.447123417e-19
6.55977329e-19
8.02474683e-19
9.972550251e-19
1.258980311e-18
1.614616851e-18
2.10350143e-18
2.783481014e-18
3.740151848e-18
5.100665486e-18
7.054017334e-18
9.879821603e-18
1.39857014e-17
1.417430822e-16
3.887387873e-16
2.522674288e-15
4.076932203e-14
1.090379353e-12
6.477923243e-11
2.552190567e-09
4.030141364e-08
2.385537024e-07
1.474501542e-19
1.514235751e-19
1.554829424e-19
1.597497531e-19
1.643785874e-19
1.695630559e-19
1.755433154e-19
1.826158468e-19
1.911464696e-19
2.015879683e-19
2.145042535e-19
2.306037656e-19
2.507859501e-19
2.762062634e-19
3.083675727e-19
3.492493935e-19
4.014918238e-19
4.686592868e-19
5.556219067e-19
6.691120199e-19
8.185437842e-19
1.017230852e-18
1.284208792e-18
1.646977508e-18
2.145639705e-18
2.839147209e-18
3.814697053e-18
5.201758123e-18
7.192636706e-18
1.007150983e-17
1.736864209e-17
1.498047075e-16
4.769947186e-16
2.642680554e-15
5.043284753e-14
1.187708718e-12
8.607210727e-11
2.962433936e-09
4.355945376e-08
2.523397578e-07
1.503746956e-19
1.544451212e-19
1.586011191e-19
1.629664623e-19
1.676987337e-19
1.72995392e-19
1.79101438e-19
1.863193833e-19
1.950225214e-19
2.056728987e-19
2.188459513e-19
2.35264567e-19
2.558464796e-19
2.81770565e-19
3.145700642e-19
3.562644184e-19
4.095469228e-19
4.780538398e-19
5.667535564e-19
6.825143971e-19
8.349406519e-19
1.037614081e-18
1.309950953e-18
1.679994874e-18
2.188629156e-18
2.89593188e-18
3.89073101e-18
5.304852428e-18
7.333960179e-18
1.026683645e-17
2.327913358e-17
1.580068213e-16
5.666824867e-16
2.785446265e-15
6.022269029e-14
1.286124864e-12
1.075734638e-10
3.49104632e-09
4.684218383e-08
2.662147773e-07
1.533558488e-19
1.575258957e-19
1.617810604e-19
1.662474359e-19
1.710856683e-19
1.764971455e-19
1.827318144e-19
1.900983453e-19
1.989776624e-19
2.098412676e-19
2.232763608e-19
2.400205752e-19
2.610103096e-19
2.874483438e-19
3.208989263e-19
3.634222612e-19
4.177659619e-19
4.876396385e-19
5.781119786e-19
6.961900586e-19
8.516720687e-19
1.058413067e-18
1.336217289e-18
1.713682409e-18
2.232487352e-18
2.953858167e-18
3.968284155e-18
5.409988067e-18
7.478038929e-18
1.046587016e-17
2.929797632e-17
1.663516276e-16
6.578107368e-16
3.753609433e-15
7.013947742e-14
1.848590208e-12
1.292866878e-10
4.024190495e-09
5.117390482e-08
2.801792964e-07
1.563947876e-19
1.606671538e-19
1.650240969e-19
1.695940743e-19
1.745408579e-19
1.800698467e-19
1.864360384e-19
1.939543929e-19
2.030136263e-19
2.14094894e-19
2.27797405e-19
2.448738428e-19
2.662796575e-19
2.932420289e-19
3.273568595e-19
3.707259706e-19
4.261524348e-19
4.974207435e-19
5.897019579e-19
7.101447201e-19
8.687449649e-19
1.079636359e-18
1.363018546e-18
1.748053889e-18
2.277232247e-18
3.012949676e-18
4.047387497e-18
5.517205487e-18
7.624925409e-18
1.066868034e-17
3.542700077e-17
1.748412859e-16
7.504018518e-16
4.736006761e-15
8.018406706e-14
2.581468541e-12
1.512131911e-10
4.561874668e-09
5.592107758e-08
2.942331497e-07
1.594927076e-19
1.638701745e-19
1.683315857e-19
1.730078075e-19
1.780658008e-19
1.837150598e-19
1.902157401e-19
1.978892251e-19
2.071321882e-19
2.184356414e-19
2.324110539e-19
2.498264728e-19
2.716567949e-19
2.991541074e-19
3.339466269e-19
3.781786635e-19
4.347099102e-19
5.074013004e-19
6.015283786e-19
7.243842185e-19
8.861664237e-19
1.101292699e-18
1.390365722e-18
1.783123408e-18
2.322882187e-18
3.073230486e-18
4.128072646e-18
5.626545947e-18
7.774673255e-18
1.087533751e-17
4.166808399e-17
1.834780157e-16
8.444772383e-16
5.732770318e-15
9.035772219e-14
3.322536042e-12
1.733535032e-10
5.104118983e-09
6.07034923e-08
3.11047231e-07
1.626508258e-19
1.67136262e-19
1.717049115e-19
1.764900955e-19
1.81662028e-19
1.874343841e-19
1.940725872e-19
2.019045811e-19
2.113351657e-19
2.228654185e-19
2.37119326e-19
2.548806198e-19
2.771440486e-19
3.051871255e-19
3.406710557e-19
3.857835267e-19
4.434420344e-19
5.175855433e-19
6.135962282e-19
7.389145161e-19
9.03943685e-19
1.123391032e-18
1.41827007e-18
1.818905383e-18
2.369455916e-18
3.134725164e-18
4.210371823e-18
5.738051531e-18
7.92733722e-18
1.108591292e-17
4.802312948e-17
1.922640685e-16
9.40057758e-16
6.744042401e-15
1.006616134e-13
4.071840455e-12
1.95707874e-10
5.650937937e-09
6.55212265e-08
3.284425282e-07
1.658703826e-19
1.704667461e-19
1.751454877e-19
1.800424294e-19
1.853311041e-19
1.912294552e-19
1.98008286e-19
2.060022409e-19
2.156244203e-19
2.273861804e-19
2.41924289e-19
2.600384911e-19
2.827438015e-19
3.113436897e-19
3.475330385e-19
3.935438181e-19
4.523525331e-19
5.279777965e-19
6.259106007e-19
7.537417043e-19
9.220841499e-19
1.145940505e-18
1.446743103e-18
1.855414559e-18
2.416972582e-18
3.19745878e-18
4.294317884e-18
5.851765163e-18
8.082973143e-18
1.130047876e-17
5.449406839e-17
2.012017204e-16
1.037163913e-15
7.769964497e-15
1.110968243e-13
4.829418661e-12
2.182760943e-10
6.202340163e-09
7.037435584e-08
3.459464913e-07
1.691526418e-19
1.738629836e-19
1.786547574e-19
1.83666333e-19
1.89074629e-19
1.951019462e-19
2.020245826e-19
2.101840271e-19
2.200018581e-19
2.319999295e-19
2.468280611e-19
2.653023473e-19
2.884584937e-19
3.176264683e-19
3.545355344e-19
4.014628691e-19
4.614452139e-19
5.38582478e-19
6.384766999e-19
7.688720078e-19
9.405953852e-19
1.168950476e-18
1.475796601e-18
1.892666015e-18
2.465451749e-18
3.261456911e-18
4.379944335e-18
5.967730614e-18
8.241637933e-18
1.151910821e-17
6.108285808e-17
2.10293267e-16
1.135815831e-15
8.810674643e-15
1.216643547e-13
5.595292475e-12
2.410571833e-10
6.921022112e-09
7.526296304e-08
3.635593388e-07
1.724988918e-19
1.77326359e-19
1.822341946e-19
1.873633637e-19
1.928942385e-19
1.990535687e-19
2.061232643e-19
2.144518056e-19
2.244694312e-19
2.367087172e-19
2.518328118e-19
2.70674504e-19
2.942906239e-19
3.240381924e-19
3.616815709e-19
4.095440861e-19
4.707239682e-19
5.494041016e-19
6.51299843e-19
7.843117881e-19
9.594851277e-19
1.192430517e-18
1.505442614e-18
1.930675167e-18
2.514913401e-18
3.326745663e-18
4.467285345e-18
6.085992511e-18
8.40338955e-18
1.174187548e-17
6.779148065e-17
2.19541018e-16
1.236033219e-15
9.866304027e-15
1.323651296e-13
6.369462052e-12
2.865853495e-10
8.013521705e-09
8.134244791e-08
3.812814363e-07
1.759104465e-19
1.808582856e-19
1.85885305e-19
1.911351132e-19
1.967916059e-19
2.030860744e-19
2.103061605e-19
2.188074871e-19
2.29029139e-19
2.415146443e-19
2.569407636e-19
2.761573329e-19
3.002427508e-19
3.305816573e-19
3.689742453e-19
4.177909524e-19
4.801927736e-19
5.604472805e-19
6.643854633e-19
8.000675477e-19
9.787612883e-19
1.216390417e-18
1.535693465e-18
1.969457779e-18
2.565377951e-18
3.393351676e-18
4.556375764e-18
6.206596347e-18
8.568286995e-18
1.196885581e-17
7.462194121e-17
2.289472917e-16
1.337835329e-15
1.093697148e-14
1.431999035e-13
7.151959316e-12
3.620345798e-10
9.115185028e-09
8.793219149e-08
4.024098682e-07
1.793886459e-19
1.844602061e-19
1.89609627e-19
1.949832095e-19
2.007684429e-19
2.072012558e-19
2.145751445e-19
2.232530282e-19
2.336830293e-19
2.464198632e-19
2.62154193e-19
2.817532628e-19
3.06317494e-19
3.372597244e-19
3.764167266e-19
4.262070303e-19
4.898556966e-19
5.717167291e-19
6.777391142e-19
8.161459339e-19
9.984319567e-19
1.240840191e-18
1.566561761e-18
2.009029963e-18
2.616866251e-18
3.46130214e-18
4.647251132e-18
6.329588477e-18
8.736390293e-18
1.220012548e-17
8.157626622e-17
2.385144123e-16
1.441240964e-15
1.202277486e-14
1.541691367e-13
7.942878347e-12
4.381970338e-10
1.022600672e-08
9.456941469e-08
4.246222679e-07
1.829348567e-19
1.881335939e-19
1.934087331e-19
1.989093169e-19
2.048265009e-19
2.114009478e-19
2.18932134e-19
2.277904328e-19
2.384331999e-19
2.514265785e-19
2.674754317e-19
2.874647815e-19
3.125175359e-19
3.440753222e-19
3.840122571e-19
4.347959629e-19
4.997168944e-19
5.832172669e-19
6.913664725e-19
8.325537429e-19
1.018505406e-18
1.265790081e-18
1.598060393e-18
2.049408193e-18
2.669399603e-18
3.530624805e-18
4.739947692e-18
6.455016129e-18
8.907760468e-18
1.243576176e-17
8.865650166e-17
2.482447088e-16
1.546268669e-15
1.312378008e-14
1.652727853e-13
8.742302507e-12
5.150775319e-10
1.134598384e-08
1.012540403e-07
4.469691354e-07
1.865504737e-19
1.918799539e-19
1.972842304e-19
2.029151383e-19
2.089675724e-19
2.156870291e-19
2.23379093e-19
2.324217535e-19
2.432817993e-19
2.565370486e-19
2.729068685e-19
2.932944368e-19
3.188456231e-19
3.510314487e-19
3.917641543e-19
4.435614766e-19
5.097806181e-19
5.949538209e-19
7.052733414e-19
8.492979235e-19
1.038990096e-18
1.291250562e-18
1.630202546e-18
2.090609308e-18
2.722999763e-18
3.601347991e-18
4.8345024e-18
6.582927387e-18
9.082459503e-18
1.267584287e-17
9.58647105e-17
2.581405175e-16
1.652937359e-15
1.424000744e-14
2.252027411e-13
9.550299898e-12
5.926810232e-10
1.24751063e-08
1.079859963e-07
4.694503814e-07
1.902369199e-19
1.957008233e-19
2.012377623e-19
2.070024153e-19
2.131934918e-19
2.200614229e-19
2.279180331e-19
2.371490928e-19
2.48231029e-19
2.617535872e-19
2.784509502e-19
2.992448382e-19
3.253045681e-19
3.581311724e-19
3.996758129e-19
4.525073831e-19
5.200512147e-19
6.069314288e-19
7.194656548e-19
8.663855813e-19
1.05989468e-18
1.317232349e-18
1.663001703e-18
2.132650519e-18
2.777688956e-18
3.673500602e-18
4.930952931e-18
6.713371184e-18
9.260550262e-18
1.292044783e-17
1.032029686e-16
2.682041735e-16
1.761265641e-15
1.537159221e-14
3.133591918e-13
1.374402286e-11
6.710131954e-10
1.361334875e-08
1.14765183e-07
4.920659619e-07
1.939956477e-19
1.995977727e-19
2.052710088e-19
2.111729303e-19
2.17506137e-19
2.245260989e-19
2.325510146e-19
2.419746046e-19
2.532831442e-19
2.670785646e-19
2.841101833e-19
3.053186585e-19
3.318972506e-19
3.653776344e-19
4.077507067e-19
4.616375817e-19
5.305331301e-19
6.191552419e-19
7.339494802e-19
8.838239829e-19
1.081228008e-18
1.3437464e-18
1.69647165e-18
2.175549419e-18
2.833489882e-18
3.747112136e-18
5.029337684e-18
6.846397265e-18
9.442096353e-18
1.316965626e-17
1.106733579e-16
2.784379986e-16
1.871272133e-15
1.651872278e-14
4.025784235e-13
1.83727235e-11
7.500706099e-10
1.510803654e-08
1.233170903e-07
5.1982585e-07
1.978281396e-19
2.035724067e-19
2.093856883e-19
2.154285068e-19
2.219074307e-19
2.290830744e-19
2.372801481e-19
2.469004957e-19
2.584404557e-19
2.725144097e-19
2.898871358e-19
3.115186354e-19
3.386266195e-19
3.727740505e-19
4.159923907e-19
4.709560616e-19
5.412309118e-19
6.316305285e-19
7.487310227e-19
9.016205598e-19
1.102999131e-18
1.370803924e-18
1.730626486e-18
2.219323989e-18
2.890425727e-18
3.822212688e-18
5.129695778e-18
6.982056142e-18
9.627161863e-18
1.342354797e-17
1.182779557e-16
2.888442822e-16
1.982975618e-15
1.768157725e-14
4.928724895e-13
2.305049316e-11
8.298510806e-10
1.70877952e-08
1.320220135e-07
5.486004202e-07
2.017359089e-19
2.076263655e-19
2.135835583e-19
2.197710115e-19
2.263993415e-19
2.337344155e-19
2.421075958e-19
2.519290273e-19
2.637053312e-19
2.780636108e-19
2.957844386e-19
3.17847573e-19
3.454956949e-19
3.803237128e-19
4.244045034e-19
4.804669046e-19
5.521492112e-19
6.443626768e-19
7.638166282e-19
9.197829132e-19
1.125217307e-18
1.398416384e-18
1.765480626e-18
2.263992606e-18
2.94852017e-18
3.898832969e-18
5.232067059e-18
7.120399035e-18
9.815810834e-18
1.368220215e-17
1.260188175e-16
2.994252414e-16
2.096394554e-15