/*--------------------------------*- C++ -*----------------------------------*\
| =========                 |                                                 |
| \\      /  F ield         | OpenFOAM: The Open Source CFD Toolbox           |
|  \\    /   O peration     | Version:  v2006                                 |
|   \\  /    A nd           | Website:  www.openfoam.com                      |
|    \\/     M anipulation  |                                                 |
\*---------------------------------------------------------------------------*/
FoamFile
{
    version     2.0;
    format      ascii;
    class       volScalarField;
    location    "0.15";
    object      H2;
}
// * * * * * * * * * * * * * * * * * * * * * * * * * * * * * * * * * * * * * //

dimensions      [0 0 0 0 0 0 0];


internalField   nonuniform List<scalar> 
168000
(
2.51822369e-07
2.521489923e-07
2.526128759e-07
2.53310304e-07
2.548792253e-07
2.577014848e-07
2.610862083e-07
2.653642666e-07
2.736132327e-07
2.839613371e-07
2.960016481e-07
3.147107383e-07
3.387628125e-07
3.662124318e-07
4.083712348e-07
4.588612295e-07
5.205314805e-07
6.115110307e-07
7.13714011e-07
8.691790867e-07
1.05290352e-06
1.318043803e-06
1.652002134e-06
2.134445164e-06
2.751804019e-06
3.689635369e-06
4.848257431e-06
6.788080254e-06
9.318192885e-06
1.312310097e-05
1.895707036e-05
2.694866226e-05
3.926055052e-05
5.81560318e-05
8.476281119e-05
0.0001217478586
0.000174429752
0.0002475500489
0.0003429436887
0.0004645396606
2.574313297e-07
2.576099088e-07
2.579900898e-07
2.58738293e-07
2.602279447e-07
2.627400949e-07
2.662229147e-07
2.71132889e-07
2.789100355e-07
2.892108002e-07
3.023172321e-07
3.208277581e-07
3.448281192e-07
3.744563162e-07
4.158333915e-07
4.673539704e-07
5.322649778e-07
6.217545155e-07
7.304767298e-07
8.841890056e-07
1.075851434e-06
1.341969824e-06
1.687255812e-06
2.172487659e-06
2.812521288e-06
3.749298748e-06
4.968420099e-06
6.902870793e-06
9.509296837e-06
1.339668892e-05
1.927539633e-05
2.748964922e-05
4.004393809e-05
5.912146374e-05
8.609707787e-05
0.0001237577042
0.000177156806
0.000250829932
0.0003470096851
0.0004695231029
2.629963294e-07
2.631251735e-07
2.634579714e-07
2.641938079e-07
2.656210179e-07
2.680121519e-07
2.715659495e-07
2.767464526e-07
2.844068728e-07
2.947941118e-07
3.084831091e-07
3.271035844e-07
3.51375707e-07
3.823063155e-07
4.23736e-07
4.763139657e-07
5.435001326e-07
6.332121403e-07
7.463688248e-07
9.005838651e-07
1.098290408e-06
1.367326939e-06
1.722049749e-06
2.212956798e-06
2.871785193e-06
3.815414341e-06
5.083532515e-06
7.026139389e-06
9.70242148e-06
1.366978058e-05
1.961139959e-05
2.803607001e-05
4.082816813e-05
6.011153994e-05
8.746997812e-05
0.0001257869356
0.0001798891607
0.00025415172
0.0003511172939
0.0004745431025
2.685843042e-07
2.686944172e-07
2.689982029e-07
2.697101291e-07
2.710963674e-07
2.734422509e-07
2.7704809e-07
2.823700951e-07
2.900540746e-07
3.005835262e-07
3.146607736e-07
3.335299914e-07
3.582051003e-07
3.90058537e-07
4.319427841e-07
4.855969422e-07
5.546100626e-07
6.453870085e-07
7.619471242e-07
9.17871257e-07
1.120656645e-06
1.393714302e-06
1.756880262e-06
2.255217454e-06
2.930693246e-06
3.88619625e-06
5.195898083e-06
7.156150574e-06
9.897978118e-06
1.394410237e-05
1.99626469e-05
2.8588653e-05
4.161580861e-05
6.112559701e-05
8.887864971e-05
0.0001278361322
0.0001826314301
0.0002575127675
0.000355266123
0.0004796012199
2.74225884e-07
2.743268673e-07
2.746115944e-07
2.753027613e-07
2.766650058e-07
2.789983742e-07
2.826479006e-07
2.880669485e-07
2.958322811e-07
3.065285478e-07
3.209184598e-07
3.401009558e-07
3.652336827e-07
3.978501192e-07
4.403888575e-07
4.951361453e-07
5.657749216e-07
6.580371149e-07
7.775017794e-07
9.357957672e-07
1.143188134e-06
1.420916525e-06
1.792037311e-06
2.298909821e-06
2.989910165e-06
3.960509623e-06
5.307081466e-06
7.29171302e-06
1.009630529e-05
1.422092874e-05
2.032730662e-05
2.914803569e-05
4.240897667e-05
6.216305163e-05
9.032070224e-05
0.0001299059521
0.0001853872598
0.0002609112955
0.0003594561964
0.0004846985782
2.799365371e-07
2.800319787e-07
2.803037239e-07
2.809801487e-07
2.823305005e-07
2.846674501e-07
2.883590198e-07
2.938616783e-07
3.01734154e-07
3.126098183e-07
3.272853963e-07
3.468133059e-07
3.724288453e-07
4.057456163e-07
4.490436275e-07
5.049014123e-07
5.770823842e-07
6.710465365e-07
7.931860103e-07
9.542267047e-07
1.166016735e-06
1.448820716e-06
1.82769331e-06
2.343834004e-06
3.049838004e-06
4.037639245e-06
5.41815087e-06
7.432014075e-06
1.029768751e-05
1.450120205e-05
2.070400675e-05
2.97147847e-05
4.32094147e-05
6.32233865e-05
9.17942551e-05
0.0001319971978
0.0001881597954
0.0002643465601
0.0003636871585
0.0004898358519
2.85726054e-07
2.85817793e-07
2.86080662e-07
2.867479054e-07
2.880948821e-07
2.904447664e-07
2.941801607e-07
2.997644332e-07
3.077573196e-07
3.188204863e-07
3.337746011e-07
3.536660674e-07
3.797789504e-07
4.137763048e-07
4.578932006e-07
5.148798993e-07
5.885760481e-07
6.843615804e-07
8.090826211e-07
9.730991061e-07
1.189217587e-06
1.477370622e-06
1.863953692e-06
2.389882551e-06
3.110720619e-06
4.117140071e-06
5.529840853e-06
7.576505249e-06
1.050236786e-05
1.478562202e-05
2.1091727e-05
3.028941042e-05
4.401854893e-05
6.430611861e-05
9.329793084e-05
0.0001341106213
0.0001909514485
0.0002678178809
0.0003679586636
0.0004950138379
2.91601786e-07
2.91691016e-07
2.919479513e-07
2.926104679e-07
2.93960202e-07
2.963293844e-07
3.001118693e-07
3.057799427e-07
3.139015652e-07
3.251587472e-07
3.403924317e-07
3.606596986e-07
3.872810125e-07
4.219581458e-07
4.669319452e-07
5.250670256e-07
6.002786527e-07
6.979591899e-07
8.252381437e-07
9.923827213e-07
1.212835586e-06
1.506541279e-06
1.900885667e-06
2.437001218e-06
3.172707481e-06
4.19874076e-06
5.642661769e-06
7.724822732e-06
1.071055691e-05
1.507471246e-05
2.14897163e-05
3.087237856e-05
4.483753338e-05
6.541086732e-05
9.483065703e-05
0.0001362467856
0.0001937641133
0.0002713248386
0.0003722703995
0.0005002328472
2.975697575e-07
2.976573367e-07
2.979105116e-07
2.985717384e-07
2.999288026e-07
3.023221298e-07
3.061554624e-07
3.119109899e-07
3.201676924e-07
3.316248793e-07
3.471425696e-07
3.677955162e-07
3.949355417e-07
4.303000328e-07
4.76158397e-07
5.354622326e-07
6.122031639e-07
7.1183135e-07
8.416803918e-07
1.012065687e-06
1.236899556e-06
1.536325e-06
1.938534584e-06
2.485166298e-06
3.235892436e-06
4.282281548e-06
5.756973306e-06
7.876732078e-06
1.092243936e-05
1.536887017e-05
2.189742891e-05
3.146411275e-05
4.566740075e-05
6.653735502e-05
9.639146545e-05
0.0001384062165
0.0001965996245
0.0002748672145
0.0003766220486
0.0005054930914
3.036351326e-07
3.037217009e-07
3.039727513e-07
3.046353376e-07
3.060032682e-07
3.084246911e-07
3.123126608e-07
3.181597331e-07
3.265570355e-07
3.382200717e-07
3.540276721e-07
3.750753343e-07
4.027444248e-07
4.388076021e-07
4.855732509e-07
5.460669917e-07
6.243580398e-07
7.259774108e-07
8.584275066e-07
1.032145915e-06
1.261429838e-06
1.566723634e-06
1.976933262e-06
2.534371615e-06
3.300337097e-06
4.367674279e-06
5.873033952e-06
8.032089615e-06
1.113817937e-05
1.5668401e-05
2.23144743e-05
3.206499786e-05
4.650904599e-05
6.768526794e-05
9.797963513e-05
0.0001405897838
0.0001994595631
0.0002784445338
0.0003810133123
0.0005107947039
3.098024716e-07
3.098885158e-07
3.101386935e-07
3.108047103e-07
3.121863344e-07
3.146392029e-07
3.185854421e-07
3.24528201e-07
3.330712509e-07
3.449459584e-07
3.610500507e-07
3.825012583e-07
4.107100791e-07
4.474850067e-07
4.951783665e-07
5.568838579e-07
6.367497169e-07
7.404003245e-07
8.754926305e-07
1.052626551e-06
1.286442328e-06
1.597744295e-06
2.016107334e-06
2.584621113e-06
3.366084865e-06
4.454876732e-06
5.991034304e-06
8.19081548e-06
1.135792467e-05
1.597354685e-05
2.274057635e-05
3.267539932e-05
4.736324271e-05
6.885446077e-05
9.959472688e-05
0.0001427981365
0.0002023450524
0.0002820563852
0.0003854438376
0.0005161376867
3.160759002e-07
3.161617962e-07
3.16412076e-07
3.170831747e-07
3.18480819e-07
3.209680448e-07
3.24975969e-07
3.310184676e-07
3.39712218e-07
3.518044304e-07
3.682119442e-07
3.900755745e-07
4.188351326e-07
4.563357471e-07
5.049762704e-07
5.679160129e-07
6.493837737e-07
7.551048103e-07
8.928863294e-07
1.073513567e-06
1.311950631e-06
1.629397011e-06
2.056078322e-06
2.635924672e-06
3.433169245e-06
4.543876153e-06
6.111119492e-06
8.352874733e-06
1.158181003e-05
1.628450424e-05
2.317557082e-05
3.329568536e-05
4.823063902e-05
7.004486908e-05
0.0001012363599
0.0001450318224
0.0002052570304
0.0002857023597
0.0003899135523
0.0005215219175
3.224592275e-07
3.225452706e-07
3.227964259e-07
3.234739521e-07
3.248895796e-07
3.2741374e-07
3.314865456e-07
3.376327063e-07
3.464819878e-07
3.587975555e-07
3.755156268e-07
3.978006966e-07
4.271223135e-07
4.653630662e-07
5.149699018e-07
5.791670385e-07
6.622654702e-07
7.700964675e-07
9.106178541e-07
1.094814488e-06
1.337967204e-06
1.661693436e-06
2.096865432e-06
2.688295762e-06
3.501618719e-06
4.634678721e-06
6.233404289e-06
8.518264131e-06
1.180995998e-05
1.660143939e-05
2.361937794e-05
3.392619849e-05
4.911179095e-05
7.125646309e-05
0.000102904243
0.0001472913431
0.0002081962138
0.0002893822838
0.0003944228136
0.0005269479554
3.289560317e-07
3.290424583e-07
3.292951144e-07
3.299801882e-07
3.314154911e-07
3.339789028e-07
3.381195871e-07
3.443731983e-07
3.533827524e-07
3.659275415e-07
3.829634484e-07
4.056791407e-07
4.355744217e-07
4.745701372e-07
5.251624818e-07
5.906407989e-07
6.753999934e-07
7.853813512e-07
9.286958007e-07
1.11653772e-06
1.364503959e-06
1.694646159e-06
2.138486599e-06
2.741750149e-06
3.571459544e-06
4.727302837e-06
6.357983283e-06
8.687002862e-06
1.204249122e-05
1.692449846e-05
2.40719739e-05
3.456725787e-05
5.000719004e-05
7.248924413e-05
0.0001045981741
0.0001495771613
0.0002111631095
0.0002930964286
0.0003989718046
0.0005324155391
3.355697233e-07
3.356567259e-07
3.35911398e-07
3.366049705e-07
3.380614362e-07
3.406662098e-07
3.448775991e-07
3.512423268e-07
3.604168249e-07
3.731967154e-07
3.905578481e-07
4.137135152e-07
4.441943265e-07
4.839601554e-07
5.355574429e-07
6.023413771e-07
6.887925685e-07
8.009657733e-07
9.471284595e-07
1.13869219e-06
1.391572581e-06
1.728268331e-06
2.180959123e-06
2.796305183e-06
3.642717334e-06
4.821774847e-06
6.48493774e-06
8.859126047e-06
1.227951456e-05
1.725381455e-05
2.453337935e-05
3.521916924e-05
5.091727536e-05
7.374324044e-05
0.0001063180159
0.0001518896746
0.000214158444
0.0002968451953
0.0004035603064
0.0005379244077
3.423035917e-07
3.423913296e-07
3.426484496e-07
3.433513442e-07
3.448303022e-07
3.47478385e-07
3.517631625e-07
3.58242567e-07
3.675866245e-07
3.806075118e-07
3.983013578e-07
4.21906518e-07
4.529849739e-07
4.935363829e-07
5.461583906e-07
6.142730382e-07
7.02448506e-07
8.168562122e-07
9.659240013e-07
1.161287157e-06
1.419184707e-06
1.762573474e-06
2.224300058e-06
2.851979407e-06
3.715417917e-06
4.91812634e-06
6.614340218e-06
9.034680205e-06
1.252113645e-05
1.758951293e-05
2.500364985e-05
3.588222615e-05
5.18424435e-05
7.501850257e-05
0.0001080636754
0.0001542292232
0.000217182919
0.0003006287465
0.000408188022
0.0005434742117
3.491608398e-07
3.492494475e-07
3.495093837e-07
3.502223252e-07
3.517249823e-07
3.544181918e-07
3.587789231e-07
3.653764772e-07
3.748946661e-07
3.88162464e-07
4.061966017e-07
4.302609365e-07
4.619493938e-07
5.0330217e-07
5.569690818e-07
6.264402069e-07
7.163732222e-07
8.330592733e-07
9.850905796e-07
1.184332113e-06
1.447352014e-06
1.797575395e-06
2.268526446e-06
2.908792346e-06
3.789587779e-06
5.016392451e-06
6.746257691e-06
9.213720077e-06
1.276746031e-05
1.79317146e-05
2.548286834e-05
3.655671152e-05
5.278305662e-05
7.631509968e-05
0.0001098350842
0.0001565960737
0.0002202371208
0.0003044471884
0.0004128546394
0.0005490646044
3.561446118e-07
3.562342041e-07
3.564972755e-07
3.572209121e-07
3.587483789e-07
3.614884291e-07
3.659275851e-07
3.726466908e-07
3.823435518e-07
3.958641973e-07
4.142462952e-07
4.387796475e-07
4.710907049e-07
5.132609662e-07
5.679934112e-07
6.38847453e-07
7.30572247e-07
8.495816743e-07
1.004636387e-06
1.207836736e-06
1.476086274e-06
1.833288145e-06
2.313655483e-06
2.966764394e-06
3.865254278e-06
5.116610786e-06
6.880753649e-06
9.396306439e-06
1.301858764e-05
1.828053884e-05
2.597113935e-05
3.72428991e-05
5.373944926e-05
7.763311743e-05
0.0001116321767
0.0001589903825
0.0002233215273
0.0003083006192
0.0004175598363
0.0005546950878
3.632580133e-07
3.633486899e-07
3.636151768e-07
3.643500965e-07
3.659034076e-07
3.686919306e-07
3.732119067e-07
3.800559111e-07
3.899359648e-07
4.037154248e-07
4.224532428e-07
4.474656183e-07
4.804121197e-07
5.234163254e-07
5.792354029e-07
6.51499482e-07
7.450512272e-07
8.664302415e-07
1.024569689e-06
1.23181086e-06
1.50539939e-06
1.869726012e-06
2.359704618e-06
3.025916741e-06
3.942445721e-06
5.218820773e-06
7.017889525e-06
9.582504574e-06
1.327461883e-05
1.863610496e-05
2.646858453e-05
3.794105468e-05
5.4711934e-05
7.897265986e-05
0.0001134548666
0.0001614121418
0.0002264365836
0.0003121891019
0.0004223037952
0.0005603665412
3.705041286e-07
3.70595977e-07
3.708661289e-07
3.716128719e-07
3.731930018e-07
3.760315647e-07
3.806346975e-07
3.876069069e-07
3.976746652e-07
4.117189431e-07
4.308203366e-07
4.563219072e-07
4.899169459e-07
5.337719072e-07
5.90699205e-07
6.644011289e-07
7.598159272e-07
8.836119103e-07
1.044898847e-06
1.256264476e-06
1.535303418e-06
1.906903528e-06
2.406691622e-06
3.086271342e-06
4.021191389e-06
5.323063249e-06
7.157725665e-06
9.772383239e-06
1.35356539e-05
1.899853342e-05
2.697533908e-05
3.865143722e-05
5.570080639e-05
8.033385486e-05
0.0001153030462
0.0001638615812
0.000229582974
0.000316112908
0.0004270867789
0.0005660786443
3.778860336e-07
3.779791317e-07
3.782531735e-07
3.79012242e-07
3.806201175e-07
3.835102366e-07
3.881988175e-07
3.953025102e-07
4.055624863e-07
4.1987763e-07
4.393505554e-07
4.653516632e-07
4.996085883e-07
5.443314783e-07
6.023890854e-07
6.775573536e-07
7.748722298e-07
9.011337288e-07
1.065632327e-06
1.28120772e-06
1.565810586e-06
1.944835486e-06
2.454634643e-06
3.147850888e-06
4.101521518e-06
5.429380222e-06
7.300321989e-06
9.966013957e-06
1.380179306e-05
1.936794663e-05
2.749154899e-05
3.937429966e-05
5.670634771e-05
8.171683376e-05
0.0001171769188
0.000166339344
0.0002327610655
0.0003200720833
0.0004319088876
0.0005718309074
3.854068072e-07
3.855012249e-07
3.857793614e-07
3.865512271e-07
3.881877371e-07
3.911308895e-07
3.959071767e-07
4.031456144e-07
4.136023329e-07
4.281944425e-07
4.480469628e-07
4.745581264e-07
5.094905492e-07
5.550989121e-07
6.143094294e-07
6.909732383e-07
7.902261372e-07
9.190028612e-07
1.086778718e-06
1.306650887e-06
1.596933311e-06
1.983536948e-06
2.503552238e-06
3.210678787e-06
4.183467278e-06
5.537814729e-06
7.445738446e-06
1.016347055e-05
1.407313715e-05
1.974446938e-05
2.801736884e-05
4.01098896e-05
5.772882759e-05
8.31217477e-05
0.0001190766909
0.0001688458123
0.0002359708883
0.000324066755
0.0004367701755
0.0005776231429
3.930695399e-07
3.931653409e-07
3.934477607e-07
3.942328706e-07
3.958988744e-07
3.988965072e-07
4.037627362e-07
4.111391735e-07
4.217971792e-07
4.36672415e-07
4.569127071e-07
4.839446273e-07
5.195664288e-07
5.66078188e-07
6.264647376e-07
7.046539854e-07
8.058837714e-07
9.372265924e-07
1.108346735e-06
1.332604429e-06
1.628684211e-06
2.023023271e-06
2.553463401e-06
3.274779157e-06
4.267060743e-06
5.648410761e-06
7.594035337e-06
1.036482884e-05
1.434978798e-05
2.012822903e-05
2.855296002e-05
4.085844968e-05
5.876850587e-05
8.45487593e-05
0.0001210025692
0.0001713813563
0.0002392126068
0.0003280972634
0.000441670564
0.0005834545968
4.008773419e-07
4.009745846e-07
4.012614627e-07
4.020602442e-07
4.03756578e-07
4.068101163e-07
4.117685084e-07
4.192862022e-07
4.301500687e-07
4.453146587e-07
4.6595102e-07
4.935145871e-07
5.298399248e-07
5.772733915e-07
6.388596246e-07
7.18604917e-07
8.218513764e-07
9.558123322e-07
1.130345232e-06
1.359078968e-06
1.661076123e-06
2.063310117e-06
2.604387581e-06
3.34017681e-06
4.352334867e-06
5.761213219e-06
7.74527354e-06
1.057016641e-05
1.46318486e-05
2.051935559e-05
2.909848909e-05
4.16202175e-05
5.982563284e-05
8.599803567e-05
0.0001229547544
0.0001739463093
0.0002424866159
0.0003321637726
0.0004466098079
0.0005893253255
4.088333497e-07
4.089320878e-07
4.092235885e-07
4.10036453e-07
4.117639351e-07
4.14874789e-07
4.199275588e-07
4.275897759e-07
4.386641136e-07
4.54124361e-07
4.751652165e-07
5.03271517e-07
5.403148323e-07
5.886887135e-07
6.514988181e-07
7.328314741e-07
8.38135319e-07
9.747676194e-07
1.152783203e-06
1.386085303e-06
1.694122113e-06
2.104413475e-06
2.656344702e-06
3.406897249e-06
4.439323466e-06
5.876267904e-06
7.899514672e-06
1.077956254e-05
1.49194234e-05
2.091798151e-05
2.965412645e-05
4.239542494e-05
6.09004481e-05
8.746973917e-05
0.0001249334312
0.0001765409882
0.0002457932446
0.0003362662119
0.0004515877307
0.0005952359742
4.169407315e-07
4.170410151e-07
4.173372934e-07
4.181646397e-07
4.199240754e-07
4.230936451e-07
4.282430072e-07
4.360530316e-07
4.473424947e-07
4.63104785e-07
4.845586946e-07
5.13219018e-07
5.509950439e-07
6.003284498e-07
6.643871586e-07
7.47339217e-07
8.547420912e-07
9.941001268e-07
1.175669797e-06
1.413634417e-06
1.727835488e-06
2.146349669e-06
2.70935517e-06
3.474966663e-06
4.528061202e-06
5.993621519e-06
8.056821212e-06
1.099309808e-05
1.521261828e-05
2.132424136e-05
3.022004477e-05
4.318429634e-05
6.199317812e-05
8.896401373e-05
0.0001269387513
0.0001791656923
0.0002491327653
0.000340404483
0.0004566044955
0.0006011864912
4.252026922e-07
4.253045684e-07
4.256057717e-07
4.264479886e-07
4.282401735e-07
4.314698547e-07
4.367180293e-07
4.446791684e-07
4.561884619e-07
4.7225927e-07
4.941349349e-07
5.233607814e-07
5.618845496e-07
6.121970014e-07
6.775295991e-07
7.62133826e-07
8.716783124e-07
1.013817665e-06
1.199014318e-06
1.441737488e-06
1.762229812e-06
2.189135376e-06
2.763439887e-06
3.544411921e-06
4.618583577e-06
6.113321675e-06
8.217256594e-06
1.12108554e-05
1.551154059e-05
2.173827119e-05
3.079641753e-05
4.398704478e-05
6.310403257e-05
9.048096657e-05
0.0001289707771
0.0001818207082
0.0002525053484
0.0003445789006
0.0004616603567
0.0006071768252
4.336224782e-07
4.337259914e-07
4.340322609e-07
4.348897293e-07
4.367154528e-07
4.400066406e-07
4.453558586e-07
4.534714492e-07
4.652053348e-07
4.815912314e-07
5.038975014e-07
5.337005883e-07
5.729874364e-07
6.242988741e-07
6.909312057e-07
7.772211021e-07
8.889507317e-07
1.033928188e-06
1.222826237e-06
1.470405899e-06
1.797318912e-06
2.232787635e-06
2.818620262e-06
3.615260573e-06
4.710926926e-06
6.235416911e-06
8.380885277e-06
1.143291839e-05
1.581629911e-05
2.216020721e-05
3.138341734e-05
4.480386578e-05
6.423318872e-05
9.202064493e-05
0.0001310297411
0.0001845063283
0.0002559110472
0.0003487897519
0.0004667552541
0.0006132066175
4.422033812e-07
4.423085736e-07
4.42620045e-07
4.434931399e-07
4.45353188e-07
4.487072805e-07
4.541597882e-07
4.624332013e-07
4.743965034e-07
4.911041612e-07
5.13850041e-07
5.442423099e-07
5.843078892e-07
6.366386793e-07
7.045971579e-07
7.926069687e-07
9.065662308e-07
1.054439797e-06
1.247115195e-06
1.499651243e-06
1.833116894e-06
2.277323862e-06
2.874918214e-06
3.687540853e-06
4.805128415e-06
6.359956707e-06
8.54777281e-06
1.165937246e-05
1.61270042e-05
2.259018362e-05
3.198121227e-05
4.563492592e-05
6.538084303e-05
9.358338499e-05
0.000133116015
0.0001872224527
0.000259349951
0.0003530372996
0.000471889204
0.0006192740321
4.509487418e-07
4.510556536e-07
4.513724584e-07
4.522615505e-07
4.541567077e-07
4.575751094e-07
4.631331721e-07
4.71567818e-07
4.837654292e-07
5.008016287e-07
5.239962842e-07
5.54989908e-07
5.958501904e-07
6.492211339e-07
7.185327494e-07
8.082974725e-07
9.245318267e-07
1.075360744e-06
1.271891012e-06
1.529485336e-06
1.869638151e-06
2.322761859e-06
2.932356188e-06
3.761281674e-06
4.90122605e-06
6.486991513e-06
8.717985889e-06
1.189030459e-05
1.64437683e-05
2.302832816e-05
3.258997257e-05
4.648047072e-05
6.65472439e-05
9.516939898e-05
0.0001352297628
0.0001899690854
0.0002628223379
0.0003573218672
0.0004770624317
0.0006253808377
4.598619527e-07
4.599706227e-07
4.602928887e-07
4.611983454e-07
4.631293974e-07
4.666135217e-07
4.722794275e-07
4.808787601e-07
4.933156458e-07
5.106872812e-07
5.343400461e-07
5.659474354e-07
6.076187211e-07
6.620510611e-07
7.32743389e-07
8.242987862e-07
9.42854675e-07
1.096699439e-06
1.297163695e-06
1.559920225e-06
1.906897374e-06
2.369119824e-06
2.990957155e-06
3.836512642e-06
4.999258678e-06
6.616572765e-06
8.891592405e-06
1.212580339e-05
1.676670573e-05
2.347478296e-05
3.320989531e-05
4.734074778e-05
6.773256559e-05
9.677880972e-05
0.0001373711391
0.0001927463858
0.0002663287231
0.0003616436047
0.0004822748629
0.0006315270516
4.689464623e-07
4.690569275e-07
4.693847797e-07
4.703069667e-07
4.722747017e-07
4.758259735e-07
4.816020366e-07
4.903695571e-07
5.030507607e-07
5.207648451e-07
5.448852264e-07
5.771190365e-07
6.19617961e-07
6.751333916e-07
7.472346024e-07
8.406172097e-07
9.615420729e-07
1.118464456e-06
1.322943441e-06
1.590968191e-06
1.94490956e-06
2.416416362e-06
3.050744625e-06
3.91326405e-06
5.099265997e-06
6.748752915e-06
9.068661498e-06
1.23659591e-05
1.709593305e-05
2.392970466e-05
3.384117961e-05
4.821598811e-05
6.89369222e-05
9.841187534e-05
0.000139540281
0.0001955546811
0.0002698696587
0.0003660023923
0.0004875263303
0.000637712911
4.782057769e-07
4.783180735e-07
4.78651634e-07
4.795909161e-07
4.815961264e-07
4.852159846e-07
4.91104548e-07
5.000438089e-07
5.129744558e-07
5.310381265e-07
5.556358108e-07
5.885089481e-07
6.318524901e-07
6.884731642e-07
7.62012033e-07
8.572591728e-07
9.806014628e-07
1.140664531e-06
1.349240647e-06
1.622641766e-06
1.983690026e-06
2.464670495e-06
3.111742654e-06
3.991566895e-06
5.201288568e-06
6.883585454e-06
9.249263605e-06
1.261086375e-05
1.743156978e-05
2.439325147e-05
3.448401728e-05
4.9106418e-05
7.016060938e-05
0.0001000689487
0.0001417373761
0.0001983944367
0.000273445375
0.0003703982971
0.0004928170458
0.0006439383427
4.876434641e-07
4.877576269e-07
4.880970162e-07
4.89053758e-07
4.910972415e-07
4.947871406e-07
5.007905789e-07
5.099051872e-07
5.230904893e-07
5.415110126e-07
5.665958716e-07
6.001215004e-07
6.443269889e-07
7.020755271e-07
7.77081444e-07
8.742312377e-07
1.000040436e-06
1.163308575e-06
1.376065914e-06
1.654953736e-06
2.023254412e-06
2.513901668e-06
3.173975852e-06
4.071452879e-06
5.305367827e-06
7.021124941e-06
9.433470508e-06
1.28606112e-05
1.777373806e-05
2.486558415e-05
3.513860501e-05
5.001227007e-05
7.140390988e-05
0.0001017502525
0.0001439627006
0.0002012659229
0.0002770559582
0.0003748314839
0.0004981470383
0.0006502005999
4.972631549e-07
4.973792179e-07
4.977245547e-07
4.986991215e-07
5.00781683e-07
5.045430949e-07
5.106638169e-07
5.199574373e-07
5.334026968e-07
5.521874728e-07
5.777695689e-07
6.119611178e-07
6.5704624e-07
7.159457396e-07
7.9244872e-07
8.915401011e-07
1.019866735e-06
1.186405675e-06
1.403430056e-06
1.687917147e-06
2.063618696e-06
2.564129765e-06
3.237469393e-06
4.152954421e-06
5.411546096e-06
7.161427029e-06
9.621355377e-06
1.311529719e-05
1.812256262e-05
2.534686517e-05
3.580514228e-05
5.093378025e-05
7.266709922e-05
0.0001034560266
0.0001462165104
0.0002041693243
0.0002807014491
0.000379302071
0.0005035163943
0.0006565016367
5.070685463e-07
5.071865427e-07
5.075379443e-07
5.085307029e-07
5.106531549e-07
5.144875708e-07
5.207280215e-07
5.302043797e-07
5.439149927e-07
5.630715599e-07
5.891611521e-07
6.240323205e-07
6.700151292e-07
7.300891731e-07
8.081198693e-07
9.091925975e-07
1.040088261e-06
1.209965101e-06
1.431344105e-06
1.721545319e-06
2.1047992e-06
2.615375111e-06
3.302249023e-06
4.236104667e-06
5.519866607e-06
7.30454849e-06
9.812992803e-06
1.337501933e-05
1.847817062e-05
2.583725909e-05
3.648383141e-05
5.187118706e-05
7.395044818e-05
0.0001051865094
0.0001484990424
0.000207104784
0.0002843818134
0.0003838101291
0.0005089251981
0.0006628420352
5.170634039e-07
5.171833662e-07
5.17540949e-07
5.185522679e-07
5.207154318e-07
5.246243635e-07
5.309870264e-07
5.406499113e-07
5.546313719e-07
5.741674117e-07
6.007749607e-07
6.363397253e-07
6.832386469e-07
7.445113133e-07
8.241010257e-07
9.271957019e-07
1.060713073e-06
1.233996307e-06
1.459819317e-06
1.75585185e-06
2.1468126e-06
2.667658486e-06
3.368341071e-06
4.320937502e-06
5.630373509e-06
7.450547247e-06
1.000845885e-05
1.363987718e-05
1.884069165e-05
2.633693271e-05
3.717487751e-05
5.282473105e-05
7.525422256e-05
0.0001069419338
0.0001508105152
0.0002100723863
0.0002880968914
0.000388355819
0.0005143735418
0.0006692218742
5.272515641e-07
5.27373524e-07
5.277374035e-07
5.287676538e-07
5.309723606e-07
5.34957342e-07
5.414447409e-07
5.512980078e-07
5.65555911e-07
5.854792523e-07
6.12615426e-07
6.488880475e-07
6.967218899e-07
7.592177618e-07
8.403984513e-07
9.455565328e-07
1.081749394e-06
1.258508943e-06
1.488867183e-06
1.790850625e-06
2.189675933e-06
2.721001136e-06
3.435772459e-06
4.40748756e-06
5.743111892e-06
7.599482397e-06
1.020783106e-05
1.39099722e-05
1.921025769e-05
2.684605514e-05
3.787848825e-05
5.379465424e-05
7.657868262e-05
0.0001087225209
0.000153151131
0.0002130721319
0.0002918467269
0.0003929396013
0.0005198612886
0.0006756412864
5.376369362e-07
5.37760925e-07
5.381312162e-07
5.391807716e-07
5.41427863e-07
5.45490451e-07
5.521051521e-07
5.621527251e-07
5.766927706e-07
5.970113937e-07
6.246870723e-07
6.61682102e-07
7.104700629e-07
7.74214238e-07
8.570185383e-07
9.642823553e-07
1.103205618e-06
1.283512853e-06
1.518499429e-06
1.826555821e-06
2.233406609e-06
2.775424776e-06
3.504570712e-06
4.49579024e-06
5.858127803e-06
7.75141424e-06
1.041118851e-05
1.418540783e-05
1.958700306e-05
2.736479787e-05
3.85948737e-05
5.478119955e-05
7.792408257e-05
0.0001105284709
0.0001555210547
0.0002161041442
0.0002956319067
0.0003975618317
0.0005253887253
0.0006820967654
5.48223505e-07
5.483495534e-07
5.487263707e-07
5.497956083e-07
5.520859371e-07
5.562277133e-07
5.629723265e-07
5.732182009e-07
5.880461961e-07
6.087682373e-07
6.36994519e-07
6.747268054e-07
7.244884802e-07
7.895065816e-07
8.739678124e-07
9.833805846e-07
1.125090307e-06
1.309018087e-06
1.548728026e-06
1.862981921e-06
2.278022416e-06
2.830951609e-06
3.574763969e-06
4.585881719e-06
5.975468268e-06
7.906404304e-06
1.061861186e-05
1.446628945e-05
1.997106441e-05
2.789333471e-05
3.932424617e-05
5.578461048e-05
7.929067068e-05
0.0001123599487
0.0001579203869
0.0002191687878
0.0002994528675
0.0004022224875
0.0005309559875
0.000688590582
5.590153328e-07
5.591434709e-07
5.595269285e-07
5.60616229e-07
5.629506597e-07
5.67173231e-07
5.740504122e-07
5.844986567e-07
5.996205202e-07
6.207542756e-07
6.495424821e-07
6.880271774e-07
7.387825678e-07
8.051007543e-07
8.91252935e-07
1.002858789e-06
1.147412204e-06
1.335034901e-06
1.579565197e-06
1.900143716e-06
2.323541534e-06
2.887604327e-06
3.646380999e-06
4.677798964e-06
6.095181307e-06
8.064515372e-06
1.083018331e-05
1.475272439e-05
2.036258063e-05
2.843184172e-05
4.006682e-05
5.680513104e-05
8.067869183e-05
0.0001142170653
0.0001603491178
0.0002222663857
0.0003033098512
0.0004069215565
0.0005365630105
0.0006951237102
5.700165615e-07
5.70146819e-07
5.705370309e-07
5.716467787e-07
5.740261885e-07
5.783311884e-07
5.853436405e-07
5.959983999e-07
6.114201641e-07
6.329740943e-07
6.623357754e-07
7.015883428e-07
7.533578656e-07
8.210028428e-07
9.088807061e-07
1.022724695e-06
1.170180231e-06
1.361573766e-06
1.611023424e-06
1.938056315e-06
2.369982541e-06
2.94540613e-06
3.719451205e-06
4.771579751e-06
6.21731596e-06
8.225811507e-06
1.104598668e-05
1.504482195e-05
2.07616928e-05
2.898049709e-05
4.082281129e-05
5.7843006e-05
8.208839574e-05
0.0001160998549
0.0001628072959
0.0002253972015
0.000307203106
0.0004116589964
0.0005422097339
0.0007016961239
5.81231415e-07
5.813638211e-07
5.817609012e-07
5.828914848e-07
5.853167638e-07
5.897058535e-07
5.96856328e-07
6.07721825e-07
6.234496399e-07
6.454323735e-07
6.753793133e-07
7.154155336e-07
7.682200292e-07
8.372190607e-07
9.268580675e-07
1.042986188e-06
1.193403496e-06
1.388645373e-06
1.643115453e-06
1.976735153e-06
2.41736442e-06
3.00438073e-06
3.794004645e-06
4.86726268e-06
6.341922302e-06
8.390358071e-06
1.126610741e-05
1.53426933e-05
2.116854398e-05
2.953948084e-05
4.159243751e-05
5.889847997e-05
8.352002805e-05
0.0001180085453
0.0001652950592
0.0002285615194
0.0003111329172
0.0004164347007
0.000547896074
0.0007083078103
5.926642013e-07
5.927987847e-07
5.932028469e-07
5.943546593e-07
5.96826711e-07
6.013015798e-07
6.085928787e-07
6.196734164e-07
6.35713552e-07
6.581338901e-07
6.886781121e-07
7.295140908e-07
7.833748324e-07
8.537557514e-07
9.451921057e-07
1.063651319e-06
1.217091298e-06
1.416260635e-06
1.6758543e-06
2.016196001e-06
2.465706575e-06
3.064552366e-06
3.870072039e-06
4.964887189e-06
6.469051467e-06
8.558221754e-06
1.149063256e-05
1.564645147e-05
2.158327887e-05
3.010897431e-05
4.237591671e-05
5.997179616e-05
8.497383453e-05
0.0001199434542
0.000167812812
0.0002317597033
0.0003150991123
0.0004212487359
0.0005536213851
0.000714953604
6.043193145e-07
6.044561037e-07
6.048672618e-07
6.060407003e-07
6.085604424e-07
6.131228091e-07
6.205577859e-07
6.318577497e-07
6.482165994e-07
6.710835196e-07
7.022372922e-07
7.438894667e-07
7.988281696e-07
8.706193908e-07
9.638900551e-07
1.084728306e-06
1.241253129e-06
1.4444307e-06
1.709253262e-06
2.056454969e-06
2.515028834e-06
3.125945811e-06
3.947684788e-06
5.064493572e-06
6.598755665e-06
8.729470588e-06
1.17196508e-05
1.595621119e-05
2.200604327e-05
3.068915921e-05
4.317346649e-05
6.106319438e-05
8.645006318e-05
0.0001219048818
0.0001703608945
0.0002349917904
0.0003191015815
0.0004261016476
0.0005593867072
0.0007216380131
6.162012375e-07
6.163402602e-07
6.167586281e-07
6.17954095e-07
6.205224594e-07
6.25174073e-07
6.32755634e-07
6.442794938e-07
6.609635774e-07
6.842862383e-07
7.160620802e-07
7.585472269e-07
8.145860582e-07
8.878165901e-07
9.829593014e-07
1.106225541e-06
1.265898683e-06
1.473166948e-06
1.743325919e-06
2.097528521e-06
2.565351463e-06
3.18858639e-06
4.026874982e-06
5.166122996e-06
6.731088205e-06
8.90417397e-06
1.195325244e-05
1.627208878e-05
2.243698284e-05
3.128021585e-05
4.39853021e-05
6.217290682e-05
8.794895761e-05
0.0001238931088
0.000172939637