/*--------------------------------*- C++ -*----------------------------------*\
| =========                 |                                                 |
| \\      /  F ield         | OpenFOAM: The Open Source CFD Toolbox           |
|  \\    /   O peration     | Version:  v2006                                 |
|   \\  /    A nd           | Website:  www.openfoam.com                      |
|    \\/     M anipulation  |                                                 |
\*---------------------------------------------------------------------------*/
FoamFile
{
    version     2.0;
    format      ascii;
    class       volScalarField;
    location    "0.15";
    object      H2O;
}
// * * * * * * * * * * * * * * * * * * * * * * * * * * * * * * * * * * * * * //

dimensions      [0 0 0 0 0 0 0];


internalField   nonuniform List<scalar> 
168000
(
1.623255849e-05
1.625329475e-05
1.628286651e-05
1.6327479e-05
1.642825018e-05
1.660979089e-05
1.682757021e-05
1.71029114e-05
1.763416315e-05
1.830068842e-05
1.907625664e-05
2.028158558e-05
2.183123132e-05
2.359981309e-05
2.631628148e-05
2.956961809e-05
3.354340948e-05
3.940590393e-05
4.599162758e-05
5.600954184e-05
6.784847049e-05
8.493377727e-05
0.0001064536645
0.0001375417757
0.0001773237411
0.0002377566557
0.0003124171137
0.000437417405
0.0006004554015
0.0008456399904
0.001221575331
0.001736545782
0.002529913749
0.00374752512
0.005462046537
0.007845332758
0.01124010435
0.01595184685
0.02209874659
0.0299331276
1.659411412e-05
1.660530041e-05
1.662946931e-05
1.667734685e-05
1.677300132e-05
1.693454659e-05
1.715864031e-05
1.747470135e-05
1.797553719e-05
1.863900308e-05
1.948327157e-05
2.067579742e-05
2.222210242e-05
2.413107186e-05
2.679715793e-05
3.011690002e-05
3.429952415e-05
4.006599576e-05
4.707181415e-05
5.697677484e-05
6.932721985e-05
8.64755529e-05
0.0001087253825
0.0001399932012
0.0001812363067
0.0002416013085
0.0003201602826
0.0004448143979
0.0006127699572
0.0008632697348
0.00124208795
0.00177140646
0.002580394688
0.003809736869
0.0055480257
0.007974845489
0.01141583262
0.01616319634
0.02236074254
0.03025415925
1.695283597e-05
1.696080934e-05
1.69819166e-05
1.70289894e-05
1.712061156e-05
1.727434894e-05
1.750300915e-05
1.783649811e-05
1.832980319e-05
1.899883381e-05
1.988063885e-05
2.108024324e-05
2.264405377e-05
2.463694776e-05
2.730641773e-05
3.069429269e-05
3.502352503e-05
4.080432706e-05
4.809589796e-05
5.803325275e-05
7.077317355e-05
8.810954703e-05
0.0001109674753
0.0001426009974
0.000185055219
0.0002458617359
0.000327578018
0.0004527577087
0.0006252147242
0.0008808674988
0.001263739677
0.001806617288
0.002630929915
0.003873536676
0.005636494383
0.008105607425
0.01159190247
0.01637724612
0.02262541983
0.03057754591
1.731303879e-05
1.731979774e-05
1.733902758e-05
1.738455159e-05
1.747352512e-05
1.762433787e-05
1.785634402e-05
1.819894477e-05
1.869376009e-05
1.937194763e-05
2.027876606e-05
2.149439313e-05
2.308416591e-05
2.51365227e-05
2.783527908e-05
3.129249884e-05
3.573945618e-05
4.15888777e-05
4.909976088e-05
5.914724503e-05
7.221444025e-05
8.980992953e-05
0.0001132119251
0.0001453242374
0.0001888512005
0.0002504228564
0.0003348187492
0.0004611355056
0.0006378162067
0.0008985445312
0.001286373715
0.001842225203
0.002681684909
0.003938881794
0.005727268143
0.008237655903
0.01176861121
0.0165938257
0.02289275215
0.03090338811
1.767669701e-05
1.768286042e-05
1.770085441e-05
1.774503269e-05
1.783245179e-05
1.798244973e-05
1.821726327e-05
1.856611016e-05
1.906616027e-05
1.975509021e-05
2.068205057e-05
2.191785902e-05
2.353711471e-05
2.563863425e-05
2.837956063e-05
3.190721666e-05
3.645892691e-05
4.240405281e-05
5.010210022e-05
6.030229293e-05
7.366635573e-05
9.156282101e-05
0.0001154774167
0.0001481397355
0.0001926670851
0.0002552115411
0.0003419833015
0.0004698710205
0.0006505962199
0.0009163829566
0.001309872037
0.001878271284
0.002732796096
0.004005734633
0.005820192948
0.008371033301
0.01194619376
0.0168128198
0.02316273531
0.03123175058
1.804480774e-05
1.805060682e-05
1.80677566e-05
1.811097693e-05
1.819762148e-05
1.834784197e-05
1.858535683e-05
1.893958396e-05
1.944653078e-05
2.014701391e-05
2.109237603e-05
2.235043657e-05
2.400079869e-05
2.614744244e-05
2.8937291e-05
3.253650239e-05
3.718758708e-05
4.324238227e-05
5.111278943e-05
6.148997481e-05
7.513741699e-05
9.336094679e-05
0.0001177750602
0.0001510346108
0.0001965287807
0.0002601817023
0.0003491405091
0.0004789118869
0.0006635730971
0.0009344434991
0.00133414623
0.001914792044
0.002784375755
0.004074061859
0.00591514761
0.008505791333
0.01212485281
0.01703418102
0.02343535309
0.03156265295
1.841800206e-05
1.842355528e-05
1.844012542e-05
1.848274615e-05
1.856916504e-05
1.872021084e-05
1.896054171e-05
1.932002022e-05
1.983471866e-05
2.054727715e-05
2.151058137e-05
2.279206303e-05
2.447446786e-05
2.666496282e-05
2.950757486e-05
3.317952833e-05
3.792824617e-05
4.410040611e-05
5.21371644e-05
6.270610443e-05
7.663246594e-05
9.520068195e-05
0.0001201116498
0.0001540019392
0.0002004520013
0.0002653046617
0.0003563377063
0.0004882227606
0.0006767625032
0.000952771249
0.001359130549
0.001951820372
0.002836515791
0.004143832348
0.006012043369
0.008641978479
0.01230474379
0.01725786563
0.02371058322
0.03189617768
1.879675385e-05
1.880213805e-05
1.881831813e-05
1.886062628e-05
1.894721469e-05
1.909949583e-05
1.934285307e-05
1.970772375e-05
2.02307102e-05
2.095576361e-05
2.193707631e-05
2.324276794e-05
2.495792984e-05
2.719222396e-05
3.009004935e-05
3.383599928e-05
3.868236955e-05
4.497663856e-05
5.317822362e-05
6.394873252e-05
7.815439554e-05
9.708041787e-05
0.0001224915163
0.0001570382252
0.0002044463786
0.0002705629343
0.0003636077797
0.000497780198
0.0006901780059
0.0009713999593
0.001384776597
0.001989386276
0.002889290569
0.004215021547
0.006110811118
0.008779631025
0.01248598845
0.0174838466
0.02398840558
0.03223234481
1.918145143e-05
1.918672184e-05
1.920265183e-05
1.924486883e-05
1.933192137e-05
1.948575012e-05
1.973237576e-05
2.01028739e-05
2.063455704e-05
2.137249123e-05
2.237209811e-05
2.370263617e-05
2.545121749e-05
2.772979899e-05
3.068462011e-05
3.450587926e-05
3.945079275e-05
4.587056312e-05
5.423775941e-05
6.521709459e-05
7.970506333e-05
9.899965923e-05
0.0001249175819
0.0001601419411
0.0002085179599
0.0002759462251
0.0003709739074
0.0005075690917
0.0007038315085
0.0009903551996
0.001411049205
0.002027517057
0.002942766633
0.004287611587
0.006211388465
0.008918782849
0.01266870292
0.01771210985
0.02426879971
0.03257116797
1.957242768e-05
1.957762544e-05
1.959341069e-05
1.963570718e-05
1.972345166e-05
1.987908254e-05
2.012922066e-05
2.050560976e-05
2.104634518e-05
2.179753662e-05
2.281581801e-05
2.417178463e-05
2.595445239e-05
2.827805114e-05
3.129133191e-05
3.518926309e-05
4.023406084e-05
4.678213792e-05
5.531694079e-05
6.651105614e-05
8.128577997e-05
0.0001009585252
0.0001273919615
0.000163312689
0.0002126707155
0.0002814488535
0.000378452746
0.0005175801836
0.0007177335878
0.001009656679
0.001437923208
0.002066237514
0.002997001656
0.004361582252
0.006313728804
0.009059490003
0.01285299145
0.01794262478
0.02455174636
0.03291265575
1.996997658e-05
1.997513294e-05
1.9990854e-05
2.003336335e-05
2.012198187e-05
2.027963065e-05
2.053351523e-05
2.091606206e-05
2.146618136e-05
2.223100509e-05
2.326838496e-05
2.465034899e-05
2.646779033e-05
2.883724803e-05
3.191030461e-05
3.58863154e-05
4.103258858e-05
4.771155321e-05
5.641661464e-05
6.783081982e-05
8.289756985e-05
0.0001029574741
0.0001299163069
0.0001665507231
0.0002169074422
0.0002870680987
0.0003860565775
0.0005278083273
0.000731893765
0.001029319984
0.001465380814
0.002105571306
0.003052045487
0.004436924179
0.006417803937
0.009201794303
0.01303892641
0.01817536489
0.0248372228
0.03325680668
2.037436405e-05
2.037950312e-05
2.03952227e-05
2.043805123e-05
2.052769361e-05
2.068754782e-05
2.094539885e-05
2.133436448e-05
2.189418668e-05
2.267301849e-05
2.372994326e-05
2.513847661e-05
2.699140067e-05
2.940761526e-05
3.254170103e-05
3.659724125e-05
4.184673546e-05
4.865911309e-05
5.753746185e-05
6.917677044e-05
8.454130968e-05
0.0001049971521
0.000132492005
0.0001698566799
0.000221230299
0.0002928031388
0.0003937947539
0.0005382512714
0.000746320723
0.001049357779
0.001493411439
0.002145542099
0.003107939891
0.004513633216
0.006523589366
0.009345731055
0.01322656824
0.01841030381
0.02512521468
0.03360357196
2.078583563e-05
2.079097632e-05
2.080674414e-05
2.084997843e-05
2.094077106e-05
2.110299667e-05
2.136502e-05
2.176065707e-05
2.233049335e-05
2.31237101e-05
2.420063945e-05
2.563632303e-05
2.752545923e-05
2.99893618e-05
3.318571058e-05
3.732227144e-05
4.267684045e-05
4.962517838e-05
5.868007853e-05
7.0549393e-05
8.621780213e-05
0.0001070783103
0.0001351202933
0.0001732314275
0.0002256411212
0.0002986543721
0.000401674671
0.0005489088069
0.0007610224874
0.001069780776
0.001522009943
0.002186171919
0.003164720696
0.004591707444
0.006631066328
0.009491332578
0.01341596314
0.01864743038
0.02541574963
0.03395302979
2.120462198e-05
2.12097794e-05
2.122563563e-05
2.126934773e-05
2.136139953e-05
2.15261457e-05
2.179253435e-05
2.219508685e-05
2.277524261e-05
2.358322217e-05
2.468062499e-05
2.614405039e-05
2.807014643e-05
3.058269215e-05
3.384254085e-05
3.806165499e-05
4.352323781e-05
5.061013928e-05
5.984501861e-05
7.194922913e-05
8.792781476e-05
0.00010920176
0.0001378023276
0.0001766759819
0.0002301416009
0.0003046229843
0.0004097024241
0.0005597821703
0.0007760065786
0.001090598392
0.001551174791
0.002227481331
0.003222419579
0.004671146949
0.006740221806
0.009638628691
0.01360714376
0.01888675973
0.0257088444
0.03430516333
2.163094294e-05
2.163612935e-05
2.165210705e-05
2.169635813e-05
2.178976482e-05
2.195716742e-05
2.222810339e-05
2.263780742e-05
2.322858355e-05
2.40517047e-05
2.517005705e-05
2.666182679e-05
2.86256472e-05
3.118781222e-05
3.451241302e-05
3.881565504e-05
4.438626425e-05
5.161440254e-05
6.103281632e-05
7.337685407e-05
8.967210069e-05
0.0001113683484
0.0001405392227
0.0001801914611
0.0002347333885
0.000310710673
0.0004178832497
0.0005708736247
0.0007912801357
0.001111819205
0.001580907314
0.002269490039
0.003281064832
0.00475195355
0.006851046944
0.009787645012
0.01380015692
0.01912831934
0.02600448488
0.03465995577
2.206501054e-05
2.207023608e-05
2.208636294e-05
2.213120591e-05
2.222605302e-05
2.23962374e-05
2.267189344e-05
2.308897831e-05
2.369067208e-05
2.452931457e-05
2.56690988e-05
2.718982612e-05
2.919215138e-05
3.180493224e-05
3.519555946e-05
3.958454641e-05
4.526626199e-05
5.263838562e-05
6.22439982e-05
7.483286448e-05
9.14514097e-05
0.0001135789471
0.0001433320775
0.0001837790598
0.0002394181484
0.000316919474
0.0004262218236
0.0005821861677
0.0008068500189
0.001133451286
0.001611211092
0.002312216957
0.003340682011
0.004834130506
0.006963535749
0.009938403465
0.01399504783
0.01937212036
0.02630265193
0.03501738462
2.250703125e-05
2.251230443e-05
2.252860405e-05
2.257408547e-05
2.267045061e-05
2.284353375e-05
2.312407506e-05
2.354876438e-05
2.416167028e-05
2.501621504e-05
2.617791937e-05
2.772822798e-05
2.976985423e-05
3.243426811e-05
3.589222225e-05
4.036861425e-05
4.616358006e-05
5.368251418e-05
6.347908964e-05
7.631787205e-05
9.326649425e-05
0.0001158344457
0.0001461819902
0.0001874400365
0.0002441975874
0.0003232516511
0.0004347224615
0.000593723327
0.0008227228934
0.001155502433
0.00164209147
0.002355680317
0.003401294455
0.004917682271
0.007077683823
0.01009092123
0.01419185428
0.01961816965
0.02660332545
0.03537742022
2.295720773e-05
2.296253581e-05
2.297902859e-05
2.302519008e-05
2.312314468e-05
2.329923687e-05
2.358482252e-05
2.401733538e-05
2.464174584e-05
2.551257532e-05
2.669669374e-05
2.827721777e-05
3.035895674e-05
3.307604213e-05
3.66026524e-05
4.116815305e-05
4.707857481e-05
5.474722112e-05
6.473861859e-05
7.783250034e-05
9.511811296e-05
0.0001181357495
0.000149090069
0.0001911757051
0.0002490734684
0.0003297096279
0.0004433892544
0.0006054890186
0.0008389052984
0.001177980333
0.001673555185
0.002399897759
0.003462923719
0.005002614367
0.007193486929
0.01024520838
0.01439060705
0.0198664735
0.02690648468
0.03573999812
2.341574019e-05
2.342112944e-05
2.343783329e-05
2.348471258e-05
2.358432314e-05
2.376352939e-05
2.405431359e-05
2.449486551e-05
2.51310717e-05
2.601857024e-05
2.722560266e-05
2.883698674e-05
3.095966591e-05
3.373048331e-05
3.732710921e-05
4.198346604e-05
4.801161014e-05
5.583294632e-05
6.60231177e-05
7.937738322e-05
9.700703283e-05
0.0001204837794
0.000152057438
0.0001949874312
0.0002540476154
0.0003362959448
0.0004522261613
0.0006174874495
0.0008554037035
0.001200892672
0.001705610074
0.002444886412
0.003525589946
0.005088933499
0.007310939512
0.01040126437
0.01459133497
0.02011703602
0.02721212638
0.03610521431
2.388282742e-05
2.388828334e-05
2.390521417e-05
2.395284593e-05
2.405417508e-05
2.423659622e-05
2.453272936e-05
2.498153325e-05
2.562982575e-05
2.653438005e-05
2.776483252e-05
2.940773195e-05
3.157219493e-05
3.439782751e-05
3.806586001e-05
4.281486478e-05
4.896305749e-05
5.694013671e-05
6.733312568e-05
8.095316432e-05
9.893403076e-05
0.0001228794719
0.0001550852427
0.0001988766296
0.0002591219152
0.0003430132335
0.0004612370707
0.0006297230503
0.0008722245538
0.001224247214
0.001738264849
0.00249066296
0.003589312183
0.005176647905
0.007430034627
0.01055910348
0.01479408246
0.02036987466
0.02752027436
0.03647304815
2.435866772e-05
2.436419516e-05
2.43813673e-05
2.442978371e-05
2.453289101e-05
2.471862458e-05
2.502025415e-05
2.54775211e-05
2.613819058e-05
2.706019022e-05
2.831457528e-05
2.998965637e-05
3.219676321e-05
3.507831745e-05
3.881917982e-05
4.366266892e-05
4.993329598e-05
5.806924646e-05
6.866918822e-05
8.256049696e-05
0.0001008998947
0.00012532378
0.0001581746524
0.0002028447624
0.0002642983164
0.0003498642009
0.0004704258438
0.0006422004299
0.0008893743068
0.001248051847
0.001771528919
0.002537243704
0.003654108554
0.005265766051
0.007550785379
0.01071876771
0.01499887271
0.02062499239
0.027830943
0.03684346812
2.484345953e-05
2.484906285e-05
2.486648934e-05
2.491572062e-05
2.502066318e-05
2.520980419e-05
2.551707555e-05
2.598301556e-05
2.665635341e-05
2.75961913e-05
2.887502838e-05
3.058296879e-05
3.283359645e-05
3.577220275e-05
3.958735126e-05
4.452720594e-05
5.092271238e-05
5.922073725e-05
7.00318587e-05
8.420004442e-05
0.0001029054248
0.0001278176745
0.0001613268629
0.000206893338
0.0002695788274
0.0003568516204
0.0004797963436
0.0006549243455
0.0009068594607
0.001272314612
0.001805412245
0.0025846446
0.003719996433
0.005356297674
0.007673205074
0.0108802817
0.01520570766
0.02088239543
0.0281441358
0.03721646214
2.53374021e-05
2.534308521e-05
2.536077803e-05
2.541085282e-05
2.551768583e-05
2.571032735e-05
2.602338438e-05
2.649820701e-05
2.718450593e-05
2.814257887e-05
2.944639472e-05
3.118788385e-05
3.348292666e-05
3.647973985e-05
4.037066434e-05
4.540881111e-05
5.193170121e-05
6.039507852e-05
7.14216988e-05
8.587248032e-05
0.0001049514342
0.0001303621448
0.0001645430981
0.0002110239106
0.000274965515
0.0003639783265
0.000489352456
0.0006678996822
0.0009246865761
0.001297043716
0.001839925225
0.002632881283
0.003786992565
0.005448253255
0.007797307026
0.01104366929
0.01541459792
0.02114210471
0.02845984768
0.03759195936
2.584069589e-05
2.58464624e-05
2.586443266e-05
2.591537831e-05
2.602415548e-05
2.622038916e-05
2.65393748e-05
2.702328974e-05
2.772284428e-05
2.869955344e-05
3.002888258e-05
3.180462202e-05
3.414499214e-05
3.720119205e-05
4.116941644e-05
4.630782739e-05
5.296066483e-05
6.159274775e-05
7.283927895e-05
8.75784891e-05
0.0001070387501
0.0001329582004
0.0001678246114
0.000215238079
0.0002804605029
0.0003712472126
0.0004990981037
0.0006811314406
0.0009428622926
0.001322247536
0.001875078594
0.002681969063
0.003855113079
0.005541643561
0.007923104177
0.01120895197
0.01562556892
0.02140413372
0.02877806287
0.03796996476
2.635354308e-05
2.635939628e-05
2.637765438e-05
2.642949722e-05
2.65402711e-05
2.674018762e-05
2.706524441e-05
2.755846199e-05
2.827156905e-05
2.926732043e-05
3.062270558e-05
3.243340959e-05
3.482003746e-05
3.79368294e-05
4.198391223e-05
4.72246054e-05
5.401001353e-05
6.281423076e-05
7.428517886e-05
8.931876661e-05
0.0001091682144
0.0001356068715
0.0001711726865
0.0002195374867
0.00028606597
0.0003786612303
0.0005090372574
0.0006946247286
0.0009613933385
0.001347934608
0.001910883331
0.002731922883
0.003924373414
0.005636479055
0.008050608422
0.01137615015
0.01583864186
0.02166847792
0.02909876911
0.03835054054
2.687614789e-05
2.688209084e-05
2.690064659e-05
2.695341214e-05
2.706623442e-05
2.726992383e-05
2.760119427e-05
2.810392592e-05
2.883088524e-05
2.984609014e-05
3.122808273e-05
3.307447863e-05
3.550831349e-05
3.868692876e-05
4.281446363e-05
4.815950346e-05
5.508016566e-05
6.406002198e-05
7.575998798e-05
9.109402064e-05
0.0001113406846
0.0001383092099
0.0001745886386
0.0002239238211
0.00029178415
0.0003862233889
0.0005191739432
0.0007083847558
0.0009802865365
0.001374113603
0.001947350564
0.002782757198
0.003994788163
0.005732769012
0.008179829541
0.01154528312
0.01605383431
0.02193513098
0.02942194741
0.03873368337
2.740871693e-05
2.741475248e-05
2.743361519e-05
2.748732831e-05
2.760225007e-05
2.78098021e-05
2.814742907e-05
2.865988773e-05
2.940100231e-05
3.043607778e-05
3.184523834e-05
3.372806703e-05
3.621007733e-05
3.945177373e-05
4.366138984e-05
4.911288762e-05
5.617154778e-05
6.533062475e-05
7.726430594e-05
9.290497152e-05
0.0001135570349
0.0001410662904
0.0001780738145
0.0002283988138
0.0002976173306
0.0003939367565
0.0005295122486
0.0007224168309
0.0009995488043
0.001400793288
0.00198449147
0.002834485741
0.004066370837
0.005830520341
0.008310771553
0.01171636935
0.01627115724
0.02220411317
0.02974764429
0.03911938994
2.795145945e-05
2.795759029e-05
2.797676887e-05
2.80314539e-05
2.814852582e-05
2.836003016e-05
2.870415723e-05
2.922655771e-05
2.99821342e-05
3.103750346e-05
3.247440209e-05
3.439441845e-05
3.69255924e-05
4.023165468e-05
4.452501733e-05
5.00851317e-05
5.728459482e-05
6.662655159e-05
7.879874299e-05
9.475235271e-05
0.0001158181561
0.0001438792109
0.0001816295937
0.0002329642402
0.0003035678531
0.0004018044609
0.0005400563274
0.0007367263597
0.001019187153
0.001427982441
0.002022317174
0.002887121109
0.004139132861
0.005929736086
0.008443449384
0.01188942768
0.01649061408
0.022475443
0.03007585587
0.03950763436
2.850458764e-05
2.851081629e-05
2.853031929e-05
2.858600022e-05
2.870527272e-05
2.892081928e-05
2.927159098e-05
2.980415032e-05
3.05744994e-05
3.165059225e-05
3.311580902e-05
3.507378239e-05
3.765512837e-05
4.102686879e-05
4.540567987e-05
5.107661742e-05
5.841975022e-05
6.794832454e-05
8.036392045e-05
9.663691132e-05
0.0001181249574
0.0001467490938
0.0001852573888
0.0002376219193
0.0003096381125
0.0004098296906
0.0005508104036
0.0007513188454
0.001039208692
0.001455689709
0.002060838504
0.002940674038
0.004213086871
0.00603043791
0.008577887041
0.01206445167
0.01671221027
0.02274913739
0.03040658319
0.03989827296
2.906831683e-05
2.907464571e-05
2.909448141e-05
2.91511819e-05
2.927270535e-05
2.949238441e-05
2.984994651e-05
3.039288426e-05
3.1178321e-05
3.227557419e-05
3.376969955e-05
3.576641417e-05
3.839896123e-05
4.183772003e-05
4.63037186e-05
5.208773445e-05
5.957746619e-05
6.929647544e-05
8.196047114e-05
9.855940877e-05
0.0001204783661
0.0001496770861
0.000188958646
0.0002423737146
0.000315830558
0.0004180156964
0.0005617787748
0.0007661998932
0.001059620668
0.001483923323
0.002100066521
0.002995160348
0.00428824889
0.006132639489
0.008714095093
0.01224144159
0.01693596359
0.02302521232
0.03073984078
0.04029144768
2.964286572e-05
2.964929712e-05
2.966947356e-05
2.972721709e-05
2.98510419e-05
3.007494433e-05
3.043944407e-05
3.099298258e-05
3.179382675e-05
3.291268433e-05
3.443631955e-05
3.647257496e-05
3.91573733e-05
4.266451922e-05
4.721948208e-05
5.311888054e-05
6.075820382e-05
7.067154622e-05
8.358903985e-05
0.0001005206212
0.000122879329
0.0001526643606
0.0001927348455
0.0002472215337
0.0003221476927
0.0004263657929
0.0005729658159
0.0007813752121
0.001080430448
0.001512692442
0.002140013906
0.003050595995
0.004364630152
0.006236348733
0.008852083502
0.01242040769
0.01716190769
0.02330367914
0.03107562385
0.04068715962
3.022845659e-05
3.023499272e-05
3.025551773e-05
3.031432766e-05
3.044050441e-05
3.066872181e-05
3.104030809e-05
3.160467276e-05
3.242124915e-05
3.356216283e-05
3.511592035e-05
3.719253187e-05
3.99306533e-05
4.350758412e-05
4.815332641e-05
5.417046169e-05
6.196243337e-05
7.207408927e-05
8.525028371e-05
0.0001025213403
0.0001253288125
0.0001557121161
0.0001965875025
0.0002521673288
0.0003285920748
0.0004348833601
0.0005843759824
0.0007968506186
0.001101645543
0.001542007161
0.002180693422
0.003106995864
0.004442238011
0.006341582093
0.008991861103
0.01260136912
0.01739007815
0.02358453325
0.03141389251
0.04108542407
3.082531547e-05
3.083195844e-05
3.085283971e-05
3.091273932e-05
3.104131884e-05
3.127394372e-05
3.16527673e-05
3.222818683e-05
3.30608255e-05
3.422425499e-05
3.580875881e-05
3.792655793e-05
4.071909637e-05
4.436723943e-05
4.910561524e-05
5.524289225e-05
6.319063442e-05
7.350466769e-05
8.694487267e-05
0.0001045623734
0.0001278278035
0.0001588215784
0.000200518167
0.0002572130971
0.000335166318
0.0004435718449
0.0005960138131
0.0008126320425
0.001123273653
0.001571877673
0.002222117429
0.003164374538
0.004521091518
0.006448362491
0.009133439984
0.01278435711
0.01762048979
0.02386777898
0.03175467842
0.0414862363
3.143367232e-05
3.144042419e-05
3.146166925e-05
3.152268182e-05
3.165371531e-05
3.189084115e-05
3.227705483e-05
3.286376144e-05
3.371279801e-05
3.489921135e-05
3.651509738e-05
3.86749322e-05
4.152300414e-05
4.524381695e-05
5.007671999e-05
5.633659508e-05
6.444329616e-05
7.496385567e-05
8.867348991e-05
0.0001066445445
0.00013037731
0.0001619940006
0.0002045284248
0.0002623608816
0.0003418730923
0.0004524347629
0.0006078839335
0.000828725532
0.001145322651
0.001602314339
0.002264298602
0.003222747006
0.004601208893
0.006556704276
0.00927683794
0.01296938974
0.0178531482
0.02415342692
0.03209799425
0.04188941183
3.205376119e-05
3.206062394e-05
3.208224024e-05
3.214438909e-05
3.227792816e-05
3.25196496e-05
3.291340836e-05
3.351163797e-05
3.437741389e-05
3.558728771e-05
3.723520417e-05
3.943793983e-05
4.234268482e-05
4.613765558e-05
5.106701987e-05
5.745200174e-05
6.572091759e-05
7.645223878e-05
9.043683225e-05
0.0001087686943
0.0001329783615
0.0001652306638
0.0002086198982
0.0002676127714
0.0003487151252
0.0004614757004
0.0006199910585
0.0008451372559
0.001167800573
0.001633327627
0.002307249795
0.003282128473
0.004682607891
0.006666622907
0.009422071466
0.01315647894
0.01808805597
0.02444148473
0.03244384556
0.04229508271
3.268582041e-05
3.269279596e-05
3.271479083e-05
3.277809937e-05
3.291419616e-05
3.316060905e-05
3.356207021e-05
3.417206265e-05
3.505492543e-05
3.628874529e-05
3.796935304e-05
4.021587212e-05
4.317845329e-05
4.704910148e-05
5.207690207e-05
5.858955267e-05
6.702400777e-05
7.79704143e-05
9.223561062e-05
0.0001109356811
0.0001356320099
0.000168532878
0.0002127942463
0.0002729709023
0.0003556952021
0.0004706983159
0.000632339995
0.0008618735052
0.001190715614
0.001664928141
0.002350984046
0.003342534307
0.00476530596
0.006778133753
0.009569155825
0.0133456339
0.01832521093
0.02473195694
0.03279223779
0.04270328776
3.333009269e-05
3.333718293e-05
3.335956365e-05
3.342405539e-05
3.35627626e-05
3.381396411e-05
3.422328747e-05
3.484528667e-05
3.574559009e-05
3.700385076e-05
3.871782367e-05
4.100902661e-05
4.403063116e-05
4.797850817e-05
5.310676187e-05
5.974969733e-05
6.835308607e-05
7.951899159e-05
9.407055041e-05
0.0001131463812
0.0001383393296
0.0001719019821
0.0002170531656
0.0002784374579
0.0003628161683
0.0004801063417
0.000644935644
0.0008789406942
0.001214076124
0.00169712663
0.002395514571
0.00340398001
0.004849320229
0.00689125181
0.009718105105
0.01353686006
0.01856460276
0.02502484934
0.03314317686
0.04311403206
3.398682534e-05
3.39940321e-05
3.401680589e-05
3.40825045e-05
3.422387543e-05
3.447996416e-05
3.48973121e-05
3.553156626e-05
3.644967063e-05
3.773287635e-05
3.948090163e-05
4.181770717e-05
4.489954687e-05
4.892623664e-05
5.415700281e-05
6.093289445e-05
6.970868245e-05
8.109859238e-05
9.594239198e-05
0.0001154016893
0.0001411014186
0.0001753393452
0.0002213983909
0.00028401467
0.0003700809291
0.000489703586
0.0006577830028
0.0008963453621
0.001237890607
0.001729933993
0.002440854753
0.003466481177
0.004934667468
0.007005991326
0.009868932336
0.01373015747
0.01880623297
0.02532018576
0.03349662188
0.04352732415
3.465627036e-05
3.466359543e-05
3.468676945e-05
3.475369879e-05
3.489778742e-05
3.515886346e-05
3.558440109e-05
3.623116282e-05
3.716743518e-05
3.847609998e-05
4.025887851e-05
4.264222412e-05
4.578553584e-05
4.989265547e-05
5.522803684e-05
6.213961222e-05
7.10913377e-05
8.270985113e-05
9.7851891e-05
0.000117702519
0.0001439193988
0.0001788463667
0.000225831696
0.0002897048196
0.000377492452
0.0004994939346
0.0006708871674
0.0009140941736
0.00126216772
0.001763361278
0.002487018128
0.003530053461
0.005021364059
0.007122365208
0.01002164814
0.01392553409
0.01905013895
0.02561799942
0.03385261023
0.04394295868
3.53386846e-05
3.534612973e-05
3.536971114e-05
3.543789524e-05
3.558475629e-05
3.585092128e-05
3.628481655e-05
3.694434304e-05
3.789915738e-05
3.923380529e-05
4.105205202e-05
4.34828943e-05
4.668894056e-05
5.087814098e-05
5.632028447e-05
6.337032849e-05
7.250160373e-05
8.435341539e-05
9.979981894e-05
0.0001200498036
0.0001467944164
0.0001824244771
0.0002303548943
0.0002955102379
0.000385053767
0.0005094813522
0.0006842533341
0.0009321939194
0.001286916267
0.001797419686
0.002534018378
0.003594712555
0.005109425999
0.007240384083
0.01017625901
0.0141230134
0.01929635057
0.02591828887
0.03421116351
0.04436106748
3.603432992e-05
3.604189683e-05
3.606589274e-05
3.613535589e-05
3.628504481e-05
3.655640205e-05
3.699882582e-05
3.767137902e-05
3.864511646e-05
4.000628185e-05
4.186072609e-05
4.434004121e-05
4.761011071e-05
5.188307738e-05
5.743417499e-05
6.462553099e-05
7.394004383e-05
8.602994613e-05
0.0001017869634
0.0001224444961
0.000149727643
0.000186075139
0.0002349698393
0.0003014333072
0.0003927679688
0.0005196698846
0.0006978868008
0.0009506515166
0.0013121452
0.001832120562
0.002581869315
0.003660474182
0.005198869069
0.007360055103
0.0103327643
0.01432261621
0.01954488339
0.02622105331
0.03457227753
0.04478170739
3.674347331e-05
3.675116368e-05
3.677558119e-05
3.684634792e-05
3.699892096e-05
3.727557546e-05
3.772670164e-05
3.841254835e-05
3.940559737e-05
4.079382518e-05
4.268521096e-05
4.521399515e-05
4.854940329e-05
5.290785692e-05
5.857014662e-05
6.590571758e-05
7.540723299e-05
8.774011807e-05
0.0001038141288
0.0001248875703
0.0001527202756
0.0001897998472
0.000239678426
0.0003074764616
0.0004006382173
0.0005300636598
0.0007117929687
0.0009694740071
0.001337863608
0.00186747539
0.002630584864
0.003727354113
0.00528970936
0.007481380464
0.01049116675
0.01452435953
0.01979575342
0.02652629001
0.03493594841
0.04520487674
3.746638705e-05
3.747420253e-05
3.749904873e-05
3.75711438e-05
3.772665807e-05
3.800871658e-05
3.846872222e-05
3.916813429e-05
4.018089093e-05
4.159673692e-05
4.352582336e-05
4.610509327e-05
4.95071828e-05
5.395288001e-05
5.972864669e-05
6.721139645e-05
7.690375813e-05
8.94846201e-05
0.0001058821364
0.0001273800208
0.0001557735377
0.0001936001296
0.0002444825911
0.0003136421885
0.0004086677393
0.0005406668898
0.0007259773433
0.0009886685558
0.001364080711
0.001903495768
0.002680179037
0.003795368113
0.005381962702
0.007604374857
0.01065147542
0.01472826218
0.02004897904
0.02683399212
0.03530217077
0.04563057468
3.820334883e-05
3.821129102e-05
3.8236573e-05
3.831002148e-05
3.846853493e-05
3.875610605e-05
3.922517141e-05
3.993842587e-05
4.097129388e-05
4.241532494e-05
4.438288656e-05
4.70136798e-05
5.048382131e-05
5.501855546e-05
6.091013189e-05
6.85430864e-05
7.843021845e-05
9.126415559e-05
0.000107991825
0.0001299228637
0.0001588886794
0.0001974775483
0.0002493843145
0.0003199330292
0.0004168598298
0.0005514838719
0.0007404455344
0.001008242445
0.001390805833
0.001940193382
0.002730665888
0.003864531854
0.005475644932
0.007729058744
0.01081371658
0.01493434717
0.02030454914
0.02714415403
0.03567085765
0.04605853686
3.89546419e-05
3.89627124e-05
3.898843723e-05
3.906326446e-05
3.922483594e-05
3.951803014e-05
3.999633882e-05
4.072371797e-05
4.177710908e-05
4.324990346e-05
4.525673057e-05
4.79401061e-05
5.147969871e-05
5.61053006e-05
6.211506841e-05
6.990131706e-05
7.998722573e-05
9.307944277e-05
0.0001101440514
0.0001325171374
0.0001620669787
0.0002014336997
0.0002543856194
0.0003263515804
0.0004252178533
0.0005625189902
0.0007552032564
0.001028203069
0.001418048369
0.001977579942
0.002782059437
0.003934860787
0.00557077203
0.007855451473
0.01097791216
0.01514261681
0.02056245664
0.02745680722
0.03604211863
0.04648899729
3.972055523e-05
3.972875557e-05
3.975493033e-05
3.983116196e-05
3.999585124e-05
4.029478094e-05
4.078251995e-05
4.152431154e-05
4.259864559e-05
4.410079318e-05
4.614769224e-05
4.888473089e-05
5.249520276e-05
5.721354148e-05
6.334393223e-05
7.128662915e-05
8.157540458e-05
9.49312151e-05
0.0001123396909
0.0001351639026
0.0001653097412
0.0002054702157
0.0002594885736
0.0003329004947
0.0004337452449
0.0005737767165
0.0007702563283
0.001048557924
0.001445817705
0.002015667068
0.002834373555
0.004006369877
0.005667359695
0.007983571139
0.01114408343
0.01535306798
0.02082270969
0.02777199031
0.03641595153
0.04692199236
4.050138361e-05
4.050971532e-05
4.053634709e-05
4.061400906e-05
4.078187688e-05
4.108665647e-05
4.158401632e-05
4.234051368e-05
4.343621885e-05
4.496832145e-05
4.70561154e-05
4.984792031e-05
5.353072936e-05
5.834371305e-05
6.459720925e-05
7.269957476e-05
8.319539284e-05
9.682022166e-05
0.0001145796373
0.0001378642433
0.0001686183018
0.000209588764
0.0002646952907
0.0003395824824
0.0004424455118
0.0005852616122
0.0007856106749
0.001069314605
0.001474123072
0.00205446596
0.00288762177
0.004079073076
0.00576542287
0.008113433879
0.01131225171
0.015565698
0.02108533336
0.02808971729
0.03679234804
0.04735750696