/*--------------------------------*- C++ -*----------------------------------*\
| =========                 |                                                 |
| \\      /  F ield         | OpenFOAM: The Open Source CFD Toolbox           |
|  \\    /   O peration     | Version:  v2006                                 |
|   \\  /    A nd           | Website:  www.openfoam.com                      |
|    \\/     M anipulation  |                                                 |
\*---------------------------------------------------------------------------*/
FoamFile
{
    version     2.0;
    format      ascii;
    class       volScalarField;
    location    "0.15";
    object      H2O2;
}
// * * * * * * * * * * * * * * * * * * * * * * * * * * * * * * * * * * * * * //

dimensions      [0 0 0 0 0 0 0];


internalField   nonuniform List<scalar> 
168000
(
7.835698765e-09
7.855131916e-09
7.879193233e-09
7.910915758e-09
7.970279124e-09
8.069252573e-09
8.186249495e-09
8.33170374e-09
8.602331466e-09
8.939369487e-09
9.330143217e-09
9.931654838e-09
1.070214578e-08
1.158041354e-08
1.292430017e-08
1.453216765e-08
1.649456144e-08
1.938594961e-08
2.26334539e-08
2.75703354e-08
3.340379626e-08
4.182050256e-08
5.242086455e-08
6.773313387e-08
8.732682403e-08
1.170906783e-07
1.538614314e-07
2.154239939e-07
2.957199289e-07
4.164725276e-07
6.016191943e-07
8.552400095e-07
1.226704159e-06
1.774470471e-06
2.500546793e-06
3.4304886e-06
4.602934715e-06
5.996059149e-06
7.459184721e-06
8.806703467e-06
8.010224696e-09
8.025255624e-09
8.046927473e-09
8.080461428e-09
8.137561237e-09
8.227051186e-09
8.347360288e-09
8.512875724e-09
8.768887808e-09
9.104680515e-09
9.529275937e-09
1.012471258e-08
1.089380604e-08
1.184114921e-08
1.316047462e-08
1.480117564e-08
1.686637422e-08
1.971070293e-08
2.316505586e-08
2.804645032e-08
3.413184261e-08
4.25796481e-08
5.35395285e-08
6.894033908e-08
8.925364514e-08
1.189840872e-07
1.576748308e-07
2.190669373e-07
3.017847441e-07
4.251550586e-07
6.11721536e-07
8.724087019e-07
1.249413994e-06
1.80245764e-06
2.536248729e-06
3.479470379e-06
4.659461392e-06
6.053915536e-06
7.514380938e-06
8.850088688e-06
8.183384347e-09
8.197071798e-09
8.217482585e-09
8.250852824e-09
8.30622278e-09
8.392155158e-09
8.514928136e-09
8.689166041e-09
8.941736409e-09
9.280494517e-09
9.723677153e-09
1.032279156e-08
1.110069919e-08
1.208942227e-08
1.341059671e-08
1.508497431e-08
1.7222403e-08
2.007394606e-08
2.366904542e-08
2.856649828e-08
3.484373822e-08
4.338420441e-08
5.464360073e-08
7.022455168e-08
9.113434278e-08
1.210822575e-07
1.613279584e-07
2.229789352e-07
3.079136877e-07
4.338218383e-07
6.223848814e-07
8.897498417e-07
1.272148251e-06
1.831159227e-06
2.572984411e-06
3.528924609e-06
4.716097944e-06
6.112511116e-06
7.570142047e-06
8.893792173e-06
8.357259189e-09
8.370568401e-09
8.390289326e-09
8.423135141e-09
8.477451263e-09
8.56220199e-09
8.686847087e-09
8.865763926e-09
9.119311563e-09
9.462790227e-09
9.918442277e-09
1.052562662e-08
1.131649178e-08
1.233459949e-08
1.367035011e-08
1.537899759e-08
1.757446805e-08
2.045992682e-08
2.416308198e-08
2.911485878e-08
3.555332348e-08
4.422145137e-08
5.574883149e-08
7.1565616e-08
9.300374643e-08
1.233285132e-07
1.648939133e-07
2.271049118e-07
3.141198124e-07
4.42527656e-07
6.335320088e-07
9.072865438e-07
1.294981373e-06
1.860556001e-06
2.610677252e-06
3.578865408e-06
4.772940007e-06
6.171799224e-06
7.625763624e-06
8.937827506e-06
8.53280181e-09
8.546032808e-09
8.565374585e-09
8.597795575e-09
8.651592103e-09
8.736189182e-09
8.86244722e-09
9.044653569e-09
9.301002469e-09
9.649978865e-09
1.011572443e-08
1.073302445e-08
1.153857421e-08
1.258101904e-08
1.393767909e-08
1.568113318e-08
1.792827616e-08
2.086097331e-08
2.465636758e-08
2.96834293e-08
3.626814964e-08
4.508455398e-08
5.686442238e-08
7.29521136e-08
9.488295084e-08
1.256868397e-07
1.684223508e-07
2.314070599e-07
3.204138618e-07
4.513129579e-07
6.451047901e-07
9.2503904e-07
1.317974735e-06
1.890631053e-06
2.64926329e-06
3.62749628e-06
4.83006315e-06
6.227437589e-06
7.6774074e-06
8.981008173e-06
8.710493425e-09
8.72375973e-09
8.742913391e-09
8.775099452e-09
8.828757695e-09
8.913708079e-09
9.041530819e-09
9.22661053e-09
9.486577516e-09
9.841451754e-09
1.031644601e-08
1.094488317e-08
1.176591666e-08
1.283072296e-08
1.421161408e-08
1.599042681e-08
1.82866044e-08
2.127341056e-08
2.515376154e-08
3.026806387e-08
3.699240059e-08
4.596992971e-08
5.79958448e-08
7.437770085e-08
9.678471514e-08
1.281345393e-07
1.719471705e-07
2.358595896e-07
3.268048648e-07
4.6020765e-07
6.57059683e-07
9.430253125e-07
1.341178848e-06
1.921369386e-06
2.688692204e-06
3.674351865e-06
4.887532573e-06
6.283004006e-06
7.72955514e-06
9.019600438e-06
8.89063869e-09
8.903999886e-09
8.923095744e-09
8.955223024e-09
9.009012243e-09
9.09461191e-09
9.224058831e-09
9.411954243e-09
9.675961881e-09
1.003699378e-08
1.052101787e-08
1.116117115e-08
1.199815173e-08
1.308470055e-08
1.449171454e-08
1.63064722e-08
1.865083356e-08
2.169553636e-08
2.565788999e-08
3.086670158e-08
3.772846048e-08
4.687579337e-08
5.914644458e-08
7.583896774e-08
9.871677799e-08
1.306574886e-07
1.75491684e-07
2.404450942e-07
3.33300536e-07
4.692339393e-07
6.693643084e-07
9.612615586e-07
1.364635056e-06
1.952756998e-06
2.728927137e-06
3.721704356e-06
4.945398268e-06
6.339153645e-06
7.782202583e-06
9.058498543e-06
9.073466399e-09
9.08696236e-09
9.106094928e-09
9.138305414e-09
9.19242048e-09
9.278872005e-09
9.410049326e-09
9.600833836e-09
9.869148999e-09
1.023654856e-08
1.072964071e-08
1.138190243e-08
1.223518523e-08
1.334345658e-08
1.47778017e-08
1.662912447e-08
1.902168376e-08
2.212661971e-08
2.617022865e-08
3.147838276e-08
3.847775377e-08
4.78013527e-08
6.031835449e-08
7.733419272e-08
1.006838828e-07
1.332470764e-07
1.790720874e-07
2.451520283e-07
3.399075573e-07
4.784084487e-07
6.819948302e-07
9.797625578e-07
1.388376814e-06
1.982732933e-06
2.769939394e-06
3.769566368e-06
5.003205756e-06
6.395879719e-06
7.835345881e-06
9.097704822e-06
9.259164039e-09
9.272824495e-09
9.292064643e-09
9.32446886e-09
9.379056106e-09
9.46651481e-09
9.599544314e-09
9.793337215e-09
1.006616434e-08
1.044012522e-08
1.094243078e-08
1.160711839e-08
1.247703337e-08
1.360727225e-08
1.506982889e-08
1.695836598e-08
1.939956556e-08
2.256640644e-08
2.669165959e-08
3.210273098e-08
3.924119509e-08
4.874636368e-08
6.151301358e-08
7.886262343e-08
1.026890077e-07
1.358982325e-07
1.826997955e-07
2.499729513e-07
3.466317909e-07
4.877437711e-07
6.949339284e-07
9.985417548e-07
1.412434059e-06
2.012875176e-06
2.811703066e-06
3.81794968e-06
5.057134815e-06
6.453178695e-06
7.888981119e-06
9.137220867e-06
9.44789232e-09
9.461740454e-09
9.481142553e-09
9.513826696e-09
9.569000289e-09
9.657593668e-09
9.792598288e-09
9.989532601e-09
1.026705015e-08
1.064776147e-08
1.115947202e-08
1.183687623e-08
1.272375577e-08
1.387632574e-08
1.536781784e-08
1.729424327e-08
1.978474674e-08
2.301487587e-08
2.72227581e-08
3.273967998e-08
4.001942977e-08
4.971088491e-08
6.273146326e-08
8.042406382e-08
1.04734108e-07
1.386081592e-07
1.863830115e-07
2.549033039e-07
3.534784458e-07
4.97249613e-07
7.081692095e-07
1.017611363e-06
1.436832736e-06
2.043590707e-06
2.851235288e-06
3.866873783e-06
5.111528464e-06
6.511042889e-06
7.943104619e-06
9.177047679e-06
9.639793161e-09
9.653847577e-09
9.673454242e-09
9.706486675e-09
9.762338839e-09
9.852175779e-09
9.989273679e-09
1.018948407e-08
1.047185882e-08
1.085950903e-08
1.138083744e-08
1.207124241e-08
1.297542884e-08
1.415074829e-08
1.567182725e-08
1.76368372e-08
2.017743111e-08
2.347212153e-08
2.776394091e-08
3.338932945e-08
4.081296214e-08
5.069514202e-08
6.39745169e-08
8.2018639e-08
1.068205608e-07
1.413755167e-07
1.901277839e-07
2.599405514e-07
3.604522111e-07
5.069336508e-07
7.216919109e-07
1.035805566e-06
1.461595269e-06
2.07487564e-06
2.890596553e-06
3.916353215e-06
5.166408066e-06
6.569465649e-06
7.997712027e-06
9.216956598e-06
9.834994941e-09
9.849270968e-09
9.869116364e-09
9.902552548e-09
9.959160059e-09
1.005033592e-08
1.018963862e-08
1.039325704e-08
1.068064969e-08
1.107542766e-08
1.160659777e-08
1.231028915e-08
1.32321356e-08
1.443065053e-08
1.598193692e-08
1.798624845e-08
2.057779532e-08
2.393829293e-08
2.831554307e-08
3.405186876e-08
4.162222383e-08
5.169945315e-08
6.524285746e-08
8.364666237e-08
1.089494294e-07
1.441999001e-07
1.939387186e-07
2.650835851e-07
3.675573629e-07
5.168021219e-07
7.354968196e-07
1.053787202e-06
1.486740449e-06
2.106728249e-06
2.930604653e-06
3.966400252e-06
5.221791459e-06
6.628440361e-06
8.049141922e-06
9.251073975e-06
1.003361619e-08
1.00481268e-08
1.006823897e-08
1.0102125e-08
1.015955345e-08
1.025215332e-08
1.03937656e-08
1.060092003e-08
1.089348749e-08
1.129558265e-08
1.183682482e-08
1.255409266e-08
1.349396226e-08
1.471613495e-08
1.629823979e-08
1.834259035e-08
2.098600592e-08
2.441356752e-08
2.887785787e-08
3.472753661e-08
4.244761001e-08
5.272418807e-08
6.653709427e-08
8.530856137e-08
1.111216175e-07
1.470815055e-07
1.978194578e-07
2.703323019e-07
3.747978537e-07
5.268603013e-07
7.495814041e-07
1.072065313e-06
1.512284392e-06
2.139147739e-06
2.97125249e-06
4.017026133e-06
5.277692276e-06
6.687964217e-06
8.099143125e-06
9.285456266e-06
1.023576825e-08
1.025052471e-08
1.027092724e-08
1.030530231e-08
1.0363609e-08
1.045770996e-08
1.060173055e-08
1.081254485e-08
1.111044134e-08
1.152004367e-08
1.207159279e-08
1.280273243e-08
1.376099729e-08
1.500730185e-08
1.662083769e-08
1.870598521e-08
2.140222721e-08
2.489813719e-08
2.945115788e-08
3.541659955e-08
4.328949853e-08
5.376974616e-08
6.785779643e-08
8.700483626e-08
1.133379585e-07
1.500209168e-07
2.017730033e-07
2.756873109e-07
3.821773873e-07
5.371128267e-07
7.639449089e-07
1.090649151e-06
1.538241349e-06
2.172134145e-06
3.012535143e-06
4.068241225e-06
5.334120158e-06
6.74429697e-06
8.149584874e-06
9.320101812e-06
1.044155724e-08
1.045656959e-08
1.047728275e-08
1.051218095e-08
1.057141693e-08
1.066708976e-08
1.081361215e-08
1.102820649e-08
1.133158412e-08
1.174888415e-08
1.231097868e-08
1.305629082e-08
1.403333135e-08
1.530425225e-08
1.69498392e-08
1.907656226e-08
2.182662466e-08
2.539220196e-08
3.003570592e-08
3.61193407e-08
4.414826015e-08
5.483654463e-08
6.920551288e-08
8.873603753e-08
1.155992651e-07
1.530189699e-07
2.058019339e-07
2.811497264e-07
3.896994795e-07
5.47563923e-07
7.785879895e-07
1.10954758e-06
1.564624049e-06
2.205688221e-06
3.05444926e-06
4.120054434e-06
5.391088921e-06
6.800064589e-06
8.20046474e-06
9.355008962e-06
1.065108551e-08
1.066636286e-08
1.068740446e-08
1.072285602e-08
1.078306756e-08
1.08803781e-08
1.102949144e-08
1.12479828e-08
1.155699203e-08
1.198218084e-08
1.255506238e-08
1.331485305e-08
1.431105753e-08
1.560708925e-08
1.728535837e-08
1.945445651e-08
2.225936649e-08
2.589596714e-08
3.063176107e-08
3.68360537e-08
4.502426395e-08
5.59250125e-08
7.058078465e-08
9.050275356e-08
1.179063568e-07
1.560766675e-07
2.099085524e-07
2.867210248e-07
3.973675088e-07
5.582175652e-07
7.935124087e-07
1.128769108e-06
1.591443987e-06
2.239811321e-06
3.096992577e-06
4.172473385e-06
5.448611913e-06
6.856349671e-06
8.251779429e-06
9.390175501e-06
1.086445273e-08
1.088000353e-08
1.090138952e-08
1.093742172e-08
1.099865139e-08
1.109766154e-08
1.124945144e-08
1.147195418e-08
1.178674423e-08
1.222001359e-08
1.280392672e-08
1.357850713e-08
1.459427155e-08
1.591591879e-08
1.762751404e-08
1.983980804e-08
2.270062426e-08
2.640964208e-08
3.123958181e-08
3.75670396e-08
4.591788034e-08
5.703558777e-08
7.198415255e-08
9.230560391e-08
1.202600742e-07
1.591951243e-07
2.14094984e-07
2.924029433e-07
4.051847579e-07
5.690775932e-07
8.087207987e-07
1.148321938e-06
1.618711662e-06
2.274505296e-06
3.140163428e-06
4.22550405e-06
5.506700282e-06
6.913153798e-06
8.303525484e-06
9.424571028e-06
1.108175671e-08
1.109758892e-08
1.111933383e-08
1.115597169e-08
1.121825916e-08
1.131902775e-08
1.1473577e-08
1.170020339e-08
1.202092261e-08
1.246246514e-08
1.305765733e-08
1.384734388e-08
1.488307197e-08
1.623084993e-08
1.797642943e-08
2.02327615e-08
2.315057314e-08
2.693343967e-08
3.185942792e-08
3.831260529e-08
4.682948277e-08
5.816871622e-08
7.341616213e-08
9.414523563e-08
1.226612853e-07
1.623755339e-07
2.183632437e-07
2.981974106e-07
4.13154447e-07
5.801477928e-07
8.242164771e-07
1.168214006e-06
1.646436773e-06
2.309772437e-06
3.183960213e-06
4.279149932e-06
5.56536312e-06
6.970478426e-06
8.355699329e-06
9.45364837e-06
1.13030941e-08
1.13192153e-08
1.134133255e-08
1.137859933e-08
1.144198206e-08
1.154456546e-08
1.17019546e-08
1.193281535e-08
1.225961159e-08
1.270962095e-08
1.331634267e-08
1.412145699e-08
1.517756029e-08
1.655199504e-08
1.833223187e-08
2.063346588e-08
2.3609392e-08
2.746757625e-08
3.249156143e-08
3.907306271e-08
4.775944878e-08
5.932485115e-08
7.487736699e-08
9.602232117e-08
1.251108884e-07
1.656191473e-07
2.227152809e-07
3.041064984e-07
4.212797624e-07
5.914319496e-07
8.400033042e-07
1.188453016e-06
1.674628381e-06
2.345615527e-06
3.228380829e-06
4.333104419e-06
5.623622622e-06
7.028324497e-06
8.404575246e-06
9.482937292e-06
1.152856085e-08
1.154497835e-08
1.156748052e-08
1.160539811e-08
1.166991178e-08
1.177436448e-08
1.193467237e-08
1.2169877e-08
1.250289798e-08
1.296156911e-08
1.358007396e-08
1.440094299e-08
1.5477841e-08
1.687946982e-08
1.86950526e-08
2.104207425e-08
2.407726345e-08
2.801227163e-08
3.313624741e-08
3.984872863e-08
4.870816081e-08
6.050445362e-08
7.636833104e-08
9.793755713e-08
1.276098126e-07
1.689272605e-07
2.271530108e-07
3.101323886e-07
4.295638783e-07
6.029338873e-07
8.560855704e-07
1.209046475e-06
1.703295054e-06
2.38203799e-06
3.273422651e-06
4.383876666e-06
5.679124228e-06
7.086696045e-06
8.451865343e-06
9.512436141e-06
1.175825266e-08
1.177497358e-08
1.17978726e-08
1.18364618e-08
1.190214074e-08
1.200851575e-08
1.217181995e-08
1.241147728e-08
1.275087088e-08
1.321840024e-08
1.384894509e-08
1.468590129e-08
1.578402169e-08
1.721339339e-08
1.906502666e-08
2.145874364e-08
2.455437384e-08
2.856774918e-08
3.379375433e-08
4.063992457e-08
4.967600673e-08
6.170799285e-08
7.788963004e-08
9.989166348e-08
1.301590175e-07
1.723012065e-07
2.316783347e-07
3.162773512e-07
4.380099747e-07
6.146574902e-07
8.724679092e-07
1.230001716e-06
1.732444945e-06
2.419043339e-06
3.319090635e-06
4.435236003e-06
5.735185033e-06
7.145593756e-06
8.499542276e-06
9.542142386e-06
1.199226534e-08
1.200929664e-08
1.20326039e-08
1.207188468e-08
1.213876216e-08
1.22471114e-08
1.241348858e-08
1.265770701e-08
1.30036216e-08
1.348020743e-08
1.412305268e-08
1.497643415e-08
1.609621299e-08
1.755388821e-08
1.944229282e-08
2.188363498e-08
2.504091332e-08
2.913423596e-08
3.446435446e-08
4.144697697e-08
5.066338039e-08
6.293594675e-08
7.944185277e-08
1.01885383e-07
1.327594921e-07
1.757423511e-07
2.362931552e-07
3.225437287e-07
4.466212519e-07
6.266067185e-07
8.891552264e-07
1.251325916e-06
1.762085871e-06
2.456635618e-06
3.365389812e-06
4.487190352e-06
5.79180557e-06
7.202929082e-06
8.547606578e-06
9.57205506e-06
1.223069504e-08
1.224804359e-08
1.22717701e-08
1.231176178e-08
1.237987025e-08
1.249024483e-08
1.265977106e-08
1.290865893e-08
1.326124367e-08
1.374708622e-08
1.440249594e-08
1.527264667e-08
1.641452864e-08
1.79010801e-08
1.982699348e-08
2.231691298e-08
2.553707584e-08
2.971196286e-08
3.514832413e-08
4.227021732e-08
5.167068207e-08
6.418880248e-08
8.102560187e-08
1.03919481e-07
1.354122541e-07
1.792520902e-07
2.409993858e-07
3.289339272e-07
4.55400941e-07
6.387856143e-07
9.06152643e-07
1.27302611e-06
1.792225364e-06
2.494819178e-06
3.412325218e-06
4.539747382e-06
5.848988738e-06
7.257643549e-06
8.596057474e-06
9.598660424e-06
1.247363854e-08
1.249131112e-08
1.251546757e-08
1.255618897e-08
1.262556028e-08
1.273801076e-08
1.291076181e-08
1.316442766e-08
1.352383273e-08
1.401913455e-08
1.468737674e-08
1.557464682e-08
1.673908545e-08
1.825509823e-08
2.021927465e-08
2.275874615e-08
2.604305919e-08
3.03011647e-08
3.5845944e-08
4.310998247e-08
5.269831892e-08
6.546705695e-08
8.264149443e-08
1.059947447e-07
1.381183493e-07
1.828318486e-07
2.457989585e-07
3.354504092e-07
4.643523118e-07
6.51198303e-07
9.234654457e-07
1.295109185e-06
1.82287068e-06
2.533598491e-06
3.459901748e-06
4.592914007e-06
5.906741506e-06
7.312846728e-06
8.64489254e-06
9.622171928e-06
1.27211934e-08
1.273919679e-08
1.276379363e-08
1.280526318e-08
1.287592875e-08
1.299050532e-08
1.316655689e-08
1.342510971e-08
1.379148661e-08
1.429645272e-08
1.497779956e-08
1.588254538e-08
1.707000329e-08
1.861607512e-08
2.061928592e-08
2.320930676e-08
2.655906506e-08
3.090208042e-08
3.655749929e-08
4.396661487e-08
5.374670538e-08
6.677121734e-08
8.429016256e-08
1.081119833e-07
1.408788508e-07
1.8648308e-07
2.506938287e-07
3.420956903e-07
4.734786778e-07
6.638489881e-07
9.410990415e-07
1.317581863e-06
1.854028766e-06
2.5729779e-06
3.5081239e-06
4.64669679e-06
5.965069675e-06
7.368537661e-06
8.69394587e-06
9.645843306e-06
1.297345821e-08
1.299179914e-08
1.301684665e-08
1.30590825e-08
1.313107345e-08
1.324782616e-08
1.342725407e-08
1.369080353e-08
1.406430526e-08
1.457914344e-08
1.527387148e-08
1.619645599e-08
1.740740513e-08
1.898414658e-08
2.102718047e-08
2.366877087e-08
2.708529914e-08
3.15149532e-08
3.728328001e-08
4.484046284e-08
5.481626358e-08
6.810180155e-08
8.597225373e-08
1.102720279e-07
1.436948584e-07
1.902072661e-07
2.55685979e-07
3.48872336e-07
4.82783399e-07
6.767419408e-07
9.590589108e-07
1.340450647e-06
1.885706185e-06
2.612961259e-06
3.556995373e-06
4.701101939e-06
6.02397805e-06
7.424715014e-06
8.737621196e-06
9.669674352e-06
1.323053269e-08
1.324921791e-08
1.327472622e-08
1.331774633e-08
1.339109362e-08
1.351007247e-08
1.369295286e-08
1.39616095e-08
1.434239082e-08
1.486731178e-08
1.557570218e-08
1.65164951e-08
1.775141699e-08
1.935945174e-08
2.1443115e-08
2.413731833e-08
2.76219711e-08
3.214003059e-08
3.802358116e-08
4.573188089e-08
5.59074237e-08
6.945933861e-08
8.768843111e-08
1.124757309e-07
1.465674986e-07
1.94005918e-07
2.607774224e-07
3.557829608e-07
4.922698824e-07
6.898814778e-07
9.773505585e-07
1.363721715e-06
1.917909015e-06
2.653551434e-06
3.606517687e-06
4.756135394e-06
6.083469639e-06
7.481383056e-06
8.781636891e-06
9.69366486e-06
1.349251783e-08
1.351155411e-08
1.353753328e-08
1.358135546e-08
1.365608997e-08
1.377734508e-08
1.396375457e-08
1.423763001e-08
1.462584759e-08
1.516106523e-08
1.588340396e-08
1.6842782e-08
1.810216795e-08
1.974213307e-08
2.18672498e-08
2.46151328e-08
2.816929477e-08
3.277756465e-08
3.877870298e-08
4.664122995e-08
5.702062438e-08
7.084436911e-08
8.943937392e-08
1.147239666e-07
1.494979245e-07
1.978805758e-07
2.659702046e-07
3.628302268e-07
5.019415807e-07
7.032719221e-07
9.959794627e-07
1.387400734e-06
1.950642397e-06
2.694749689e-06
3.65267568e-06
4.811803214e-06
6.143545379e-06
7.538545689e-06
8.82599243e-06
9.717186944e-06
1.375951605e-08
1.377891019e-08
1.380537022e-08
1.385001223e-08
1.392616484e-08
1.404974658e-08
1.423976239e-08
1.451896945e-08
1.491478209e-08
1.546051365e-08
1.619709172e-08
1.717543882e-08
1.845979019e-08
2.013233634e-08
2.229974877e-08
2.510240183e-08
2.872748814e-08
3.342781214e-08
3.954895116e-08
4.756887771e-08
5.815631302e-08
7.225744554e-08
9.122577767e-08
1.170176308e-07
1.524873155e-07
2.018328098e-07
2.712664056e-07
3.700168443e-07
5.118019953e-07
7.169175328e-07
1.014950957e-06
1.411492534e-06
1.981929827e-06
2.736565022e-06
3.699419859e-06
4.86810333e-06
6.20218264e-06
7.596206479e-06
8.870687955e-06
9.734537798e-06
1.403163128e-08
1.405139012e-08
1.407834098e-08
1.412382055e-08
1.420142225e-08
1.432738129e-08
1.45210814e-08
1.480573429e-08
1.520930307e-08
1.576576935e-08
1.6516883e-08
1.751459053e-08
1.882441894e-08
2.053021066e-08
2.274077938e-08
2.559931687e-08
2.92967735e-08
3.409103461e-08
4.033463704e-08
4.851519888e-08
5.931494615e-08
7.369913263e-08
9.304835439e-08
1.19357641e-07
1.555368774e-07
2.058642209e-07
2.76668142e-07
3.773455736e-07
5.21854695e-07
7.308223633e-07
1.033329448e-06
1.436004231e-06
2.013140037e-06
2.779003109e-06
3.746779606e-06
4.925035824e-06
6.258349521e-06
7.651101514e-06
8.915725427e-06
9.752001298e-06
1.430896909e-08
1.432909952e-08
1.435655117e-08
1.440288606e-08
1.448196798e-08
1.461035542e-08
1.480781866e-08
1.50980331e-08
1.550952156e-08
1.607694708e-08
1.6842898e-08
1.786036498e-08
1.919619257e-08
2.093590852e-08
2.319051277e-08
2.610607334e-08
2.987737753e-08
3.47674986e-08
4.113607784e-08
4.948057543e-08
6.049698974e-08
7.517000771e-08
9.490783294e-08
1.217449365e-07
1.58647843e-07
2.099764414e-07
2.821775682e-07
3.848192263e-07
5.321033073e-07
7.449909244e-07
1.051300535e-06
1.460943003e-06
2.044856522e-06
2.821970374e-06
3.794758384e-06
4.982603998e-06
6.315066334e-06
7.704368087e-06
8.9611042e-06
9.769577492e-06
1.459163676e-08
1.461214573e-08
1.464010816e-08
1.468731619e-08
1.476790967e-08
1.489877711e-08
1.510008326e-08
1.539597661e-08
1.581555088e-08
1.639416407e-08
1.717525955e-08
1.82128929e-08
1.957525255e-08
2.134958576e-08
2.364912376e-08
2.662287071e-08
3.046953139e-08
3.545747577e-08
4.195359686e-08
5.046539692e-08
6.170291952e-08
7.667066099e-08
9.680495922e-08
1.241804785e-07
1.618214721e-07
2.141711356e-07
2.877968783e-07
3.924406668e-07
5.42551532e-07
7.594281868e-07
1.069600984e-06
1.486315546e-06
2.077082336e-06
2.861769666e-06
3.843359265e-06
5.037261152e-06
6.372342009e-06
7.758091311e-06
9.002251197e-06
9.787267061e-06
1.487974337e-08
1.490063791e-08
1.492912115e-08
1.497722022e-08
1.505935687e-08
1.519275647e-08
1.539798637e-08
1.569967775e-08
1.612750671e-08
1.671754006e-08
1.751409323e-08
1.857230793e-08
1.996174349e-08
2.177140168e-08
2.411679088e-08
2.714991253e-08
3.107347085e-08
3.616124306e-08
4.278752371e-08
5.14700607e-08
6.293322126e-08
7.82016959e-08
9.874049646e-08
1.266652506e-07
1.650590515e-07
2.18450001e-07
2.935283075e-07
4.002128154e-07
5.53203161e-07
7.741391716e-07
1.088236354e-06
1.512128422e-06
2.109825389e-06
2.902154048e-06
3.892586453e-06
5.091270933e-06
6.43018027e-06
7.812272015e-06
9.041996154e-06
9.805069793e-06
1.517339993e-08
1.519468712e-08
1.522370125e-08
1.52727094e-08
1.535642112e-08
1.549240569e-08
1.570164131e-08
1.60092517e-08
1.644550711e-08
1.704719734e-08
1.78595273e-08
1.893874663e-08
2.03558132e-08
2.2201519e-08
2.459369646e-08
2.768740657e-08
3.168943636e-08
3.687908285e-08
4.363819448e-08
5.249497221e-08
6.41883911e-08
7.976372934e-08
1.007152255e-07
1.292002586e-07
1.683618963e-07
2.22814769e-07
2.993741337e-07
4.081386507e-07
5.640620714e-07
7.891289806e-07
1.107212347e-06
1.538388373e-06
2.143093248e-06
2.943128945e-06
3.942446134e-06
5.145884199e-06
6.488582514e-06
7.866912227e-06
9.082036169e-06
9.816895385e-06
1.54727194e-08
1.549440643e-08
1.552396158e-08
1.557389698e-08
1.565921603e-08
1.579783905e-08
1.601116359e-08
1.632481595e-08
1.676967255e-08
1.738326075e-08
1.821169281e-08
1.931234855e-08
2.07576127e-08
2.264010395e-08
2.508002668e-08
2.823556483e-08
3.231767322e-08
3.761128312e-08
4.450595201e-08
5.354054524e-08
6.546893581e-08
8.135739204e-08
1.027299449e-07
1.317865312e-07
1.717313493e-07
2.272672054e-07
3.05336679e-07
4.162212105e-07
5.751322208e-07
8.044027696e-07
1.126534746e-06
1.565102238e-06
2.176893284e-06
2.984700204e-06
3.992944044e-06
5.201104468e-06
6.547549399e-06
7.922013409e-06
9.12237189e-06
9.827710238e-06
1.577781681e-08
1.579991092e-08
1.583001732e-08
1.588089832e-08
1.596785734e-08
1.610917304e-08
1.632667098e-08
1.664649035e-08
1.7100126e-08
1.77258578e-08
1.857072361e-08
1.969325625e-08
2.116729624e-08
2.308732632e-08
2.55759716e-08
2.879460367e-08
3.295843165e-08
3.835813762e-08
4.539114604e-08
5.460720215e-08
6.677537308e-08
8.298332883e-08
1.047854717e-07
1.344251202e-07
1.751687823e-07
2.31809112e-07
3.114183103e-07
4.244635931e-07
5.864176447e-07
8.199657607e-07
1.146209417e-06
1.592276932e-06
2.211232743e-06
3.026873637e-06
4.04408549e-06
5.256934456e-06
6.607080372e-06
7.97757643e-06
9.16300395e-06
9.83859265e-06
1.608880931e-08
1.611131786e-08
1.614198579e-08
1.619383093e-08
1.628246297e-08
1.642652638e-08
1.664828357e-08
1.697439711e-08
1.743699294e-08
1.807511862e-08
1.893675637e-08
2.008161534e-08
2.158502141e-08
2.354335949e-08
2.608172526e-08
2.936474391e-08
3.361196697e-08
3.911994601e-08
4.629413345e-08
5.569537415e-08
6.810823184e-08
8.464219891e-08
1.068826411e-07
1.371171006e-07
1.786755963e-07
2.364423267e-07
3.176214413e-07
4.328689573e-07
5.979224558e-07
8.358232475e-07
1.166242304e-06
1.619919428e-06
2.246118737e-06
3.069654916e-06
4.095875369e-06
5.313375769e-06
6.667172846e-06
8.03186931e-06
9.203933043e-06
9.849542756e-06
1.640581625e-08
1.642874667e-08
1.645998656e-08
1.651281457e-08
1.660315312e-08
1.67500201e-08
1.697612381e-08
1.730866096e-08
1.778040143e-08
1.843117609e-08
1.930993067e-08
2.047757451e-08
2.201094911e-08
2.40083805e-08
2.659748575e-08
2.99462109e-08
3.427853966e-08
3.989701405e-08
4.721527845e-08
5.680550152e-08
6.946805249e-08
8.633467623e-08
1.090223074e-07
1.398635714e-07
1.82253222e-07
2.411687249e-07
3.23948533e-07
4.414405234e-07
6.096508422e-07
8.519805971e-07
1.186639428e-06
1.648036742e-06
2.281558229e-06
3.113049429e-06
4.148318213e-06
5.370428418e-06
6.725706458e-06
8.082696847e-06
9.240551811e-06
9.860560784e-06
1.672895927e-08
1.67523191e-08
1.678414144e-08
1.683797128e-08
1.693005031e-08
1.707977761e-08
1.731031659e-08
1.76494091e-08
1.813048212e-08
1.879416582e-08
1.969038899e-08
2.08812856e-08
2.244524368e-08
2.448257011e-08
2.712345529e-08
3.053923462e-08
3.495841555e-08
4.068965376e-08
4.815495283e-08
5.793803389e-08
7.085538722e-08
8.806144971e-08
1.112053436e-07
1.426656557e-07
1.859031206e-07
2.4599022e-07
3.304020949e-07
4.501815736e-07
6.216070666e-07
8.684432512e-07
1.207406878e-06
1.676635915e-06
2.317558022e-06
3.157062058e-06
4.201417715e-06
5.428094753e-06
6.782015767e-06
8.133950717e-06
9.275576627e-06
9.865925629e-06
1.705836234e-08
1.708215921e-08
1.711457462e-08
1.716942549e-08
1.726327945e-08
1.741592473e-08
1.765098928e-08
1.79967713e-08
1.848736837e-08
1.916422625e-08
2.007827683e-08
2.129290366e-08
2.288807288e-08
2.496611287e-08
2.765984028e-08
3.114404981e-08
3.565186592e-08
4.149818357e-08
4.911353609e-08
5.909343049e-08
7.227080026e-08
8.982322363e-08
1.134326428e-07
1.455245015e-07
1.896267842e-07
2.509087645e-07
3.369846859e-07
4.590954522e-07
6.337954655e-07
8.852167257e-07
1.22855081e-06
1.705724007e-06
2.354124758e-06
3.201696821e-06
4.255176129e-06
5.486381707e-06
6.838857364e-06
8.185630671e-06
9.310853799e-06
9.869665774e-06
1.739415184e-08
1.741839348e-08
1.745141269e-08
1.750730404e-08
1.760296791e-08
1.775858979e-08
1.799827179e-08
1.835087997e-08
1.885119625e-08
1.954149866e-08
2.047374269e-08
2.171258696e-08
2.333960803e-08
2.545919721e-08
2.820685145e-08
3.176089605e-08
3.635916763e-08
4.232292852e-08
5.009141573e-08
6.027216033e-08
7.371486821e-08
9.162071791e-08
1.157051174e-07
1.484412817e-07
1.934257367e-07
2.559263507e-07
3.436989152e-07
4.681855654e-07
6.462204469e-07
9.023066082e-07
1.250077436e-06
1.735308091e-06
2.39126499e-06
3.246956422e-06
4.309593236e-06
5.545295421e-06
6.896234844e-06
8.23773657e-06
9.346382916e-06
9.87342856e-06
1.773645664e-08
1.776115089e-08
1.779478475e-08
1.785173628e-08
1.794924557e-08
1.810790366e-08
1.835229666e-08
1.871187019e-08
1.922210461e-08
1.992612726e-08
2.087693817e-08
2.214049711e-08
2.3800024e-08
2.596201546e-08
2.876470387e-08
3.239001789e-08
3.70806033e-08
4.316422042e-08
5.108898742e-08
6.147470257e-08
7.518818028e-08
9.345466845e-08
1.180237005e-07
1.514171949e-07
1.97301534e-07
2.610450114e-07
3.505474424e-07
4.774553813e-07
6.588864875e-07
9.197185532e-07
1.27199302e-06
1.765395263e-06
2.428985399e-06
3.292841694e-06
4.362023735e-06
5.604840912e-06
6.954151901e-06
8.290267946e-06
9.382163596e-06
9.877213973e-06
1.808540814e-08
1.811056295e-08
1.814482245e-08
1.820285412e-08
1.830224491e-08
1.846399984e-08
1.871319908e-08
1.90798798e-08
1.960023515e-08
2.031825925e-08
2.128801803e-08
2.257679906e-08
2.426949933e-08
2.647476398e-08
2.933361712e-08
3.303166497e-08
3.781646142e-08
4.402239804e-08
5.210665521e-08
6.270154665e-08
7.669133864e-08
9.532582749e-08
1.203893456e-07
1.544534658e-07
2.012557652e-07
2.662668207e-07
3.575329789e-07
4.869084282e-07
6.71798127e-07
9.374582736e-07
1.294303868e-06
1.795992613e-06
2.467292558e-06
3.339358191e-06
4.413590351e-06
5.661106431e-06
7.01261278e-06
8.343223619e-06
9.418195308e-06
9.881022005e-06
1.844114038e-08
1.846676378e-08
1.850166004e-08
1.856079211e-08
1.866210105e-08
1.88270145e-08
1.908111697e-08
1.94550494e-08
1.998573246e-08
2.071804484e-08
2.170714023e-08
2.302166123e-08
2.47482163e-08
2.699764323e-08
2.991381534e-08
3.368609211e-08
3.856703649e-08
4.489780725e-08
5.314483177e-08
6.395319264e-08
7.822495866e-08
9.723496391e-08
1.228030274e-07
1.575513457e-07
2.052900526e-07
2.715938948e-07
3.646582872e-07
4.965482927e-07
6.849599581e-07
9.555315243e-07
1.3170163e-06
1.827107191e-06
2.506193043e-06
3.386513653e-06
4.465778592e-06
5.717521654e-06
7.071614914e-06
8.394144258e-06
9.448104086e-06
9.878332586e-06
1.880379005e-08
1.882989022e-08
1.886543448e-08
1.892568749e-08
1.902895181e-08
1.919708656e-08
1.945619104e-08
1.98375225e-08
2.037874411e-08
2.112563734e-08
2.2134466e-08
2.347525552e-08
2.523636096e-08
2.753085786e-08
3.050552734e-08
3.435355945e-08
3.933262918e-08
4.579080123e-08
5.420393857e-08
6.523015142e-08
7.978966926e-08
9.918286365e-08
1.252657422e-07
1.607121132e-07
2.094060531e-07
2.770283926e-07
3.719261813e-07
5.063786159e-07
6.983766073e-07
9.739440718e-07
1.340136623e-06
1.85874595e-06
2.54569349e-06
3.434315396e-06
4.518595507e-06
5.774534918e-06
7.131156671e-06
8.44212575e-06
9.477877783e-06
9.87452134e-06
1.917349663e-08
1.920008184e-08
1.923628548e-08
1.929768026e-08
1.940293783e-08
1.957435774e-08
1.983856487e-08
2.022744551e-08
2.077942069e-08
2.154119324e-08
2.257015992e-08
2.393775741e-08
2.573412324e-08
2.807461675e-08
3.110898671e-08
3.503433258e-08
4.01135465e-08
4.670174066e-08
5.528440614e-08
6.653294502e-08
8.138611317e-08
1.0117033e-07
1.277785079e-07
1.639370745e-07
2.136054582e-07
2.825725162e-07
3.79339527e-07
5.164030893e-07
7.120526969e-07
9.927016385e-07
1.363671078e-06
1.89091562e-06
2.585800417e-06
3.482770263e-06
4.572047943e-06