/*--------------------------------*- C++ -*----------------------------------*\
| =========                 |                                                 |
| \\      /  F ield         | OpenFOAM: The Open Source CFD Toolbox           |
|  \\    /   O peration     | Version:  v2006                                 |
|   \\  /    A nd           | Website:  www.openfoam.com                      |
|    \\/     M anipulation  |                                                 |
\*---------------------------------------------------------------------------*/
FoamFile
{
    version     2.0;
    format      ascii;
    class       volScalarField;
    location    "0.15";
    object      HCO;
}
// * * * * * * * * * * * * * * * * * * * * * * * * * * * * * * * * * * * * * //

dimensions      [0 0 0 0 0 0 0];


internalField   nonuniform List<scalar> 
168000
(
1.257257298e-18
1.281202667e-18
1.306199751e-18
1.332772192e-18
1.364388963e-18
1.403142859e-18
1.445289899e-18
1.492754005e-18
1.563199205e-18
1.645925451e-18
1.738746237e-18
1.87142138e-18
2.036047482e-18
2.221174209e-18
2.496158347e-18
2.821909906e-18
3.216398332e-18
3.792135006e-18
4.436825431e-18
5.412775156e-18
6.563804078e-18
8.222038205e-18
1.03085219e-17
1.332080061e-17
1.717376508e-17
2.302581429e-17
3.025394081e-17
4.235609224e-17
5.813930339e-17
8.187504043e-17
1.182682453e-16
1.681200668e-16
8.742680527e-16
2.687546389e-15
1.493066924e-14
9.444201206e-14
1.059064562e-12
1.705458159e-11
3.676702557e-10
6.208838396e-09
1.285299636e-18
1.309076938e-18
1.334230843e-18
1.361652987e-18
1.393376776e-18
1.430961893e-18
1.474193195e-18
1.525736894e-18
1.593910312e-18
1.676846555e-18
1.776415819e-18
1.90824499e-18
2.07296549e-18
2.271724635e-18
2.542165618e-18
2.874575631e-18
3.289345268e-18
3.856000171e-18
4.541480173e-18
5.506560499e-18
6.70724139e-18
8.371591414e-18
1.052883901e-17
1.355849867e-17
1.755301124e-17
2.339839453e-17
3.100411046e-17
4.307257678e-17
5.933195347e-17
8.35822117e-17
1.202544307e-16
1.714953243e-16
9.494453283e-16
2.780193325e-15
1.569652321e-14
1.002793277e-13
1.174391347e-12
1.862091601e-11
4.036651478e-10
6.813976235e-09
1.313127993e-18
1.337232512e-18
1.362725857e-18
1.390659392e-18
1.42260067e-18
1.460071042e-18
1.50424216e-18
1.557826407e-18
1.625801547e-18
1.709729776e-18
1.813189625e-18
1.946057144e-18
2.112821724e-18
2.319870198e-18
2.590914155e-18
2.930138993e-18
3.359221071e-18
3.92744385e-18
4.64071407e-18
5.609012318e-18
6.847509534e-18
8.530100944e-18
1.07462966e-17
1.381136593e-17
1.792319454e-17
2.381127075e-17
3.172276587e-17
4.38419926e-17
6.053721861e-17
8.528630327e-17
1.2235092e-16
1.7490449e-16
1.024703532e-15
2.875205308e-15
1.648455276e-14
1.061729482e-13
1.289942321e-12
2.020726257e-11
4.40028422e-10
7.42355323e-09
1.341073932e-18
1.365666371e-18
1.391594571e-18
1.419981577e-18
1.452269939e-18
1.490053163e-18
1.535064949e-18
1.589972386e-18
1.658578695e-18
1.74382767e-18
1.850037205e-18
1.984799585e-18
2.154400686e-18
2.367428167e-18
2.641560509e-18
2.987712455e-18
3.428340237e-18
4.003371908e-18
4.73800286e-18
5.717054971e-18
6.987335529e-18
8.695062427e-18
1.0963996e-17
1.407543635e-17
1.82911687e-17
2.425329388e-17
3.242428588e-17
4.4653507e-17
6.175766836e-17
8.699808621e-17
1.245425325e-16
1.783521101e-16
1.100289103e-15
2.97251868e-15
1.729311503e-14
1.121245566e-13
1.405912597e-12
2.181235796e-11
4.8258627e-10
8.037758858e-09
1.369289477e-18
1.394425576e-18
1.420845273e-18
1.449709068e-18
1.482447113e-18
1.52073291e-18
1.566546964e-18
1.622539503e-18
1.692126624e-18
1.778846783e-18
1.887369489e-18
2.024431442e-18
2.197202676e-18
2.415241208e-18
2.693702669e-18
3.046886375e-18
3.497820563e-18
4.082277568e-18
4.835158494e-18
5.829093308e-18
7.128207725e-18
8.865130475e-18
1.118374947e-17
1.434846339e-17
1.866108516e-17
2.471737941e-17
3.311843826e-17
4.549968404e-17
6.299541748e-17
8.872551217e-17
1.268178412e-16
1.818421635e-16
1.176405212e-15
3.072077471e-15
1.812083801e-14
1.264792714e-13
1.522456356e-12
2.620036493e-11
5.63348256e-10
8.732270282e-09
1.39785181e-18
1.423558986e-18
1.450509806e-18
1.479890861e-18
1.513154043e-18
1.552040517e-18
1.598657163e-18
1.655671659e-18
1.726402226e-18
1.814676088e-18
1.925363421e-18
2.064931671e-18
2.241031437e-18
2.46370666e-18
2.747151144e-18
3.107476419e-18
3.568206384e-18
4.163439373e-18
4.933138405e-18
5.944311429e-18
7.270951213e-18
9.03960027e-18
1.140663496e-17
1.462919929e-17
1.903545534e-17
2.519906268e-17
3.381189188e-17
4.637545155e-17
6.425224305e-17
9.047446099e-17
1.291682867e-16
1.853781868e-16
1.253219074e-15
3.173832044e-15
1.896664226e-14
1.514715368e-13
1.639706622e-12
3.106770554e-11
6.448983578e-10
9.743309796e-09
1.426810031e-18
1.453108397e-18
1.480621712e-18
1.510559442e-18
1.544404013e-18
1.583952569e-18
1.631392027e-18
1.689429404e-18
1.761392507e-18
1.851277632e-18
1.964098622e-18
2.106294022e-18
2.285817855e-18
2.513017586e-18
2.801820143e-18
3.169404776e-18
3.639768782e-18
4.246523564e-18
5.032460514e-18
6.06230415e-18
7.416036571e-18
9.218121004e-18
1.1633312e-17
1.491697369e-17
1.941580282e-17
2.569556577e-17
3.450923294e-17
4.727738641e-17
6.552966344e-17
9.224929903e-17
1.31587504e-16
1.889633655e-16
1.33086756e-15
3.277736053e-15
1.982973718e-14
1.767288516e-13
1.757765388e-12
3.598613365e-11
7.272299116e-10
1.076236169e-08
1.45620111e-18
1.483108732e-18
1.511211252e-18
1.541740288e-18
1.576210173e-18
1.616466341e-18
1.664757637e-18
1.723842111e-18
1.797097668e-18
1.88864287e-18
2.003614722e-18
2.148521744e-18
2.331545236e-18
2.563273025e-18
2.857675302e-18
3.232644434e-18
3.712649594e-18
4.331387308e-18
5.133416319e-18
6.182883254e-18
7.563745345e-18
9.400537467e-18
1.186420136e-17
1.521144857e-17
1.980306186e-17
2.620519528e-17
3.521364814e-17
4.820321829e-17
6.682899371e-17
9.405329503e-17
1.340708079e-16
1.926006063e-16
1.409461419e-15
3.822871491e-15
2.070950725e-14
2.022579456e-13
1.907193314e-12
4.095505502e-11
8.10336899e-10
1.178948717e-08
1.48605537e-18
1.51358963e-18
1.542305126e-18
1.573455633e-18
1.608587028e-18
1.649588611e-18
1.698763943e-18
1.758927893e-18
1.833524098e-18
1.926775374e-18
2.043935305e-18
2.191623743e-18
2.378218062e-18
2.614528642e-18
2.914708259e-18
3.29719312e-18
3.786930143e-18
4.417981565e-18
5.23618047e-18
6.305975471e-18
7.714258662e-18
9.586802473e-18
1.209958724e-17
1.55124767e-17
2.019781939e-17
2.672695445e-17
3.592738368e-17
4.915148442e-17
6.815138764e-17
9.588892553e-17
1.366147942e-16
1.962925534e-16
1.489099758e-15
4.469464381e-15
2.160539675e-14
2.280651022e-13
2.326254856e-12
4.597416e-11
8.942131985e-10
1.282472789e-08
1.516398815e-18
1.544576866e-18
1.573927197e-18
1.605725986e-18
1.641550199e-18
1.68333069e-18
1.733422848e-18
1.794701182e-18
1.870681395e-18
1.965684013e-18
2.085077849e-18
2.235612198e-18
2.425849174e-18
2.666820156e-18
2.972924171e-18
3.363061081e-18
3.862663895e-18
4.506303253e-18
5.340867251e-18
6.431568684e-18
7.867704625e-18
9.776928478e-18
1.233967562e-17
1.58200204e-17
2.060046106e-17
2.726029367e-17
3.665205406e-17
5.012128871e-17
6.949787047e-17
9.775809964e-17
1.39217027e-16
2.000416089e-16
1.569868468e-15
5.128355598e-15
2.54105018e-14
2.541607171e-13
2.7489266e-12
5.104277562e-11
9.788530571e-10
1.386811008e-08
1.547254413e-18
1.576093413e-18
1.606099223e-18
1.638570788e-18
1.675115981e-18
1.717706165e-18
1.768747484e-18
1.831175572e-18
1.908581062e-18
2.00538025e-18
2.127057792e-18
2.280501202e-18
2.474454667e-18
2.72017424e-18
3.032335534e-18
3.430265281e-18
3.939891861e-18
4.596371805e-18
5.44755977e-18
6.559683523e-18
8.024183597e-18
9.970960889e-18
1.25846276e-17
1.613410524e-17
2.101125886e-17
2.780495014e-17
3.738884998e-17
5.11121334e-17
7.08693652e-17
9.966232746e-17
1.418757847e-16
2.423138914e-16
1.651841794e-15
5.799461779e-15
3.010131819e-14
2.805525461e-13
3.175374554e-12
5.61603193e-11
1.064249668e-09
1.494020128e-08
1.578642951e-18
1.608160215e-18
1.638841419e-18
1.672008722e-18
1.709301007e-18
1.75272983e-18
1.804751872e-18
1.868364835e-18
1.94723589e-18
2.045877053e-18
2.169890178e-18
2.326306053e-18
2.524051964e-18
2.774613634e-18
3.092959071e-18
3.498826609e-18
4.018649815e-18
4.68821773e-18
5.556325087e-18
6.690358341e-18
8.183781656e-18
1.016896337e-17
1.283457865e-17
1.645479387e-17
2.143042298e-17
2.836084509e-17
3.813867837e-17
5.212380117e-17
7.226671363e-17
1.016028362e-16
1.445900433e-16
3.018398613e-16
1.735081936e-15
6.482745972e-15
3.486922194e-14
3.07247137e-13
3.605737333e-12
6.132621156e-11
1.207357348e-09
1.656917015e-08
1.61058363e-18
1.640796747e-18
1.672172881e-18
1.706057912e-18
1.744122052e-18
1.78841718e-18
1.841450722e-18
1.90628325e-18
1.986659654e-18
2.08718843e-18
2.213590295e-18
2.37304289e-18
2.574659154e-18
2.830159573e-18
3.154814152e-18
3.568768491e-18
4.098971631e-18
4.781877085e-18
5.667222099e-18
6.823641259e-18
8.346577736e-18
1.037100981e-17
1.30896498e-17
1.678217146e-17
2.185813227e-17
2.892801802e-17
3.890225664e-17
5.315627263e-17
7.369069394e-17
1.035806639e-16
1.47359306e-16
3.623473895e-16
1.819642262e-15
7.178191119e-15
3.971336754e-14
3.342504845e-13
4.040120885e-12
6.654020662e-11
1.381040882e-09
1.821078756e-08
1.643094499e-18
1.674021412e-18
1.706111881e-18
1.740736057e-18
1.779595946e-18
1.824784144e-18
1.878859304e-18
1.944945666e-18
2.026866933e-18
2.12932922e-18
2.258173921e-18
2.420728537e-18
2.626294823e-18
2.886832942e-18
3.217921977e-18
3.640116172e-18
4.180890813e-18
4.877388835e-18
5.780305666e-18
6.959585946e-18
8.512647415e-18
1.057717998e-17
1.334995418e-17
1.711633754e-17
2.229455176e-17
2.950658477e-17
3.968017628e-17
5.420966843e-17
7.514203538e-17
1.055967235e-16
1.501834252e-16
4.238671111e-16
1.905569947e-15
7.885798019e-15
4.463316847e-14
3.61568119e-13
4.478600117e-12
7.832207334e-11
1.556254694e-09
1.986497444e-08
1.676192766e-18
1.70785184e-18
1.740676099e-18
1.776060543e-18
1.815739537e-18
1.861846964e-18
1.916993355e-18
1.984367487e-18
2.067873004e-18
2.17231498e-18
2.303657402e-18
2.469380434e-18
2.678978046e-18
2.94465484e-18
3.282305137e-18
3.712896325e-18
4.264441168e-18
4.97479361e-18
5.895628795e-18
7.098249387e-18
8.682064916e-18
1.07875572e-17
1.361560101e-17
1.745740157e-17
2.273984246e-17
3.009671086e-17
4.047294561e-17
5.528420874e-17
7.662143034e-17
1.076518466e-16
1.53062531e-16
4.86428374e-16
1.992907138e-15
8.605582914e-15
4.962822557e-14
3.892047921e-13
4.921282406e-12
9.211187786e-11
1.732990348e-09
2.153165184e-08
1.709895039e-18
1.742305106e-18
1.775882791e-18
1.812048535e-18
1.852569697e-18
1.899622127e-18
1.955869015e-18
2.024564634e-18
2.109693761e-18
2.216161914e-18
2.350057674e-18
2.519016615e-18
2.732728433e-18
3.003646851e-18
3.347987377e-18
3.787136828e-18
4.349657116e-18
5.07413314e-18
6.013243808e-18
7.239690698e-18
8.854904192e-18
1.100222718e-17
1.388669802e-17
1.780548053e-17
2.319416679e-17
3.069859459e-17
4.128101865e-17
5.638018489e-17
7.812954423e-17
1.097468158e-16
1.559969709e-16
5.500593537e-16
2.081691897e-15
9.337574867e-15
5.469826902e-14
4.171645704e-13
5.368271465e-12
1.060296377e-10
1.911236404e-09
2.321071406e-08
1.7442175e-18
1.7773979e-18
1.811748924e-18
1.848717061e-18
1.890103341e-18
1.938126343e-18
1.995502791e-18
2.065553503e-18
2.152345666e-18
2.260886837e-18
2.39739227e-18
2.569655712e-18
2.787566167e-18
3.06383118e-18
3.414993453e-18
3.862866624e-18
4.436573805e-18
5.175450022e-18
6.133202977e-18
7.383970516e-18
9.031239511e-18
1.122127746e-17
1.416335291e-17
1.816069757e-17
2.365769132e-17
3.131245642e-17
4.21048146e-17
5.749793962e-17
7.966702361e-17
1.118823873e-16
1.589872637e-16
6.147872095e-16
2.17195899e-15
1.008181361e-14
5.984310063e-14
4.454506404e-13
5.819653939e-12
1.200757439e-10
2.090980852e-09
2.502880578e-08
1.77917604e-18
1.813146653e-18
1.848291285e-18
1.88608308e-18
1.928357455e-18
1.977376536e-18
2.035911532e-18
2.107350936e-18
2.195845709e-18
2.306507137e-18
2.445679306e-18
2.621316955e-18
2.843512047e-18
3.125230721e-18
3.483349057e-18
3.940115637e-18
4.525227167e-18
5.278787617e-18
6.255558888e-18
7.531150688e-18
9.211145795e-18
1.144479716e-17
1.444567441e-17
1.852318133e-17
2.41305881e-17
3.193853234e-17
4.294473095e-17
5.863785337e-17
8.12345029e-17
1.140593065e-16
1.620340626e-16
6.806382195e-16
2.263740529e-15
1.083834835e-14
6.506252963e-14
4.740648707e-13
6.27550047e-12
1.342505571e-10
2.272211269e-09
2.754593006e-08
1.814786365e-18
1.84956764e-18
1.885526561e-18
1.924163544e-18
1.967349125e-18
2.017389846e-18
2.077112416e-18
2.149974201e-18
2.240211385e-18
2.353040758e-18
2.494937484e-18
2.674020182e-18
2.900587512e-18
3.187869081e-18
3.553080761e-18
4.018914709e-18
4.615653934e-18
5.384190037e-18
6.380364646e-18
7.681294126e-18
9.394698842e-18
1.167287694e-17
1.473377285e-17
1.889306547e-17
2.461303517e-17
3.257706973e-17
4.380115241e-17
5.980033477e-17
8.283260979e-17
1.16278319e-16
1.651381279e-16
7.476378999e-16
2.357066518e-15
1.160723886e-14
7.035630578e-14
5.085495214e-13
6.971660823e-12
1.485543099e-10
2.555164933e-09
3.008137016e-08
1.851064082e-18
1.886677061e-18
1.923471416e-18
1.962975449e-18
2.007095575e-18
2.05818365e-18
2.119122949e-18
2.193440982e-18
2.285460674e-18
2.400506185e-18
2.545186084e-18
2.727785843e-18
2.958814653e-18
3.251770601e-18
3.624215982e-18
4.099295568e-18
4.707891652e-18
5.491702148e-18
6.507674016e-18
7.834464753e-18
9.581975469e-18
1.190560904e-17
1.502776068e-17
1.927048848e-17
2.510521672e-17
3.322832485e-17
4.467445694e-17
6.098581417e-17
8.446196973e-17
1.185401779e-16
1.683003043e-16
8.158111087e-16
2.451965332e-15
1.238855858e-14
7.572411627e-14
6.121362438e-13
8.47424625e-12
1.629880001e-10
2.893895731e-09
3.263498282e-08
1.888024761e-18
1.924491106e-18
1.962142543e-18
2.002535884e-18
2.04761419e-18
2.099775565e-18
2.161960965e-18
2.237769366e-18
2.331612033e-18
2.448922432e-18
2.596444961e-18
2.782635005e-18
3.018216231e-18
3.316960357e-18
3.696782963e-18
4.181290798e-18
4.801978681e-18
5.601369594e-18
6.63754151e-18
7.990727504e-18
9.773053636e-18
1.21430874e-17
1.532775273e-17
1.965559353e-17
2.560732294e-17
3.389256131e-17
4.55650199e-17
6.21947393e-17
8.612320935e-17
1.208456483e-16
1.715215043e-16
8.851821288e-16
2.548463972e-15
1.318238295e-14
8.116655191e-14
7.169207892e-13
9.99197103e-12
1.775517973e-10
3.235397371e-09
3.520654919e-08
1.925683996e-18
1.963026011e-18
2.001556722e-18
2.04286207e-18
2.088922551e-18
2.142183475e-18
2.205644633e-18
2.28297785e-18
2.378684387e-18
2.498309045e-18
2.648734547e-18
2.838589356e-18
3.078815676e-18
3.383464165e-18
3.770810756e-18
4.264933826e-18
4.897954205e-18
5.713238823e-18
6.770022463e-18
8.150148347e-18
9.968012547e-18
1.238540772e-17
1.563386646e-17
2.00485283e-17
2.611954993e-17
3.457004922e-17
4.64732169e-17
6.342757224e-17
8.781695931e-17
1.2319551e-16
1.748026936e-16
9.55774732e-16
2.646588323e-15
1.398879876e-14
8.668421261e-14
8.229193228e-13
1.152484957e-11
2.005588436e-10
3.579673689e-09
3.779598537e-08
1.964057447e-18
2.002298104e-18
2.041730853e-18
2.083971396e-18
2.131038461e-18
2.185425545e-18
2.25019247e-18
2.329085338e-18
2.426697135e-18
2.548686089e-18
2.702075847e-18
2.895671207e-18
3.140637097e-18
3.451308576e-18
3.84632921e-18
4.350258911e-18
4.995858241e-18
5.827357115e-18
6.905173086e-18
8.312794328e-18
1.016693275e-17
1.263266758e-17
1.594622215e-17
2.044944498e-17
2.664209947e-17
3.52610647e-17
4.73994258e-17
6.468478757e-17
8.954385639e-17
1.255905594e-16
1.781448806e-16
1.027612213e-15
2.746363334e-15
1.480789942e-14
9.227769861e-14
9.301474954e-13
1.307296043e-11
2.362395856e-10
3.926719114e-09
4.099032075e-08
2.003160882e-18
2.04232384e-18
2.082682e-18
2.125881453e-18
2.173979968e-18
2.229520242e-18
2.295623348e-18
2.376111152e-18
2.475670145e-18
2.60007416e-18
2.756490443e-18
2.953903499e-18
3.203705282e-18
3.52052088e-18
3.923368972e-18
4.437301143e-18
5.095731646e-18
5.943772612e-18
7.043050524e-18
8.478733623e-18
1.036989621e-17
1.288496657e-17
1.626494295e-17
2.085850017e-17
2.717517894e-17
3.596588962e-17
4.834402812e-17
6.596687113e-17
9.130454504e-17
1.280316091e-16
1.815491061e-16
1.100717384e-15
2.847813034e-15
1.56397809e-14
9.794759347e-14
1.038619411e-12
1.463649224e-11
2.722390318e-10
4.276516296e-09
4.475390841e-08
2.043010208e-18
2.083119843e-18
2.12442742e-18
2.168610059e-18
2.217765393e-18
2.274486349e-18
2.341956512e-18
2.424075035e-18
2.525623764e-18
2.652494378e-18
2.812000497e-18
3.013309798e-18
3.268045704e-18
3.591129106e-18
4.001961473e-18
4.526096441e-18
5.197616137e-18
6.06253435e-18
7.183712901e-18
8.64803559e-18
1.057698641e-17
1.314240638e-17
1.659015507e-17
2.127585487e-17
2.771900115e-17
3.668481154e-17
4.930741005e-17
6.727431916e-17
9.309967841e-17
1.305194872e-16
1.850164349e-16
1.175112508e-15
2.950960429e-15
1.648453645e-14
1.036944335e-13
1.148348468e-12
1.621560209e-11
3.085565583e-10
4.636085822e-09
4.854308799e-08
2.083621501e-18
2.124702926e-18
2.166984592e-18
2.21217529e-18
2.262413354e-18
2.320342989e-18
2.38921159e-18
2.472997166e-18
2.576578821e-18
2.705968402e-18
2.868628753e-18
3.073914309e-18
3.33368452e-18
3.663162023e-18
4.082138942e-18
4.616681558e-18
5.301554297e-18
6.183692287e-18
7.327219373e-18
8.82077083e-18
1.078828845e-17
1.340509088e-17
1.692198782e-17
2.170167439e-17
2.827378427e-17
3.741812371e-17
5.028996326e-17
6.860763788e-17
9.492991885e-17
1.33055035e-16
1.885479461e-16
1.250819125e-15
3.055827263e-15
1.734224874e-14
1.095186597e-13
1.259347329e-12
1.78104201e-11
3.451912941e-10
5.24527005e-09
5.235782623e-08
2.125011033e-18
2.167090124e-18
2.210371244e-18
2.256595501e-18
2.307942779e-18
2.36710964e-18
2.437408608e-18
2.522898168e-18
2.62855664e-18
2.760518427e-18
2.926398547e-18
3.135741872e-18
3.400648579e-18
3.736649141e-18
4.163934398e-18
4.709094089e-18
5.4075896e-18
6.307297335e-18
7.473630171e-18
8.997011247e-18
1.100388907e-17
1.367312622e-17
1.726057369e-17
2.213612842e-17
2.883975179e-17
3.816612514e-17
5.129208542e-17
6.996734315e-17
9.679593797e-17
1.356391031e-16
1.921447237e-16
1.327857696e-15
3.162433671e-15
1.821297938e-14
1.154204535e-13
1.371628116e-12
1.942102768e-11
3.821460248e-10
5.85920176e-09
5.619809024e-08
2.167195289e-18
2.210298716e-18
2.254605374e-18
2.301889348e-18
2.354372937e-18
2.414806151e-18
2.486568006e-18
2.573799118e-18
2.681579041e-18
2.816167197e-18
2.985333807e-18
3.198817973e-18
3.468965422e-18
3.811620717e-18
4.24738166e-18
4.803372479e-18
5.515766427e-18
6.433401394e-18
7.623006648e-18
9.176830107e-18
1.122387677e-17
1.394662091e-17
1.760604837e-17
2.257939096e-17
2.941713246e-17
3.892912069e-17
5.231418071e-17
7.135396032e-17
9.86984165e-17
1.382725432e-16
1.958078466e-16
1.406246997e-15
3.27079668e-15
1.909675554e-14
1.399087144e-13
1.485203195e-12
2.104745028e-11
4.194232938e-10
6.477873642e-09
6.020606857e-08
2.210190997e-18
2.254346243e-18
2.299705274e-18
2.348075812e-18
2.401723449e-18
2.463452765e-18
2.536710653e-18
2.625721563e-18
2.735668358e-18
2.87293801e-18
3.045459063e-18
3.263168748e-18
3.538663293e-18
3.888107765e-18
4.332515355e-18
4.899556037e-18
5.626130083e-18
6.562057383e-18
7.775411329e-18
9.360302095e-18
1.144834189e-17
1.422568589e-17
1.79585509e-17
2.303164035e-17
3.000616036e-17
3.970742121e-17
5.335666015e-17
7.276802425e-17
1.006380448e-16
1.409561947e-16
1.995383652e-16
1.486003027e-15
3.805554593e-15
1.999377027e-14
1.648417023e-13
1.600068349e-12
2.398806128e-11
4.570254272e-10
7.101287664e-09
6.56754005e-08
2.254015137e-18
2.299250532e-18
2.345689548e-18
2.395174215e-18
2.450014313e-18
2.51307013e-18
2.587857861e-18
2.678687533e-18
2.790847449e-18
2.930854731e-18
3.106799456e-18
3.328820988e-18
3.609771143e-18
3.966142053e-18
4.419370925e-18
4.997684944e-18
5.738726825e-18
6.693319271e-18
7.930907953e-18
9.547503379e-18
1.167737663e-17
1.451043461e-17
1.831822363e-17
2.349305929e-17
3.060707483e-17
4.050134365e-17
5.441994203e-17
7.421007975e-17
1.026155266e-16
1.436908565e-16
2.340792714e-16
1.567149362e-15
4.475069817e-15
2.090414545e-14
1.901030429e-13
1.716223743e-12
2.890800601e-11
5.222090689e-10
7.7294712e-09
7.118024062e-08
2.298684964e-18
2.345029713e-18
2.392577132e-18
2.443204242e-18
2.499265917e-18
2.563679319e-18
2.640031398e-18
2.732719551e-18
2.847139702e-18
2.989941799e-18
3.169380746e-18
3.395802154e-18
3.682318638e-18
4.045756124e-18
4.507984637e-18
5.097800277e-18
5.853603881e-18
6.827242116e-18
8.089561519e-18
9.738511662e-18
1.191107519e-17
1.480098309e-17
1.868521232e-17
2.396383488e-17
3.122012059e-17
4.131121122e-17
5.550445219e-17
7.568068179e-17
1.046315773e-16
1.464774175e-16
2.935727791e-16
1.649709776e-15
5.155446713e-15
2.192252591e-14
2.156945848e-13
1.833676121e-12
3.387612289e-11
6.055088616e-10
8.362415223e-09
7.672060459e-08
2.344218023e-18
2.391702235e-18
2.440387313e-18
2.492185955e-18
2.549499057e-18
2.615301844e-18
2.693253509e-18
2.787840649e-18
2.904569053e-18
3.050224241e-18
3.233229324e-18
3.46414038e-18
3.756336171e-18
4.126983295e-18
4.598393598e-18
5.199944018e-18
5.970809475e-18
6.963882095e-18
8.251438337e-18
9.933406243e-18
1.214953374e-17
1.509744999e-17
1.905966618e-17
2.444415861e-17
3.184554777e-17
4.213735358e-17
5.661062433e-17
7.718039583e-17
1.066869264e-16
1.493168573e-16
3.541568808e-16
1.733706454e-15
5.846750844e-15
2.666559046e-14
2.416179671e-13
2.171812498e-12
3.889319423e-11
6.895227857e-10
9.288777947e-09
8.22967062e-08
2.390632163e-18
2.439286883e-18
2.48913974e-18
2.542139812e-18
2.600734957e-18
2.667959676e-18
2.747546926e-18
2.844074382e-18
2.963159998e-18
3.111727679e-18
3.298372217e-18
3.533864485e-18
3.831854869e-18
4.209857676e-18
4.690635769e-18
5.304159079e-18
6.090392855e-18
7.10329654e-18
8.416606069e-18
1.013226807e-17
1.23928506e-17
1.539995668e-17
1.944173796e-17
2.493422646e-17
3.248361197e-17
4.298010694e-17
5.773890036e-17
7.87097984e-17
1.087823218e-16
1.522101653e-16
4.158499992e-16
1.819161129e-15
6.549151987e-15
3.147838732e-14
2.678754328e-13
2.591502729e-12
4.395954625e-11
7.742521348e-10
1.033001565e-08
8.790847941e-08
2.437945552e-18
2.487802792e-18
2.538854447e-18
2.593086685e-18
2.652995282e-18
2.721675256e-18
2.802934885e-18
2.901444843e-18
3.022937605e-18
3.174478349e-18
3.364837109e-18
3.605003988e-18
3.908906605e-18
4.294414181e-18
4.784749977e-18
5.410489317e-18
6.212404317e-18
7.245543978e-18
8.585133775e-18
1.03351798e-17
1.264112618e-17
1.57086273e-17
1.983158395e-17
2.543423893e-17
3.313457435e-17
4.38398143e-17
5.888973069e-17
8.026947758e-17
1.109185282e-16
1.55158347e-16
4.786710256e-16
1.906096139e-15
7.26281251e-15
3.63615634e-14
2.944702831e-13
3.015882569e-12
4.907530135e-11
8.597000832e-10
1.137898329e-08
9.543835168e-08
2.486176688e-18
2.537269463e-18
2.589551865e-18
2.645047872e-18
2.706302157e-18
2.776471517e-18
2.859441142e-18
2.959976675e-18
3.083927527e-18
3.238503109e-18
3.432652345e-18
3.677589115e-18
3.987524014e-18
4.38068854e-18
4.880775937e-18
5.518979558e-18
6.336895235e-18
7.39068416e-18
8.757091962e-18
1.054222585e-17
1.289446315e-17
1.60235888e-17
2.022936408e-17
2.594440109e-17
3.379870174e-17
4.471682557e-17
6.006357446e-17
8.186003325e-17
1.130963263e-16
1.581624185e-16
5.426391175e-16
1.994534144e-15
7.987890647e-15
4.131581576e-14
3.21405578e-13
3.444979359e-12
5.424051728e-11
9.458689157e-10
1.243569786e-08
1.033507677e-07
2.535344418e-18
2.587706778e-18
2.641252838e-18
2.698045118e-18
2.760678181e-18
2.832371896e-18
2.91708999e-18
3.019695092e-18
3.14615602e-18
3.303829455e-18
3.501846948e-18
3.751650817e-18
4.067740504e-18
4.468717317e-18
4.978754265e-18
5.62967562e-18
6.463918089e-18
7.538778106e-18
8.932552628e-18
1.075349245e-17
1.315296643e-17
1.634497105e-17
2.063524196e-17
2.646492268e-17
3.447626672e-17
4.56114978e-17
6.126089983e-17
8.348207723e-17
1.153165121e-16
1.612234091e-16
6.077737101e-16
2.084498052e-15
8.724541909e-15
4.634183744e-14
3.486841493e-13
3.878814219e-12
5.94551457e-11
1.032759993e-09
1.350017597e-08
1.113126114e-07
2.585467945e-18
2.639135013e-18
2.693978639e-18
2.752100626e-18
2.816146444e-18
2.889400348e-18
2.975906272e-18
3.080625888e-18
3.209649957e-18
3.370485535e-18
3.572450636e-18
3.827220779e-18
4.149590273e-18
4.558537924e-18
5.078726499e-18
5.742624334e-18
6.593526495e-18
7.689888137e-18
9.11158931e-18
1.09690677e-17
1.341674328e-17
1.667290686e-17
2.104938499e-17
2.699601816e-17
3.516754774e-17
4.65241953e-17
6.248218421e-17
8.51362334e-17
1.17579897e-16
1.643423624e-16
6.74094503e-16
2.176010967e-15
9.472918948e-15
5.144030459e-14
3.763086111e-13
4.317399642e-12
6.471896e-11
1.147355874e-09
1.457243576e-08
1.193239822e-07
2.636566841e-18
2.691574851e-18
2.747750982e-18
2.807237076e-18
2.872730542e-18
2.947581371e-18
3.035915398e-18
3.142795455e-18
3.274436839e-18
3.438500166e-18
3.644493833e-18
3.904331444e-18
4.233108323e-18
4.650188641e-18
5.180735123e-18
5.857873571e-18
6.725775235e-18
7.844077912e-18
9.294277126e-18
1.118904164e-17
1.368590336e-17
1.700753209e-17
2.147196435e-17
2.75379068e-17
3.587282923e-17
4.745528982e-17
6.372791445e-17
8.682313782e-17
1.198873072e-16
1.675203364e-16
7.416214441e-16
2.269096133e-15
1.023317125e-14
5.661185982e-14
4.042813807e-13
4.760735715e-12
7.372480628e-11
1.323909795e-09
1.606674342e-08
1.273850464e-07
2.688661063e-18
2.745047397e-18
2.802592039e-18
2.863477639e-18
2.930454595e-18
3.00694001e-18
3.097143364e-18
3.206230803e-18
3.340544819e-18
3.507902847e-18
3.718007685e-18
3.983016018e-18
4.318330479e-18
4.743708635e-18
5.284823584e-18
5.975472268e-18
6.860720291e-18
8.001412474e-18
9.480692827e-18
1.141350626e-17
1.396055877e-17
1.734898566e-17
2.190315517e-17
2.809081275e-17
3.659240174e-17
4.840516077e-17
6.499858706e-17
8.854343885e-17
1.222395838e-16
1.707584039e-16
8.10374713e-16
2.363776883e-15
1.100544482e-14
6.185708517e-14
4.326044302e-13
5.20884072e-12
8.764857469e-11
1.501944632e-09
1.773903868e-08
1.379290279e-07
2.74177096e-18
2.799574191e-18
2.858524455e-18
2.920845991e-18
2.989343263e-18
3.067501887e-18
3.159616765e-18
3.270959572e-18
3.408002713e-18
3.578723777e-18
3.793024079e-18
4.063308498e-18
4.405293404e-18
4.839137978e-18
5.391036316e-18
6.095470454e-18
6.998418875e-18
8.161958283e-18
9.67091484e-18
1.164255562e-17
1.424082415e-17
1.769740966e-17
2.234313652e-17
2.865496517e-17
3.732656202e-17
4.937419534e-17
6.629470841e-17
9.02977972e-17
1.246375827e-16
1.740576526e-16
8.803747042e-16
2.460076608e-15
1.178988227e-14
6.717645996e-14
4.612789624e-13
5.661768534e-12
1.017039658e-10
1.681459517e-09
1.942338298e-08
1.492421924e-07
2.795917287e-18
2.855177218e-18
2.91557136e-18
2.979366333e-18
3.04942176e-18
3.129293206e-18
3.223362815e-18
3.337010052e-18
3.476840017e-18
3.650993875e-18
3.869575662e-18
4.145243681e-18
4.494034623e-18
4.936517668e-18
5.499418766e-18
6.217919279e-18
7.138929463e-18
8.325783256e-18
9.865023318e-18
1.187628585e-17
1.45268167e-17
1.805294941e-17
2.279209154e-17
2.92305983e-17
3.807561322e-17
5.036278869e-17
6.761679484e-17
9.20868859e-17
1.270821737e-16
1.774191842e-16
9.51642008e-16
2.558018747e-15
1.258662426e-14
7.257030689e-14
4.903048623e-13
6.119566893e-12
1.158918691e-10
1.862453978e-09
2.111975674e-08
1.606238437e-07
2.851121219e-18
2.911878928e-18
2.973756387e-18
3.039063402e-18
3.110715873e-18
3.192340777e-18
3.288409364e-18
3.404411198e-18
3.547086929e-18
3.724744791e-18
3.947695853e-18
4.228857191e-18
4.58459254e-18
5.035889653e-18
5.610017416e-18
6.342871041e-18
7.282311829e-18
8.492956812e-18
1.006310019e-17
1.21147952e-17
1.481865628e-17
1.841575352e-17
2.32502075e-17
2.981795156e-17
3.883986496e-17
5.137134411e-17
6.896537284e-17
9.391139027e-17
1.295742403e-16
1.80844114e-16
1.024197386e-15
2.657626812e-15
1.339581425e-14
7.803872542e-14
5.675460756e-13
6.582274798e-12
1.302131981e-10
2.044926382e-09
2.282814168e-08
1.720739363e-07
2.907404358e-18
2.969702243e-18
3.033103683e-18
3.09996249e-18
3.173251977e-18
3.256672033e-18
3.354784913e-18
3.473192653e-18
3.618774366e-18
3.800008935e-18
4.027418868e-18
4.314185492e-18
4.67700646e-18
5.137296853e-18
5.722879811e-18
6.470379217e-18
7.428627082e-18
8.663549911e-18
1.026522919e-17
1.235818417e-17
1.511646544e-17
1.878597399e-17
2.371767589e-17
3.041726966e-17
3.961963347e-17
5.240027314e-17
7.034097913e-17
9.577200762e-17
1.321146787e-16
1.843335685e-16
1.09806173e-15
2.758924305e-15
1.421759334e-14
8.35823781e-14
6.727542387e-13
7.986399242e-12
1.446690025e-10
2.228872635e-09
2.454851248e-08
1.835924479e-07
2.964788749e-18
3.028670575e-18
3.093637928e-18
3.162089458e-18
3.237057054e-18
3.322315046e-18
3.422518637e-18
3.543384762e-18
3.691933978e-18
3.876819485e-18
4.108779739e-18
4.401265912e-18
4.771316608e-18
5.240783185e-18
5.838054586e-18
6.600498496e-18
7.577937701e-18
8.837635095e-18
1.047149596e-17
1.260655549e-17
1.542036952e-17
1.916376624e-17
2.419469252e-17
3.102880273e-17
4.041524175e-17
5.344999577e-17
7.17441607e-17
9.766944686e-17
1.347043956e-16
1.87888683e-16
1.17325599e-15
2.861934589e-15
1.505210275e-14
8.920218762e-14
7.792307402e-13
9.513724779e-12
1.592586477e-10
2.480440796e-09
2.706590686e-08
1.99006515e-07
3.023296888e-18
3.088807837e-18
3.155384347e-18
3.225470754e-18
3.302158709e-18
3.389298544e-18
3.491640403e-18
3.615018594e-18
3.766598178e-18
3.955210416e-18
4.191814332e-18
4.490136667e-18
4.867564159e-18
5.346393584e-18
5.955591491e-18
6.733284807e-18
7.730307569e-18
9.015286532e-18
1.068198801e-17
1.28600142e-17
1.573049668e-17
1.954928923e-17
2.468145759e-17
3.165280637e-17
4.12270197e-17
5.452094052e-17
7.317547482e-17
9.960442781e-17
1.373443045e-16
1.915105951e-16
1.249801074e-15
2.966680707e-15
1.589948492e-14
9.489902645e-14
8.869899642e-13
1.105724165e-11
1.739817304e-10
2.824123999e-09
2.964331166e-08
2.151612843e-07
3.082951739e-18
3.150138457e-18
3.218368725e-18
3.290133431e-18
3.36858519e-18
3.457651934e-18
3.562180785e-18
3.688125961e-18
3.842800151e-18
4.035216519e-18
4.276559371e-18
4.580836877e-18
4.965791255e-18
5.454174036e-18
6.075541424e-18
6.868795355e-18
7.885802015e-18
9.196580061e-18
1.089679488e-17
1.311866772e-17
1.604697801e-17
1.994270552e-17
2.51781758e-17
3.228954184e-17
4.205530422e-17
5.56135446e-17
7.463548906e-17
1.015776803e-16
1.400353182e-16
1.952004339e-16
1.327717664e-15
3.073184969e-15
1.675987984e-14
1.006737107e-13