/*--------------------------------*- C++ -*----------------------------------*\
| =========                 |                                                 |
| \\      /  F ield         | OpenFOAM: The Open Source CFD Toolbox           |
|  \\    /   O peration     | Version:  v2006                                 |
|   \\  /    A nd           | Website:  www.openfoam.com                      |
|    \\/     M anipulation  |                                                 |
\*---------------------------------------------------------------------------*/
FoamFile
{
    version     2.0;
    format      ascii;
    class       volScalarField;
    location    "0.15";
    object      HO2;
}
// * * * * * * * * * * * * * * * * * * * * * * * * * * * * * * * * * * * * * //

dimensions      [0 0 0 0 0 0 0];


internalField   nonuniform List<scalar> 
168000
(
1.609369986e-08
1.612337332e-08
1.616207144e-08
1.62159747e-08
1.632597165e-08
1.651654455e-08
1.674344155e-08
1.702792893e-08
1.756759743e-08
1.824231183e-08
1.902603179e-08
2.023880045e-08
2.179539616e-08
2.357083101e-08
2.629337268e-08
2.955246306e-08
3.353183794e-08
3.939942678e-08
4.599018939e-08
5.601324138e-08
6.785737835e-08
8.494868816e-08
1.06475238e-07
1.375719506e-07
1.773642452e-07
2.378121319e-07
3.124906216e-07
4.375206972e-07
6.005971593e-07
8.458394067e-07
1.221862984e-06
1.736954083e-06
2.674444574e-06
4.280099009e-06
6.8592589e-06
1.098458214e-05
1.785758545e-05
2.890669476e-05
4.588328341e-05
7.001379365e-05
1.645216827e-08
1.647258823e-08
1.650615112e-08
1.656352595e-08
1.666865203e-08
1.683956013e-08
1.707296756e-08
1.739821225e-08
1.790777646e-08
1.857966371e-08
1.943211007e-08
2.063226877e-08
2.218573292e-08
2.410155989e-08
2.677390495e-08
3.009952793e-08
3.428777135e-08
4.005947998e-08
4.707043164e-08
5.698059342e-08
6.933639664e-08
8.649078261e-08
1.087474774e-07
1.400239567e-07
1.812777574e-07
2.416577183e-07
3.202356644e-07
4.449194713e-07
6.129146652e-07
8.634733478e-07
1.242380467e-06
1.771823001e-06
2.741013237e-06
4.362137018e-06
6.993585839e-06
1.121921708e-05
1.824002778e-05
2.943322378e-05
4.66609079e-05
7.098299299e-05
1.680782899e-08
1.682527893e-08
1.685602707e-08
1.69128286e-08
1.701416922e-08
1.717753875e-08
1.741571954e-08
1.775853503e-08
1.826080714e-08
1.893846389e-08
1.982855613e-08
2.103596264e-08
2.260710401e-08
2.460693027e-08
2.728280897e-08
3.06766862e-08
3.501160765e-08
4.079776816e-08
4.809456968e-08
5.803720515e-08
7.078261312e-08
8.81251187e-08
1.109900853e-07
1.426323732e-07
1.850975951e-07
2.459191818e-07
3.276551972e-07
4.528646966e-07
6.253624146e-07
8.810753031e-07
1.26403733e-06
1.807042153e-06
2.807653488e-06
4.446269185e-06
7.131802203e-06
1.145611517e-05
1.862321351e-05
2.996647992e-05
4.744649081e-05
7.195930214e-05
1.716495869e-08
1.718142135e-08
1.721052923e-08
1.726601886e-08
1.736495427e-08
1.752564568e-08
1.77673875e-08
1.811949984e-08
1.862349636e-08
1.931050461e-08
2.022575663e-08
2.144934849e-08
2.304660932e-08
2.510600621e-08
2.781130685e-08
3.127464768e-08
3.572738248e-08
4.158227437e-08
4.909848742e-08
5.915134158e-08
7.222414241e-08
8.982586017e-08
1.132350519e-07
1.453562632e-07
1.888944981e-07
2.504814129e-07
3.348976848e-07
4.612445144e-07
6.379669183e-07
8.987565478e-07
1.286676739e-06
1.842658487e-06
2.874583544e-06
4.532439138e-06
7.27361984e-06
1.169534406e-05
1.900778965e-05
3.050603849e-05
4.824380858e-05
7.294302459e-05
1.752551447e-08
1.754160551e-08
1.756971099e-08
1.762409226e-08
1.772171376e-08
1.788182871e-08
1.812659863e-08
1.848516047e-08
1.899459921e-08
1.969254225e-08
2.062810043e-08
2.187203637e-08
2.34989331e-08
2.560761719e-08
2.83552187e-08
3.188911423e-08
3.644670086e-08
4.239740529e-08
5.01008834e-08
6.030654163e-08
7.367632369e-08
9.157912439e-08
1.155010666e-07
1.481724355e-07
1.927113109e-07
2.552712653e-07
3.420639771e-07
4.69982138e-07
6.507499969e-07
9.165992261e-07
1.310180637e-06
1.878713091e-06
2.941983307e-06
4.62059731e-06
7.418798097e-06
1.194878115e-05
1.939426749e-05
3.108367659e-05
4.907401328e-05
7.392485684e-05
1.789048485e-08
1.790643623e-08
1.793393031e-08
1.7987591e-08
1.808467713e-08
1.824525064e-08
1.849294663e-08
1.885710117e-08
1.937364383e-08
2.008333378e-08
2.103746777e-08
2.230382099e-08
2.39619775e-08
2.611591954e-08
2.891257364e-08
3.251814397e-08
3.717521052e-08
4.323569158e-08
5.111163185e-08
6.149438248e-08
7.514765593e-08
9.337763498e-08
1.177992424e-07
1.510680062e-07
1.965739477e-07
2.602426402e-07
3.492229249e-07
4.790251886e-07
6.637299884e-07
9.346640763e-07
1.334460593e-06
1.915242489e-06
3.01000084e-06
4.710699741e-06
7.567147643e-06
1.221967723e-05
1.978308817e-05
3.167256694e-05
4.991231952e-05
7.487516457e-05
1.826049555e-08
1.827642797e-08
1.830357631e-08
1.83568755e-08
1.845397522e-08
1.861561025e-08
1.886635027e-08
1.923597417e-08
1.976047782e-08
2.048243967e-08
2.145469622e-08
2.274463916e-08
2.443499404e-08
2.663292708e-08
2.948247653e-08
3.316091018e-08
3.791571985e-08
4.409367365e-08
5.213606916e-08
6.271067737e-08
7.664298224e-08
9.521776623e-08
1.201363753e-07
1.540360495e-07
2.004981264e-07
2.653668523e-07
3.564218739e-07
4.883383135e-07
6.769225614e-07
9.529961996e-07
1.359450845e-06
1.952279576e-06
3.078757337e-06
4.802705391e-06
7.718529804e-06
1.249344617e-05
2.017458989e-05
3.226763823e-05
5.075865878e-05
7.583300337e-05
1.863601648e-08
1.865200978e-08
1.86790041e-08
1.873223042e-08
1.882974014e-08
1.899284818e-08
1.924684561e-08
1.96220838e-08
2.015508783e-08
2.088974455e-08
2.1880195e-08
2.31945202e-08
2.491779094e-08
2.715966756e-08
3.006456451e-08
3.381711814e-08
3.86696937e-08
4.496986598e-08
5.317719419e-08
6.395347683e-08
7.816519634e-08
9.709790921e-08
1.225167972e-07
1.57073069e-07
2.044934812e-07
2.706264128e-07
3.636937189e-07
4.978980636e-07
6.903412871e-07
9.71629357e-07
1.385102984e-06
1.989854368e-06
3.148350861e-06
4.911003377e-06
7.872836613e-06
1.277016091e-05
2.057218979e-05
3.286881857e-05
5.161296921e-05
7.679843079e-05
1.901743271e-08
1.903354563e-08
1.90605288e-08
1.911390607e-08
1.92121225e-08
1.937701807e-08
1.963451795e-08
2.001560933e-08
2.055752579e-08
2.130526682e-08
2.231420118e-08
2.365354891e-08
2.541040131e-08
2.769671365e-08
3.065874321e-08
3.44867321e-08
3.943796735e-08
4.586375221e-08
5.423679951e-08
6.522201637e-08
7.971615633e-08
9.901756858e-08
1.249434314e-07
1.601775371e-07
2.085660611e-07
2.760110241e-07
3.710616436e-07
5.076893279e-07
7.039980718e-07
9.905891243e-07
1.411381834e-06
2.027994173e-06
3.218869167e-06
5.024412169e-06
8.029970596e-06
1.304988957e-05
2.100077217e-05
3.347607048e-05
5.247518787e-05
7.777148595e-05
1.940507432e-08
1.942135193e-08
1.944843272e-08
1.950213462e-08
1.960128834e-08
1.976822875e-08
2.002947833e-08
2.041668991e-08
2.096787787e-08
2.172908338e-08
2.275688599e-08
2.412184215e-08
2.591294681e-08
2.82444284e-08
3.126505741e-08
3.516984701e-08
4.022108577e-08
4.677529062e-08
5.531605437e-08
6.651616162e-08
8.12971733e-08
1.009768636e-07
1.274183932e-07
1.633490557e-07
2.127198373e-07
2.815150043e-07
3.785423088e-07
5.177028462e-07
7.17903495e-07
1.009895215e-06
1.438262224e-06
2.066723796e-06
3.290388305e-06
5.139977938e-06
8.209809999e-06
1.333274481e-05
2.143304673e-05
3.408931255e-05
5.334525562e-05
7.875219354e-05
1.97992328e-08
1.981571061e-08
1.984297348e-08
1.989713693e-08
1.999741331e-08
2.016661757e-08
2.04318542e-08
2.08254563e-08
2.138625095e-08
2.216129969e-08
2.320839841e-08
2.459953561e-08
2.642558327e-08
2.880307929e-08
3.188362696e-08
3.586662761e-08
4.101946371e-08
4.770467157e-08
5.641580586e-08
6.783611537e-08
8.290927199e-08
1.02976253e-07
1.299433349e-07
1.665878791e-07
2.169576076e-07
2.871356321e-07
3.861479996e-07
5.279334711e-07
7.320670802e-07
1.02956322e-06
1.465726358e-06
2.114863742e-06
3.362974011e-06
5.257686058e-06
8.398360218e-06
1.36188107e-05
2.186918322e-05
3.470847428e-05
5.422310249e-05
7.973824266e-05
2.020017186e-08
2.021687851e-08
2.024439043e-08
2.029912568e-08
2.040067828e-08
2.05723375e-08
2.084178477e-08
2.124204211e-08
2.181276618e-08
2.260203771e-08
2.366888276e-08
2.508677666e-08
2.694848004e-08
2.93728919e-08
3.251461466e-08
3.657727899e-08
4.183346069e-08
4.86521993e-08
5.753673505e-08
6.918226264e-08
8.455332945e-08
1.05016383e-07
1.325196441e-07
1.698946443e-07
2.212815315e-07
2.928720856e-07
3.938880703e-07
5.383789505e-07
7.464975125e-07
1.049605808e-06
1.49376365e-06
2.167572709e-06
3.436681359e-06
5.377530041e-06
8.590008934e-06
1.39081582e-05
2.230932342e-05
3.533348557e-05
5.511817852e-05
8.06702537e-05
2.060813495e-08
2.062509415e-08
2.065290938e-08
2.070830734e-08
2.081126661e-08
2.098555069e-08
2.125941828e-08
2.16665873e-08
2.224755576e-08
2.305143073e-08
2.413848563e-08
2.558372085e-08
2.748181298e-08
2.995407517e-08
3.315820998e-08
3.730203204e-08
4.266341573e-08
4.961823476e-08
5.867943826e-08
7.055508865e-08
8.623014868e-08
1.070980053e-07
1.351485585e-07
1.732702197e-07
2.256934449e-07
2.987247633e-07
4.017699188e-07
5.490390758e-07
7.612028197e-07
1.070033691e-06
1.522368956e-06
2.221150727e-06
3.511557599e-06
5.49950689e-06
8.784722157e-06
1.42008523e-05
2.275357567e-05
3.596431667e-05
5.602604426e-05
8.160950158e-05
2.102335081e-08
2.104058266e-08
2.10687462e-08
2.112488352e-08
2.122936276e-08
2.140642505e-08
2.168491006e-08
2.209923871e-08
2.269076088e-08
2.350962103e-08
2.461735848e-08
2.609053036e-08
2.802576253e-08
3.054683361e-08
3.38146205e-08
3.804113584e-08
4.350966319e-08
5.060316828e-08
5.984446962e-08
7.195513528e-08
8.794049753e-08
1.092219312e-07
1.378312344e-07
1.767156216e-07
2.301950405e-07
3.046948513e-07
4.097996419e-07
5.599150836e-07
7.761905239e-07
1.09085629e-06
1.551540745e-06
2.275624917e-06
3.587644498e-06
5.623616738e-06
8.982476306e-06
1.449695293e-05
2.320201658e-05
3.663061204e-05
5.694190894e-05
8.255594104e-05
2.144603743e-08
2.146355941e-08
2.149210938e-08
2.154905208e-08
2.165515166e-08
2.183513248e-08
2.211842117e-08
2.254014972e-08
2.31425305e-08
2.397675857e-08
2.510565849e-08
2.660737331e-08
2.858051362e-08
3.115137318e-08
3.448406749e-08
3.879485359e-08
4.437253988e-08
5.160740678e-08
6.103236357e-08
7.338297803e-08
8.968512947e-08
1.113890084e-07
1.405687871e-07
1.802319684e-07
2.347879693e-07
3.107840478e-07
4.179824776e-07
5.71009238e-07
7.914677663e-07
1.112082185e-06
1.581280346e-06
2.331021261e-06
3.66497937e-06
5.749862429e-06
9.183255331e-06
1.479651159e-05
2.365475596e-05
3.731173578e-05
5.786572846e-05
8.350952691e-05
2.187640504e-08
2.189423271e-08
2.192320208e-08
2.198100818e-08
2.208881853e-08
2.227184791e-08
2.256011752e-08
2.298947955e-08
2.36030204e-08
2.445300016e-08
2.560354882e-08
2.713442357e-08
2.914625615e-08
3.176790411e-08
3.516678335e-08
3.956346024e-08
4.525238814e-08
5.263136789e-08
6.224364685e-08
7.483921381e-08
9.146479457e-08
1.13600109e-07
1.433623159e-07
1.838204554e-07
2.394738962e-07
3.169943892e-07
4.263231028e-07
5.823245372e-07
8.070414088e-07
1.13371945e-06
1.611591342e-06
2.387364702e-06
3.743595911e-06
5.878249052e-06
9.387048381e-06
1.509957235e-05
2.411189987e-05
3.799917961e-05
5.879744301e-05
8.447019872e-05
2.231465839e-08
2.233280585e-08
2.23622237e-08
2.242094508e-08
2.253054893e-08
2.271674874e-08
2.301016914e-08
2.344739278e-08
2.407239245e-08
2.493850899e-08
2.611119857e-08
2.767186079e-08
2.972318539e-08
3.239664239e-08
3.586301027e-08
4.034724101e-08
4.614955714e-08
5.367547744e-08
6.34788451e-08
7.63244546e-08
9.328024564e-08
1.158561227e-07
1.462129194e-07
1.874823414e-07
2.442545286e-07
3.233281401e-07
4.348258345e-07
5.938645101e-07
8.229181183e-07
1.155775883e-06
1.642479076e-06
2.444679282e-06
3.8235249e-06
6.00878357e-06
9.593847483e-06
1.540616975e-05
2.457353693e-05
3.869296283e-05
5.973698983e-05
8.542657295e-05
2.276099844e-08
2.277947873e-08
2.280937114e-08
2.286905494e-08
2.298052905e-08
2.317001468e-08
2.346874982e-08
2.391405878e-08
2.455081415e-08
2.543345412e-08
2.662878269e-08
2.821987036e-08
3.031150239e-08
3.303781037e-08
3.657299932e-08
4.114649052e-08
4.706440339e-08
5.474016852e-08
6.473848651e-08
7.783932424e-08
9.513224164e-08
1.181579554e-07
1.491217061e-07
1.912189409e-07
2.491316299e-07
3.297877247e-07
4.43494765e-07
6.056330738e-07
8.391044358e-07
1.178259173e-06
1.673950289e-06
2.502988263e-06
3.904794762e-06
6.141474607e-06
9.803644964e-06
1.571632404e-05
2.503973938e-05
3.939310326e-05
6.068430396e-05
8.632852067e-05
2.321562371e-08
2.323444906e-08
2.32648398e-08
2.332552949e-08
2.343894587e-08
2.363182765e-08
2.393603677e-08
2.438965138e-08
2.503845819e-08
2.593801028e-08
2.715648185e-08
2.877864353e-08
3.091141419e-08
3.369163713e-08
3.729700992e-08
4.196151213e-08
4.799729093e-08
5.582588122e-08
6.602310397e-08
7.93844569e-08
9.702154991e-08
1.205065284e-07
1.520898009e-07
1.9503162e-07
2.541070249e-07
3.363756843e-07
4.523338543e-07
6.176344364e-07
8.556068326e-07
1.20117701e-06
1.706012821e-06
2.562314231e-06
3.987432059e-06
6.276332637e-06
1.001643076e-05
1.603198926e-05
2.551728448e-05
4.009961239e-05
6.163562512e-05
8.72370314e-05
2.367873133e-08
2.369791337e-08
2.372882443e-08
2.379056055e-08
2.390598757e-08
2.410237179e-08
2.441221053e-08
2.487434866e-08
2.553550217e-08
2.645235754e-08
2.769448238e-08
2.934837737e-08
3.1523134e-08
3.435835861e-08
3.803530949e-08
4.279261755e-08
4.89485914e-08
5.693306269e-08
6.733323645e-08
8.096049651e-08
9.894894771e-08
1.229027784e-07
1.551183495e-07
1.98921794e-07
2.591826011e-07
3.430946514e-07
4.61346992e-07
6.298730297e-07
8.724317555e-07
1.224537159e-06
1.738675384e-06
2.622679191e-06
4.071461907e-06
6.413370535e-06
1.023219229e-05
1.637549878e-05
2.602238342e-05
4.081253949e-05
6.259274717e-05
8.815205379e-05
2.415051794e-08
2.417006784e-08
2.420151978e-08
2.426434063e-08
2.438184373e-08
2.45818336e-08
2.489745484e-08
2.53683327e-08
2.604212844e-08
2.697668122e-08
2.824297618e-08
2.992927482e-08
3.21468813e-08
3.503821762e-08
3.878817319e-08
4.364012656e-08
4.99186841e-08
5.806216733e-08
6.866942991e-08
8.256809672e-08
1.009152234e-07
1.253476591e-07
1.582085216e-07
2.028909256e-07
2.643603074e-07
3.499473339e-07
4.705380405e-07
6.42353464e-07
8.895856638e-07
1.248347511e-06
1.771947391e-06
2.684104636e-06
4.156908207e-06
6.552601524e-06
1.045095329e-05
1.672298037e-05
2.653257142e-05
4.153189294e-05
6.355769852e-05
8.907350943e-05
2.463118031e-08
2.465110893e-08
2.46831212e-08
2.474706329e-08
2.486670566e-08
2.507040203e-08
2.53919567e-08
2.587178956e-08
2.655852389e-08
2.75111717e-08
2.88021606e-08
3.052154467e-08
3.278288183e-08
3.573146386e-08
3.955588375e-08
4.450436684e-08
5.0907956e-08
5.921365706e-08
7.003223804e-08
8.420792115e-08
1.029211774e-07
1.278421415e-07
1.613615138e-07
2.069405238e-07
2.696421533e-07
3.569365057e-07
4.799108639e-07
6.550804977e-07
9.070750573e-07
1.272616107e-06
1.805838805e-06
2.746611608e-06
4.243793871e-06
6.69404082e-06
1.067273787e-05
1.707448762e-05
2.704785332e-05
4.227305121e-05
6.453049001e-05
9.000136826e-05
2.512091601e-08
2.514123395e-08
2.517382514e-08
2.523892356e-08
2.536076667e-08
2.556826863e-08
2.589590633e-08
2.638490918e-08
2.708487992e-08
2.805602435e-08
2.937223844e-08
3.112540156e-08
3.343136765e-08
3.643835389e-08
4.033873135e-08
4.538567381e-08
5.191680185e-08
6.038800158e-08
7.14222228e-08
8.588064375e-08
1.049676234e-07
1.303872156e-07
1.645785503e-07
2.110721432e-07
2.750302061e-07
3.640650026e-07
4.894693492e-07
6.680590175e-07
9.249064987e-07
1.297351157e-06
1.840360026e-06
2.810220724e-06
4.33214098e-06
6.837704794e-06
1.089757015e-05
1.743007245e-05
2.756825552e-05
4.304388845e-05
6.551110589e-05
9.089810602e-05
2.561992385e-08
2.564064157e-08
2.567382958e-08
2.574011833e-08
2.586422232e-08
2.607562771e-08
2.64094973e-08
2.690788541e-08
2.762139236e-08
2.861143948e-08
2.995341788e-08
3.174106594e-08
3.40925771e-08
3.71591511e-08
4.11370135e-08
4.628439064e-08
5.294562423e-08
6.158567864e-08
7.283995494e-08
8.758694933e-08
1.070553888e-07
1.329838913e-07
1.678608851e-07
2.152873835e-07
2.805265902e-07
3.713357188e-07
4.992174204e-07
6.812940253e-07
9.43086629e-07
1.322561042e-06
1.875521794e-06
2.874952176e-06
4.421970803e-06
6.98361027e-06
1.112547358e-05
1.77897816e-05
2.809384143e-05
4.382161085e-05
6.649949715e-05
9.176600331e-05
2.612840431e-08
2.614953215e-08
2.618333435e-08
2.62508466e-08
2.637727065e-08
2.65926765e-08
2.693292656e-08
2.7440916e-08
2.816826145e-08
2.917762232e-08
3.054591246e-08
3.236876408e-08
3.476675483e-08
3.789412566e-08
4.195103504e-08
4.720086815e-08
5.399483368e-08
6.280717435e-08
7.42860145e-08
8.932753411e-08
1.091853161e-07
1.356331992e-07
1.712098024e-07
2.195878886e-07
2.861334855e-07
3.787516067e-07
5.091590493e-07
6.947906304e-07
9.616221785e-07
1.348254298e-06
1.911335088e-06
2.940825666e-06
4.5133037e-06
7.131773594e-06
1.135646971e-05
1.81536595e-05
2.862466384e-05
4.460620491e-05
6.749484659e-05
9.263980219e-05
2.66465599e-08
2.666810816e-08
2.670254153e-08
2.67713098e-08
2.69001124e-08
2.71196153e-08
2.746639458e-08
2.798420266e-08
2.872569187e-08
2.975478296e-08
3.114994108e-08
3.300872805e-08
3.545415175e-08
3.864355455e-08
4.278110806e-08
4.813546488e-08
5.50648488e-08
6.405298343e-08
7.576099126e-08
9.110310627e-08
1.113582633e-07
1.383361918e-07
1.74626618e-07
2.239753468e-07
2.918531263e-07
3.863156768e-07
5.192982632e-07
7.08554044e-07
9.805199719e-07
1.3744396e-06
1.94781104e-06
3.007860258e-06
4.606158915e-06
7.282209258e-06
1.159057625e-05
1.852174814e-05
2.916076649e-05
4.539765182e-05
6.847052649e-05
9.351949498e-05
2.717459549e-08
2.719657447e-08
2.723165567e-08
2.730171203e-08
2.743295124e-08
2.765664764e-08
2.80101054e-08
2.85379511e-08
2.929389275e-08
3.03431364e-08
3.176572794e-08
3.366119572e-08
3.615502505e-08
3.94077215e-08
4.362755194e-08
4.908854709e-08
5.615609643e-08
6.532360953e-08
7.726548523e-08
9.291438654e-08
1.135751048e-07
1.410939442e-07
1.781126792e-07
2.284514901e-07
2.976878011e-07
3.940309981e-07
5.296391509e-07
7.225895763e-07
9.997869286e-07
1.401125716e-06
1.984960831e-06
3.076074061e-06
4.700554264e-06
7.434928054e-06
1.182780049e-05
1.88940877e-05
2.970217675e-05
4.619601175e-05
6.945381002e-05
9.44050741e-05
2.771271861e-08
2.773513862e-08
2.777088411e-08
2.784226029e-08
2.797599396e-08
2.820398044e-08
2.85642668e-08
2.910237114e-08
2.987307768e-08
3.094290254e-08
3.239350263e-08
3.432641075e-08
3.68696382e-08
4.018691703e-08
4.449069334e-08
5.006048887e-08
5.726901177e-08
6.661956551e-08
7.8800107e-08
9.47621088e-08
1.158367322e-07
1.43907555e-07
1.816693663e-07
2.330180947e-07
3.036398521e-07
4.019006993e-07
5.401858674e-07
7.369026346e-07
1.019430062e-06
1.428321426e-06
2.022795588e-06
3.145483687e-06
4.796504813e-06
7.589934739e-06
1.209434734e-05
1.927071919e-05
3.024890314e-05
4.700133965e-05
7.044468546e-05
9.529068691e-05
2.826113966e-08
2.828401106e-08
2.832043715e-08
2.839316472e-08
2.852945064e-08
2.876182416e-08
2.912909039e-08
2.967767675e-08
3.046346483e-08
3.155430623e-08
3.303350008e-08
3.500462262e-08
3.759826096e-08
4.098143844e-08
4.537086625e-08
5.105167217e-08
5.840403859e-08
6.794137375e-08
8.036547831e-08
9.664702061e-08
1.181440548e-07
1.467781471e-07
1.852980924e-07
2.376769805e-07
3.097116753e-07
4.0992797e-07
5.509426379e-07
7.514987238e-07
1.039456483e-06
1.456035381e-06
2.061326142e-06
3.216103293e-06
4.907972274e-06
7.747263158e-06
1.236459922e-05
1.965162861e-05
3.081601524e-05
4.781368575e-05
7.144315597e-05
9.61233337e-05
2.882007218e-08
2.884340543e-08
2.888052835e-08
2.895463877e-08
2.909353484e-08
2.933039294e-08
2.97047917e-08
3.026408614e-08
3.106527692e-08
3.217757728e-08
3.368596062e-08
3.569608667e-08
3.83411694e-08
4.179158987e-08
4.626841201e-08
5.206248694e-08
5.956162938e-08
6.928956645e-08
8.196223238e-08
9.856988382e-08
1.204980008e-07
1.49706868e-07
1.890003042e-07
2.424300115e-07
3.159057205e-07
4.181160623e-07
5.619137615e-07
7.663834505e-07
1.059873441e-06
1.484275814e-06
2.107594035e-06
3.287953742e-06
5.025399214e-06
7.906934678e-06
1.263841002e-05
2.003681651e-05
3.141126908e-05
4.865111757e-05
7.244926538e-05
9.696138623e-05
2.938973306e-08
2.941353872e-08
2.945137466e-08
2.952689939e-08
2.966846377e-08
2.990990474e-08
3.029159034e-08
3.086182188e-08
3.167874138e-08
3.281295057e-08
3.435113001e-08
3.640106407e-08
3.909864594e-08
4.261768232e-08
4.718367943e-08
5.309333121e-08
6.074224559e-08
7.066468593e-08
8.35910144e-08
1.005314751e-07
1.228995172e-07
1.526948911e-07
1.92777483e-07
2.472790962e-07
3.222244919e-07
4.264682917e-07
5.731036145e-07
7.815625256e-07
1.080688303e-06
1.513051886e-06
2.160271999e-06
3.361056074e-06
5.144731003e-06
8.069613749e-06
1.291579976e-05
2.042630523e-05
3.201235106e-05
4.950740945e-05
7.346299924e-05
9.780484687e-05
2.997034272e-08
2.999463146e-08
3.003319665e-08
3.011016724e-08
3.025445843e-08
3.05005815e-08
3.088971008e-08
3.147111095e-08
3.230409034e-08
3.346066602e-08
3.50292595e-08
3.711982193e-08
3.987097939e-08
4.346003371e-08
4.811702482e-08
5.414461128e-08
6.194635781e-08
7.206728494e-08
8.525248196e-08
1.025325865e-07
1.253495711e-07
1.557434159e-07
1.966311441e-07
2.522261875e-07
3.286705486e-07
4.349880393e-07
5.845166536e-07
7.970417672e-07
1.101908585e-06
1.542373693e-06
2.213915417e-06
3.435429919e-06
5.265979129e-06
8.260262136e-06
1.31967862e-05
2.084282241e-05
3.261935584e-05
5.037104229e-05
7.444793708e-05
9.865374817e-05
3.05621253e-08
3.058690796e-08
3.062621867e-08
3.07046668e-08
3.085174378e-08
3.110264925e-08
3.1499379e-08
3.20921849e-08
3.294156079e-08
3.412096875e-08
3.572060587e-08
3.785263333e-08
4.065846501e-08
4.431896895e-08
4.906881211e-08
5.521674181e-08
6.317444599e-08
7.349792703e-08
8.694730547e-08
1.04574026e-07
1.278491499e-07
1.588536687e-07
2.005628387e-07
2.572732836e-07
3.352465053e-07
4.436787533e-07
5.961574191e-07
8.128271069e-07
1.123541987e-06
1.572251433e-06
2.268540587e-06
3.511094506e-06
5.389173357e-06
8.453713251e-06
1.348139364e-05
2.127204612e-05
3.323232287e-05
5.124202937e-05
7.542662881e-05
9.950808008e-05
3.116530886e-08
3.119059641e-08
3.1230669e-08
3.131062658e-08
3.146054889e-08
3.171633826e-08
3.212082957e-08
3.272527987e-08
3.359139459e-08
3.479410906e-08
3.642543149e-08
3.859977734e-08
4.146140455e-08
4.519482001e-08
5.003941298e-08
5.631014599e-08
6.442699971e-08
7.495718678e-08
8.867616857e-08
1.06656618e-07
1.303992623e-07
1.620269033e-07
2.045741531e-07
2.624224282e-07
3.419550329e-07
4.525439504e-07
6.080305379e-07
8.289245946e-07
1.145596386e-06
1.602695469e-06
2.324164225e-06
3.588069604e-06
5.514342152e-06
8.649993087e-06
1.376965785e-05
2.170606583e-05
3.385126696e-05
5.212040334e-05
7.641258611e-05
0.0001003237294
3.178012551e-08
3.180592911e-08
3.184678006e-08
3.192827925e-08
3.208110708e-08
3.234188316e-08
3.27542988e-08
3.337063678e-08
3.425383861e-08
3.54803426e-08
3.714400441e-08
3.936153914e-08
4.228010637e-08
4.608792602e-08
5.102920693e-08
5.742525572e-08
6.570451834e-08
7.644565024e-08
9.04397686e-08
1.087812039e-07
1.330009383e-07
1.652644016e-07
2.086667104e-07
2.676757113e-07
3.4879886e-07
4.615872182e-07
6.201407266e-07
8.45340401e-07
1.168079819e-06
1.633716273e-06
2.38080328e-06
3.66637526e-06
5.641513253e-06
8.84912965e-06
1.4061612e-05
2.214490947e-05
3.447619509e-05
5.300618766e-05
7.740582498e-05
0.0001011366354
3.240681158e-08
3.243314258e-08
3.247478852e-08
3.25578618e-08
3.271365603e-08
3.297952308e-08
3.340002836e-08
3.402850134e-08
3.492914481e-08
3.617993037e-08
3.78765984e-08
4.01382101e-08
4.311488547e-08
4.699863338e-08
5.203858144e-08
5.85625118e-08
6.700751138e-08
7.796391515e-08
9.223881699e-08
1.109486424e-07
1.356552304e-07
1.685674741e-07
2.128421705e-07
2.730352697e-07
3.557807731e-07
4.708122164e-07
6.324927933e-07
8.62080819e-07
1.191000483e-06
1.665324451e-06
2.438474947e-06
3.746031743e-06
5.770713921e-06
9.051150784e-06
1.435728676e-05
2.258859864e-05
3.510710141e-05
5.389939632e-05
7.8406361e-05
0.0001019546194
3.304560779e-08
3.307247774e-08
3.311493548e-08
3.319961566e-08
3.335843797e-08
3.362950179e-08
3.405826467e-08
3.469912427e-08
3.561757033e-08
3.689313886e-08
3.86234931e-08
4.09300878e-08
4.396606361e-08
4.792729584e-08
5.306793212e-08
5.972236409e-08
6.833649863e-08
7.951259135e-08
9.407403968e-08
1.131598106e-07
1.383632138e-07
1.719374607e-07
2.171022307e-07
2.785032878e-07
3.629036185e-07
4.802226786e-07
6.450916408e-07
8.791522648e-07
1.214366731e-06
1.697530754e-06
2.497196653e-06
3.827059495e-06
5.901970916e-06
9.256083657e-06
1.465671045e-05
2.303714611e-05
3.574395848e-05
5.480454438e-05
7.941421124e-05
0.0001027776918
3.369675939e-08
3.372418004e-08
3.376746657e-08
3.385378687e-08
3.40156998e-08
3.429206779e-08
3.472925902e-08
3.538276129e-08
3.63193776e-08
3.762024015e-08
3.938497404e-08
4.17374762e-08
4.483396944e-08
4.887427465e-08
5.411766283e-08
6.09052717e-08
6.969201051e-08
8.109230108e-08
9.594617758e-08
1.154156035e-07
1.411259871e-07
1.753757309e-07
2.214486268e-07
2.840819983e-07
3.701703027e-07
4.898224144e-07
6.57942268e-07
8.965612795e-07
1.238187071e-06
1.730346085e-06
2.556986046e-06
3.909479081e-06
6.035310439e-06
9.463954083e-06
1.495990927e-05
2.349055195e-05
3.640353906e-05
5.572741343e-05
8.03827932e-05
0.0001036058696
3.436051628e-08
3.438849962e-08
3.443263216e-08
3.45206262e-08
3.468569319e-08
3.496747448e-08
3.541326773e-08
3.607967334e-08
3.703483443e-08
3.836151196e-08
4.016133278e-08
4.256068569e-08
4.571893855e-08
4.983993867e-08
5.518818588e-08
6.211170324e-08
7.107458828e-08
8.270367934e-08
9.785598695e-08
1.177169357e-07
1.439446729e-07
1.78883685e-07
2.258831332e-07
2.897736835e-07
3.775837942e-07
4.996153109e-07
6.710497726e-07
9.143145299e-07
1.262470159e-06
1.763781495e-06
2.617860977e-06
3.993311143e-06
6.170758083e-06
9.674785445e-06
1.526690458e-05
2.394883486e-05
3.709127849e-05
5.665802335e-05
8.133959314e-05
0.0001044107874
3.503713321e-08
3.506569145e-08
3.511068744e-08
3.520038932e-08
3.536867475e-08
3.565598025e-08
3.611055224e-08
3.679012663e-08
3.776421416e-08
3.91172378e-08
4.0952867e-08
4.340003322e-08
4.662131362e-08
5.082466452e-08
5.627992215e-08
6.334213699e-08
7.248478435e-08
8.434737423e-08
9.980423987e-08
1.200647409e-07
1.468204181e-07
1.824627545e-07
2.304075643e-07
2.955806753e-07
3.851471244e-07
5.096053342e-07
6.844193523e-07
9.324188088e-07
1.287224805e-06
1.797848188e-06
2.679839488e-06
4.078576375e-06
6.308338843e-06
9.888596994e-06
1.55777094e-05
2.441204991e-05
3.778551906e-05
5.759636961e-05
8.230328689e-05
0.0001052123946
3.572686985e-08
3.575601546e-08
3.58018926e-08
3.589333689e-08
3.606490615e-08
3.635784865e-08
3.682137922e-08
3.751439276e-08
3.85077957e-08
3.988770708e-08
4.175988062e-08
4.425584241e-08
4.754144457e-08
5.182883671e-08
5.739330133e-08
6.459706117e-08
7.392316254e-08
8.602404729e-08
1.017917246e-07
1.22459973e-07
1.49754395e-07
1.861144026e-07
2.350237746e-07
3.015053572e-07
3.928633891e-07
5.197965315e-07
6.980563069e-07
9.508810353e-07
1.312459961e-06
1.832557512e-06
2.742939792e-06
4.165295511e-06
6.448077373e-06
1.010540169e-05
1.589232246e-05
2.488024592e-05
3.848630471e-05
5.854244972e-05
8.327386323e-05
0.0001060188545
3.6429991e-08
3.645973669e-08
3.650651293e-08
3.659973473e-08
3.677465426e-08
3.707334847e-08
3.754602074e-08
3.825274887e-08
3.926586373e-08
4.067321518e-08
4.258268391e-08
4.512844367e-08
4.847968863e-08
5.285284781e-08
5.852876203e-08
6.587697409e-08
7.539029837e-08
8.773437386e-08
1.038192461e-07
1.249036063e-07
1.527478015e-07
1.89840125e-07
2.3973366e-07
3.075501644e-07
4.007357494e-07
5.301930324e-07
7.119660396e-07
9.697082536e-07
1.338184721e-06
1.867920954e-06
2.807180254e-06
4.25348935e-06
6.589998812e-06
1.03252035e-05
1.622763348e-05
2.535346275e-05
3.919368054e-05
5.949625515e-05
8.425131172e-05
0.0001068301639
3.714676667e-08
3.717712544e-08
3.722481901e-08
3.731985392e-08
3.749819126e-08
3.780275392e-08
3.828475435e-08
3.900547774e-08
4.003870876e-08
4.147406363e-08
4.342159359e-08
4.601817431e-08
4.943641055e-08
5.389709862e-08
5.968675204e-08
6.718238446e-08
7.688677935e-08
8.947904344e-08
1.058876265e-07
1.273966363e-07
1.558018619e-07
1.936414506e-07
2.445391583e-07
3.137175853e-07
4.087674335e-07
5.407990504e-07
7.261540575e-07
9.889076306e-07
1.364408305e-06
1.903950116e-06
2.872579352e-06
4.34317868e-06
6.734127893e-06
1.054802906e-05
1.657651725e-05
2.585839348e-05
3.990769839e-05
6.045776449e-05
8.523561785e-05
0.0001076463212
3.787747227e-08
3.790845738e-08
3.79570868e-08
3.805397101e-08
3.823579481e-08
3.854634472e-08
3.903786322e-08
3.977286793e-08
4.082662727e-08
4.229056017e-08
4.427693299e-08
4.692537872e-08
5.04119827e-08
5.496199829e-08
6.086772849e-08
6.851381162e-08
7.841320526e-08
9.125876006e-08
1.079977051e-07
1.299400798e-07
1.589178271e-07
1.975199423e-07
2.494422502e-07
3.200101626e-07
4.169617378e-07
5.516188844e-07
7.406259722e-07
1.008486451e-06
1.391140041e-06
1.940656688e-06
2.939155617e-06
4.434384167e-06
6.880489358e-06
1.077391542e-05
1.692960676e-05
2.637180664e-05
4.062832691e-05
6.142448528e-05
8.615651921e-05
0.0001084490462
3.862238872e-08
3.865401371e-08
3.870359781e-08
3.880236806e-08
3.898774816e-08
3.930440625e-08
3.980563631e-08
4.055521388e-08
4.162992184e-08
4.312301895e-08
4.514903216e-08
4.785040846e-08
5.140678524e-08
5.604796457e-08
6.207215807e-08
6.987178574e-08
7.99701885e-08
9.307424264e-08
1.101503397e-07
1.325349761e-07
1.620969759e-07
2.014771976e-07
2.544449601e-07
3.264304939e-07
4.25322028e-07
5.6265692e-07
7.553875003e-07
1.028452112e-06
1.418389328e-06
1.978052382e-06
3.006927539e-06
4.52712619e-06
7.029108174e-06
1.100289765e-05
1.728694969e-05
2.689066233e-05
4.135554616e-05
6.23956003e-05
8.708006675e-05
0.0001092534409
3.938180259e-08
3.941408131e-08
3.946463921e-08
3.956533286e-08
3.975434029e-08
4.007722969e-08
4.058836842e-08
4.135281609e-08
4.24489013e-08
4.397176057e-08
4.603822802e-08
4.879362242e-08
5.242120627e-08
5.715542391e-08
6.330051725e-08
7.125684814e-08
8.155835435e-08
9.492622534e-08
1.123464061e-07
1.351823866e-07
1.65340615e-07
2.055148491e-07
2.59549357e-07
3.329812333e-07
4.338517407e-07
5.739176308e-07
7.704444626e-07
1.048812111e-06
1.446165554e-06
2.01614882e-06
3.075913409e-06
4.62142448e-06
7.180008867e-06
1.123500852e-05