/*--------------------------------*- C++ -*----------------------------------*\
| =========                 |                                                 |
| \\      /  F ield         | OpenFOAM: The Open Source CFD Toolbox           |
|  \\    /   O peration     | Version:  v2006                                 |
|   \\  /    A nd           | Website:  www.openfoam.com                      |
|    \\/     M anipulation  |                                                 |
\*---------------------------------------------------------------------------*/
FoamFile
{
    version     2.0;
    format      ascii;
    class       volScalarField;
    location    "0.15";
    object      O;
}
// * * * * * * * * * * * * * * * * * * * * * * * * * * * * * * * * * * * * * //

dimensions      [0 0 0 0 0 0 0];


internalField   nonuniform List<scalar> 
168000
(
2.026608e-14
2.057926719e-14
2.091185193e-14
2.127247647e-14
2.17163323e-14
2.227672942e-14
2.289486554e-14
2.360131832e-14
2.467331081e-14
2.594352568e-14
2.737814344e-14
2.94427963e-14
3.201477943e-14
3.491613992e-14
3.923203511e-14
4.435298388e-14
5.056243097e-14
5.962398634e-14
6.978189811e-14
8.515389167e-14
1.032929452e-13
1.294224875e-13
1.623057638e-13
2.097773673e-13
2.70503148e-13
3.627291582e-13
4.766530449e-13
6.67377252e-13
9.161270232e-13
1.290203241e-12
1.863759478e-12
2.649431591e-12
6.586972107e-12
1.579134112e-11
4.584454712e-11
1.496279033e-10
6.110909087e-10
2.794232898e-09
1.498655962e-08
9.309062684e-08
2.071764723e-14
2.102567781e-14
2.135849413e-14
2.173058331e-14
2.217441978e-14
2.271488481e-14
2.334878728e-14
2.411823912e-14
2.515388308e-14
2.642677791e-14
2.796652022e-14
3.001782854e-14
3.25913403e-14
3.570598025e-14
3.99512464e-14
4.517702743e-14
5.170466201e-14
6.062493859e-14
7.142363407e-14
8.662614165e-14
1.0554654e-13
1.317733518e-13
1.657712669e-13
2.135175889e-13
2.764733212e-13
3.685958225e-13
4.88468374e-13
6.786640794e-13
9.349169269e-13
1.317102377e-12
1.89505669e-12
2.702619546e-12
6.968576087e-12
1.626162279e-11
4.761957184e-11
1.566878945e-10
6.504368426e-10
2.949484783e-09
1.59080359e-08
9.950002042e-08
2.116573524e-14
2.147654113e-14
2.181248862e-14
2.219064937e-14
2.263614478e-14
2.317324599e-14
2.382060314e-14
2.46210181e-14
2.565275525e-14
2.694055717e-14
2.854073567e-14
3.060813094e-14
3.321363809e-14
3.645805262e-14
4.071318315e-14
4.604623783e-14
5.2798663e-14
6.174453374e-14
7.298014649e-14
8.823435322e-14
1.077501478e-13
1.342649571e-13
1.691915924e-13
2.174964737e-13
2.823006362e-13
3.750969719e-13
4.997871907e-13
6.907845664e-13
9.539055418e-13
1.34395279e-12
1.928091935e-12
2.756341769e-12
7.350590624e-12
1.674390938e-11
4.944599267e-11
1.638159832e-10
6.8985926e-10
3.106720226e-09
1.683894281e-08
1.059564318e-07
2.161569332e-14
2.193181127e-14
2.2272381e-14
2.265565578e-14
2.310480216e-14
2.364523395e-14
2.430445149e-14
2.512453447e-14
2.616531845e-14
2.747315919e-14
2.911593052e-14
3.121278402e-14
3.386266787e-14
3.720076305e-14
4.150463555e-14
4.694672263e-14
5.388067172e-14
6.293425861e-14
7.450597614e-14
8.993021082e-14
1.09946633e-13
1.368578936e-13
1.726155484e-13
2.216515708e-13
2.880930128e-13
3.820570073e-13
5.108359778e-13
7.035680751e-13
9.731333169e-13
1.370924216e-12
1.962625984e-12
2.810669875e-12
7.734266648e-12
1.723787773e-11
5.132000193e-11
1.710142048e-10
7.294247273e-10
3.265814009e-09
1.785725652e-08
1.12461868e-07
2.206997283e-14
2.239224078e-14
2.273828958e-14
2.312700119e-14
2.358136831e-14
2.412807628e-14
2.479851374e-14
2.563449125e-14
2.668976403e-14
2.801998165e-14
2.969851296e-14
3.183113881e-14
3.453061185e-14
3.79472743e-14
4.231930153e-14
4.787206665e-14
5.496817922e-14
6.417048539e-14
7.602954926e-14
9.168865241e-14
1.121593861e-13
1.395309854e-13
1.760716513e-13
2.259475021e-13
2.939158156e-13
3.893643449e-13
5.217685836e-13
7.168974703e-13
9.926335448e-13
1.398141956e-12
1.998478763e-12
2.86566655e-12
8.120635465e-12
1.774324372e-11
5.323841963e-11
1.820693676e-10
7.691858463e-10
3.530108137e-09
1.939161977e-08
1.19577103e-07
2.252981657e-14
2.285860872e-14
2.32107112e-14
2.360544829e-14
2.40661772e-14
2.462066231e-14
2.530228594e-14
2.615313057e-14
2.722540803e-14
2.857927569e-14
3.029123454e-14
3.246285535e-14
3.521439339e-14
3.870378542e-14
4.315420433e-14
4.881937835e-14
5.606969546e-14
6.544189686e-14
7.756588067e-14
9.349685493e-14
1.144013698e-13
1.422731344e-13
1.79576859e-13
2.303646145e-13
2.998085817e-13
3.969486623e-13
5.326900429e-13
7.306928506e-13
1.012434205e-12
1.425698662e-12
2.035515383e-12
2.921387507e-12
8.510545849e-12
1.825975537e-11
5.519874396e-11
1.979967815e-10
8.091880009e-10
3.813414573e-09
2.094095609e-08
1.290514678e-07
2.299601407e-14
2.333158019e-14
2.369017178e-14
2.409150112e-14
2.455942761e-14
2.512261083e-14
2.581569798e-14
2.668138805e-14
2.77720359e-14
2.915043507e-14
3.089532606e-14
3.31078241e-14
3.591292156e-14
3.947330155e-14
4.400798963e-14
4.97874313e-14
5.718945177e-14
6.674325249e-14
7.912308744e-14
9.534844574e-14
1.16679973e-13
1.450788121e-13
1.83141543e-13
2.34892345e-13
3.057952928e-13
4.047662024e-13
5.436725851e-13
7.449002883e-13
1.032559203e-12
1.453663132e-12
2.073635537e-12
2.97788293e-12
8.904692557e-12
1.878717741e-11
5.719914249e-11
2.140931079e-10
8.494659869e-10
4.099694581e-09
2.250513888e-08
1.38600916e-07
2.346915919e-14
2.381171025e-14
2.417714607e-14
2.458555409e-14
2.506131653e-14
2.563386656e-14
2.633883142e-14
2.721971073e-14
2.832963848e-14
2.97333131e-14
3.151139341e-14
3.376608327e-14
3.662592356e-14
4.025735775e-14
4.488010739e-14
5.077579252e-14
5.83296561e-14
6.807230381e-14
8.070573307e-14
9.724045937e-14
1.189996124e-13
1.479455665e-13
1.867723159e-13
2.395253625e-13
3.118906502e-13
4.12790288e-13
5.547663948e-13
7.594840148e-13
1.053029246e-12
1.482086868e-12
2.112765385e-12
3.035198612e-12
9.303637744e-12
2.009991159e-11
5.923818856e-11
2.303626357e-10
8.937193066e-10
4.388913569e-09
2.408405378e-08
1.48226021e-07
2.394973876e-14
2.429946936e-14
2.467205272e-14
2.508795086e-14
2.557206242e-14
2.615452395e-14
2.687182906e-14
2.776836901e-14
2.889830267e-14
3.032795219e-14
3.213979152e-14
3.44377589e-14
3.735345666e-14
4.105681079e-14
4.577041398e-14
5.17844151e-14
5.949156906e-14
6.942827163e-14
8.231654711e-14
9.917173513e-14
1.213631255e-13
1.50872645e-13
1.904736408e-13
2.442613396e-13
3.181038854e-13
4.21005213e-13
5.660068425e-13
7.74420981e-13
1.073862501e-12
1.511008885e-12
2.152851276e-12
3.093376207e-12
9.707884473e-12
2.159852197e-11
6.131459416e-11
2.46809369e-10
9.706702173e-10
4.681053515e-09
2.567758451e-08
1.579271731e-07
2.443817e-14
2.479526614e-14
2.517526538e-14
2.559900803e-14
2.609190149e-14
2.668474892e-14
2.741486448e-14
2.83275754e-14
2.947816503e-14
3.09344771e-14
3.27807795e-14
3.512302754e-14
3.809570806e-14
4.187220532e-14
4.667897686e-14
5.281344711e-14
6.067601498e-14
7.081109645e-14
8.39573114e-14
1.011420722e-13
1.237725156e-13
1.53860233e-13
1.942487488e-13
2.490996726e-13
3.244410608e-13
4.294023131e-13
5.774193485e-13
7.89697064e-13
1.095075109e-12
1.540459258e-12
2.193854817e-12
3.152453559e-12
1.011786872e-11
2.312563573e-11
6.613713565e-11
2.634399329e-10
1.048284053e-09
4.976075247e-09
2.728562176e-08
1.677046183e-07
2.493482131e-14
2.529946433e-14
2.568712414e-14
2.611902517e-14
2.662108056e-14
2.722474314e-14
2.796813054e-14
2.889752903e-14
3.006939139e-14
3.155305268e-14
3.343458417e-14
3.582209513e-14
3.885291516e-14
4.270394411e-14
4.760597771e-14
5.386314105e-14
6.188362299e-14
7.222107095e-14
8.56293181e-14
1.031517833e-13
1.262293493e-13
1.569090335e-13
1.981001644e-13
2.540407531e-13
3.309064479e-13
4.379774403e-13
5.890226575e-13
8.053044146e-13
1.116681602e-12
1.570461774e-12
2.235748866e-12
3.37913951e-12
1.053396732e-11
2.468105961e-11
7.181047805e-11
2.8025927e-10
1.126591295e-09
5.273944856e-09
2.890803621e-08
1.776977903e-07
2.544002591e-14
2.581239515e-14
2.620794446e-14
2.66482898e-14
2.71598516e-14
2.777472721e-14
2.853183386e-14
2.947843148e-14
3.067216728e-14
3.218386678e-14
3.410142564e-14
3.653518579e-14
3.962533548e-14
4.355236803e-14
4.855166386e-14
5.493381018e-14
6.311493984e-14
7.365866078e-14
8.733360705e-14
1.052014592e-13
1.287349683e-13
1.600200365e-13
2.020300083e-13
2.590855567e-13
3.375033457e-13
4.467293444e-13
6.008310438e-13
8.21239601e-13
1.138695233e-12
1.60103576e-12
2.278517279e-12
3.681294178e-12
1.095649601e-11
2.626470794e-11
7.757705316e-11
2.972715531e-10
1.205617399e-09
5.574628611e-09
3.116710537e-08
1.914872203e-07
2.595409142e-14
2.63343661e-14
2.673802375e-14
2.718708032e-14
2.770846865e-14
2.833493245e-14
2.91061916e-14
3.007049185e-14
3.128669312e-14
3.2827123e-14
3.478152729e-14
3.726253624e-14
4.041323638e-14
4.441779384e-14
4.951632346e-14
5.602580682e-14
6.437048207e-14
7.512441793e-14
8.907108946e-14
1.072918431e-13
1.312906011e-13
1.631943921e-13
2.06040173e-13
2.642354121e-13
3.442345589e-13
4.556586375e-13
6.12855797e-13
8.375023085e-13
1.161128252e-12
1.632197561e-12
2.322152216e-12
3.988430945e-12
1.138572566e-11
2.787654115e-11
8.343583832e-11
3.144806023e-10
1.285381817e-09
5.878112207e-09
3.376640265e-08
2.05383722e-07
2.647730686e-14
2.686566741e-14
2.727764611e-14
2.773566812e-14
2.826718627e-14
2.890559676e-14
2.969142932e-14
3.067392774e-14
3.191318138e-14
3.348303734e-14
3.547511955e-14
3.800439323e-14
4.121689233e-14
4.530053226e-14
5.05002727e-14
5.713951114e-14
6.565075987e-14
7.661893928e-14
9.084261262e-14
1.09423765e-13
1.338974231e-13
1.664333425e-13
2.101324268e-13
2.694918742e-13
3.511026739e-13
4.64767133e-13
6.251062224e-13
8.540944277e-13
1.183992137e-12
1.663961552e-12
2.366651343e-12
4.300705298e-12
1.182189572e-11
2.951656104e-11
8.938612407e-11
3.318899421e-10
1.365898306e-09
6.339813736e-09
3.63886016e-08
2.193866256e-07
2.70099477e-14
2.740657672e-14
2.782708588e-14
2.829431928e-14
2.883625896e-14
2.948696248e-14
3.028777945e-14
3.128896494e-14
3.255185485e-14
3.415183637e-14
3.618244109e-14
3.876101252e-14
4.203658481e-14
4.620089674e-14
5.150384889e-14
5.827532503e-14
6.695628768e-14
7.814284721e-14
9.264899412e-14
1.115981062e-13
1.365565876e-13
1.697381852e-13
2.143084755e-13
2.748566537e-13
3.581102142e-13
4.740574263e-13
6.375903151e-13
8.710194166e-13
1.207297787e-12
1.696340825e-12
2.412016694e-12
4.61826619e-12
1.226522009e-11
3.118480523e-11
9.542742756e-11
3.495026004e-10
1.447186581e-09
6.851062369e-09
3.903357597e-08
2.334952629e-07
2.755227961e-14
2.795736264e-14
2.83866104e-14
2.886329604e-14
2.941594116e-14
3.007927541e-14
3.089548029e-14
3.191583673e-14
3.320294539e-14
3.483375621e-14
3.690373914e-14
3.953265847e-14
4.287260294e-14
4.711920764e-14
5.252740672e-14
5.943366858e-14
6.82875888e-14
7.969678074e-14
9.44910402e-14
1.138157808e-13
1.39269243e-13
1.731102547e-13
2.185700006e-13
2.803315788e-13
3.652597243e-13
4.835326284e-13
6.503152145e-13
8.882818534e-13
1.231055673e-12
1.729347701e-12
2.458253736e-12
4.941256622e-12
1.271589198e-11
3.288134103e-11
1.015594224e-10
3.673211688e-10
1.529265687e-09
7.367054853e-09
4.170115455e-08
2.477087393e-07
2.810456137e-14
2.851828737e-14
2.895648208e-14
2.944285806e-14
3.000648753e-14
3.068278433e-14
3.15147753e-14
3.255478327e-14
3.386669309e-14
3.552904176e-14
3.76392695e-14
4.031960403e-14
4.372524417e-14
4.805579436e-14
5.357131606e-14
6.061497788e-14
6.964519737e-14
8.128139172e-14
9.636955565e-14
1.160777263e-13
1.420365422e-13
1.765509134e-13
2.229186834e-13
2.859185746e-13
3.725538138e-13
4.93196199e-13
6.632875109e-13
9.058871259e-13
1.255275971e-12
1.762994081e-12
2.505370629e-12
5.269814433e-12
1.317408783e-11
3.460626048e-11
1.077818687e-10
3.853476778e-10
1.612151533e-09
7.887805686e-09
4.439115759e-08
2.628277907e-07
2.866704699e-14
2.908960875e-14
2.953696011e-14
3.003326345e-14
3.060815335e-14
3.129774079e-14
3.214591272e-14
3.320605105e-14
3.454334562e-14
3.62379462e-14
3.838929641e-14
4.112213078e-14
4.459481476e-14
4.90109963e-14
5.463596066e-14
6.181970364e-14
7.102965908e-14
8.289734335e-14
9.828534948e-14
1.183848982e-13
1.448596475e-13
1.800615481e-13
2.273562199e-13
2.916196517e-13
3.799951781e-13
5.030518413e-13
6.765134526e-13
9.238412146e-13
1.279968663e-12
1.797291698e-12
2.553377657e-12
5.604072991e-12
1.363997061e-11
3.63596776e-11
1.140945357e-10
4.03583318e-10
1.695857092e-09
8.413328234e-09
4.710339917e-08
2.823938179e-07
2.923998742e-14
2.967158192e-14
3.012830176e-14
3.063476977e-14
3.122119497e-14
3.192439922e-14
3.27891453e-14
3.386989254e-14
3.523315777e-14
3.696073063e-14
3.915409243e-14
4.194052899e-14
4.548163019e-14
4.998516329e-14
5.572173727e-14
6.304831024e-14
7.244153146e-14
8.454530985e-14
1.002392382e-13
1.207382682e-13
1.477397344e-13
1.836435693e-13
2.318843314e-13
2.974368996e-13
3.875866063e-13
5.131034376e-13
6.899990856e-13
9.421505439e-13
1.305143626e-12
1.832252287e-12
2.602286783e-12
5.944161794e-12
1.411369261e-11
3.814173085e-11
1.204971207e-10
4.232724094e-10
1.794834794e-09
8.943631122e-09
5.076319149e-08
3.021022168e-07
2.98236319e-14
3.026446053e-14
3.073076352e-14
3.124763481e-14
3.18458703e-14
3.256301705e-14
3.344473021e-14
3.454656595e-14
3.59363912e-14
3.769766378e-14
3.993393835e-14
4.277509766e-14
4.638601536e-14
5.097865578e-14
5.682905511e-14
6.43012751e-14
7.388138397e-14
8.622597654e-14
1.022320478e-13
1.231388233e-13
1.506779935e-13
1.872984114e-13
2.365047713e-13
3.033724829e-13
3.953309834e-13
5.233550093e-13
7.037503491e-13
9.608218801e-13
1.330810699e-12
1.8678877e-12
2.652111306e-12
6.290206996e-12
1.459539782e-11
3.995259042e-11
1.269892453e-10
4.586129561e-10
1.943767933e-09
9.478751346e-09
5.494647242e-08
3.219518739e-07
3.041822904e-14
3.086849787e-14
3.134460201e-14
3.187211731e-14
3.248243923e-14
3.321385489e-14
3.411292908e-14
3.523633508e-14
3.665331415e-14
3.844902185e-14
4.072912308e-14
4.36261446e-14
4.730830472e-14
5.199184492e-14
5.795833548e-14
6.557908829e-14
7.53497981e-14
8.794004014e-14
1.042646155e-13
1.255875654e-13
1.536756328e-13
1.910275348e-13
2.4121933e-13
3.094286389e-13
4.032312889e-13
5.338106932e-13
7.177731411e-13
9.798622615e-13
1.356979742e-12
1.904209976e-12
2.702865587e-12
6.642331835e-12
1.508522329e-11
4.17924311e-11
1.335716238e-10
4.943621576e-10
2.094201642e-09
1.001869518e-08
5.916397284e-08
3.419410881e-07
3.102402769e-14
3.148394768e-14
3.197007475e-14
3.250847755e-14
3.313116409e-14
3.38771768e-14
3.479400803e-14
3.593946928e-14
3.738420139e-14
3.92150884e-14
4.153994364e-14
4.449398638e-14
4.824884233e-14
5.302511247e-14
5.911001146e-14
6.688225218e-14
7.684736738e-14
8.968820916e-14
1.063377903e-13
1.280855119e-13
1.567338792e-13
1.94832427e-13
2.460298387e-13
3.156076759e-13
4.112905939e-13
5.444747273e-13
7.320733623e-13
9.99278953e-13
1.383660676e-12
1.941231392e-12
2.754564831e-12
7.000656949e-12
1.558330037e-11
4.3661454e-11
1.402449817e-10
5.305255286e-10
2.24613735e-09
1.070847629e-08
6.341574013e-08
3.620692072e-07
3.164127771e-14
3.211106488e-14
3.260744082e-14
3.315697795e-14
3.379231005e-14
3.455325052e-14
3.548823777e-14
3.665624345e-14
3.812933414e-14
3.999615424e-14
4.236670505e-14
4.53789484e-14
4.92079819e-14
5.407885085e-14
6.028452772e-14
6.821128134e-14
7.837469756e-14
9.147120434e-14
1.084524343e-13
1.306336963e-13
1.598539794e-13
1.987146043e-13
2.509381718e-13
3.219119721e-13
4.19512059e-13
5.553514437e-13
7.466569486e-13
1.019079415e-12
1.410863517e-12
1.978964476e-12
2.807224909e-12
7.365300556e-12
1.608975568e-11
4.555987554e-11
1.470100449e-10
5.671084084e-10
2.39958284e-09
1.162191008e-08
6.770170547e-08
3.858114569e-07
3.227023058e-14
3.275010619e-14
3.325696142e-14
3.381788353e-14
3.446614549e-14
3.524234774e-14
3.619589381e-14
3.738693809e-14
3.888900007e-14
4.079251747e-14
4.32097204e-14
4.628136483e-14
5.018608677e-14
5.515346302e-14
6.148234041e-14
6.956670238e-14
7.993240665e-14
9.328975906e-14
1.106094235e-13
1.332331691e-13
1.630372023e-13
2.026756138e-13
2.559462487e-13
3.283439742e-13
4.278989317e-13
5.664452645e-13
7.615298928e-13
1.039271285e-12
1.438598403e-12
2.017422017e-12
2.860862207e-12
7.736378423e-12
1.660471117e-11
4.748791809e-11
1.538675191e-10
6.041156088e-10
2.55455681e-09
1.254350273e-08
7.202165459e-08
4.129568154e-07
3.291113989e-14
3.340133068e-14
3.391890036e-14
3.44914623e-14
3.515294234e-14
3.594474436e-14
3.691725654e-14
3.813183938e-14
3.966349331e-14
4.16044834e-14
4.406931077e-14
4.72015787e-14
5.118352995e-14
5.624936246e-14
6.270391705e-14
7.094905394e-14
8.152112515e-14
9.514461976e-14
1.128096481e-13
1.358849984e-13
1.662848393e-13
2.067170346e-13
2.610560356e-13
3.349061975e-13
4.364545443e-13
5.777607006e-13
7.766982605e-13
1.059862363e-12
1.466875608e-12
2.056617044e-12
2.915493483e-12
8.114003524e-12
1.712828356e-11
4.944579772e-11
1.608180527e-10
6.415516996e-10
2.711074829e-09
1.347323827e-08
7.643262086e-08
4.402867587e-07
3.356426189e-14
3.406500016e-14
3.45935245e-14
3.517798572e-14
3.585297643e-14
3.66607207e-14
3.765261146e-14
3.889123933e-14
4.045311451e-14
4.243236465e-14
4.49458053e-14
4.813994182e-14
5.22006941e-14
5.736697321e-14
6.394973654e-14
7.235888673e-14
8.314149623e-14
9.703654643e-14
1.150540139e-13
1.38590271e-13
1.695982063e-13
2.108404793e-13
2.662695469e-13
3.416012247e-13
4.45182313e-13
5.893023518e-13
7.921682028e-13
1.080860607e-12
1.495705548e-12
2.096562798e-12
2.971135723e-12
8.498285167e-12
1.766058321e-11
5.1433706e-11
1.67862179e-10
6.794210017e-10
2.869149794e-09
1.44110944e-08
8.288487164e-08
4.678010469e-07
3.422985579e-14
3.474137968e-14
3.528110416e-14
3.587772902e-14
3.656652778e-14
3.739056181e-14
3.840224936e-14
3.966543584e-14
4.125817097e-14
4.327648115e-14
4.583954119e-14
4.909681489e-14
5.323797152e-14
5.850672979e-14
6.522028908e-14
7.379676357e-14
8.479417594e-14
9.896631303e-14
1.173434423e-13
1.413500932e-13
1.729786442e-13
2.150475957e-13
2.715888459e-13
3.48431706e-13
4.540857366e-13
6.010749074e-13
8.079459645e-13
1.102274123e-12
1.525098786e-12
2.13727266e-12
3.027805991e-12
8.889327184e-12
1.820171229e-11
5.345178561e-11
1.750001173e-10
7.177276496e-10
3.028789773e-09
1.535714244e-08
8.93874059e-08
4.954994427e-07
3.490818421e-14
3.543073783e-14
3.598191345e-14
3.659097152e-14
3.729388087e-14
3.813455765e-14
3.916646649e-14
4.045473287e-14
4.207897664e-14
4.413716024e-14
4.675086377e-14
5.007256747e-14
5.429576425e-14
5.966907726e-14
6.651607631e-14
7.526325952e-14
8.647983348e-14
1.00934708e-13
1.196788715e-13
1.441655915e-13
1.764275208e-13
2.193400673e-13
2.77016046e-13
3.554003587e-13
4.631683961e-13
6.130831485e-13
8.240378919e-13
1.124111168e-12
1.555066028e-12
2.178760031e-12
3.085521265e-12
9.28722484e-12
1.875175718e-11
5.55000995e-11
1.906280265e-10
7.564758623e-10
3.189997286e-09
1.631144748e-08
9.59401462e-08
5.241727673e-07
3.559951348e-14
3.613334706e-14
3.669623057e-14
3.731799695e-14
3.803532495e-14
3.889300338e-14
3.994556475e-14
4.125944062e-14
4.291585235e-14
4.501473672e-14
4.768012655e-14
5.106757807e-14
5.537448403e-14
6.085447127e-14
6.783761128e-14
7.675896198e-14
8.819915148e-14
1.029425345e-13
1.220612569e-13
1.47037914e-13
1.799462313e-13
2.237196154e-13
2.825533114e-13
3.625099679e-13
4.724339551e-13
6.253319492e-13
8.404504389e-13
1.146380149e-12
1.585618132e-12
2.221038117e-12
3.144298078e-12
9.692059313e-12
2.005981822e-11
5.757909499e-11
2.065176154e-10
7.956642e-10
3.401341014e-09
1.727406908e-08
1.025431134e-07
5.610174604e-07
3.630411388e-14
3.684948404e-14
3.742433815e-14
3.805909369e-14
3.879115426e-14
3.966619951e-14
4.073985188e-14
4.207987562e-14
4.376912582e-14
4.590955298e-14
4.862769132e-14
5.208223419e-14
5.64745524e-14
6.20633781e-14
6.918541859e-14
7.828447091e-14
8.995282626e-14
1.049906113e-13
1.244915719e-13
1.499682307e-13
1.835361998e-13
2.281879992e-13
2.882028581e-13
3.697633858e-13
4.818861596e-13
6.378262789e-13
8.57190172e-13
1.169089626e-12
1.616766161e-12
2.264119482e-12
3.337361908e-12
1.010395024e-11
2.161154158e-11
5.96890545e-11
2.226164567e-10
8.352927191e-10
3.687709111e-09
1.861003587e-08
1.091965974e-07
5.981013578e-07
3.702226001e-14
3.757942987e-14
3.816652349e-14
3.881455509e-14
3.956166831e-14
4.045445219e-14
4.154964168e-14
4.291636094e-14
4.463913186e-14
4.682195908e-14
4.959392818e-14
5.311693242e-14
5.759640079e-14
6.329627477e-14
7.056003452e-14
7.984039895e-14
9.174156819e-14
1.07079773e-13
1.269708088e-13
1.52957735e-13
1.871988799e-13
2.327470178e-13
2.939669544e-13
3.771635331e-13
4.915288389e-13
6.505712049e-13
8.742637764e-13
1.19224832e-12
1.648521365e-12
2.308018112e-12
3.639343906e-12
1.052301825e-11
2.318843767e-11
6.191870858e-11
2.389257279e-10
8.753637197e-10
3.976881073e-09
2.019261345e-08
1.159005026e-07
6.354245646e-07
3.775423094e-14
3.832347038e-14
3.892307882e-14
3.958467967e-14
4.034717204e-14
4.125807338e-14
4.237525414e-14
4.376922632e-14
4.55262125e-14
4.775231288e-14
5.05792157e-14
5.417207851e-14
5.874047056e-14
6.45536491e-14
7.196200714e-14
8.142737171e-14
9.356610199e-14
1.092108704e-13
1.294999788e-13
1.560076438e-13
1.90935756e-13
2.373985104e-13
2.998479221e-13
3.847133987e-13
5.013659067e-13
6.635718943e-13
8.916780598e-13
1.215865115e-12
1.680895216e-12
2.352749417e-12
3.946860998e-12
1.094937593e-11
2.479065836e-11
6.765521382e-11
2.554464736e-10
9.423110582e-10
4.268902435e-09
2.178875848e-08
1.247920874e-07
6.729885212e-07
3.850031053e-14
3.908189636e-14
3.969430156e-14
4.036977136e-14
4.114797615e-14
4.207738108e-14
4.321701569e-14
4.463880836e-14
4.64307171e-14
4.870098016e-14
5.158394101e-14
5.524808747e-14
5.990721314e-14
6.583599989e-14
7.339189646e-14
8.304602796e-14
9.542716711e-14
1.113847712e-13
1.320801135e-13
1.59119199e-13
1.947483442e-13
2.421443577e-13
3.058481372e-13
3.924160408e-13
5.114013616e-13
6.768336174e-13
9.094399584e-13
1.23994907e-12
1.713899472e-12
2.398328962e-12
4.260006655e-12
1.138313354e-11
2.641859707e-11
7.347605422e-11
2.721801227e-10
1.019377273e-09
4.563792182e-09
2.339849551e-08
1.345494356e-07
7.107927827e-07
3.92607876e-14
3.985500377e-14
4.048049452e-14
4.117013977e-14
4.196439723e-14
4.291269953e-14
4.407525934e-14
4.552545069e-14
4.735300254e-14
4.966833476e-14
5.260849993e-14
5.634538371e-14
6.109709016e-14
6.714383701e-14
7.485027468e-14
8.469701988e-14
9.732551808e-14
1.136023607e-13
1.34712265e-13
1.622936679e-13
1.98638193e-13
2.469864827e-13
3.119700304e-13
4.002745877e-13
5.216392888e-13
6.903617493e-13
9.275565407e-13
1.264509423e-12
1.747546155e-12
2.444772564e-12
4.578876728e-12
1.182440442e-11
2.807263004e-11
7.938201205e-11
2.89128779e-10
1.09730461e-09
4.861557437e-09
2.502188486e-08
1.443792202e-07
7.586930818e-07
4.003595615e-14
4.064309398e-14
4.128196614e-14
4.198610034e-14
4.2796758e-14
4.376435938e-14
4.495032489e-14
4.642950411e-14
4.829343335e-14
5.065475871e-14
5.365329707e-14
5.746440117e-14
6.231057356e-14
6.847768161e-14
7.633772632e-14
8.638101338e-14
9.926192489e-14
1.158645418e-13
1.373975068e-13
1.655323443e-13
2.026068846e-13
2.519268517e-13
3.182160886e-13
4.082922387e-13
5.320838613e-13
7.041617735e-13
9.460350122e-13
1.289555598e-12
1.781847539e-12
2.492096208e-12
4.903568415e-12
1.227330356e-11
2.975312392e-11
8.537393016e-11
3.062943921e-10
1.176098089e-09
5.16220156e-09
2.665896993e-08
1.542816005e-07
8.086493998e-07
4.082611559e-14
4.144647398e-14
4.209903071e-14
4.281797462e-14
4.364538754e-14
4.463269795e-14
4.584255914e-14
4.735132681e-14
4.925238191e-14
5.166064241e-14
5.471874604e-14
5.860558344e-14
6.354814577e-14
6.983806626e-14
7.785484851e-14
8.809868836e-14
1.012371734e-13
1.181722359e-13
1.401369344e-13
1.688365491e-13
2.066560355e-13
2.569674752e-13
3.245888553e-13
4.164722649e-13
5.427393417e-13
7.182392841e-13
9.648827189e-13
1.315097206e-12
1.816816137e-12
2.540316084e-12
5.234180325e-12
1.272994717e-11
3.146043905e-11
9.14526466e-11
3.236787664e-10
1.255761588e-09
5.465721736e-09
2.830977656e-08
1.642567321e-07
8.589177877e-07
4.163157091e-14
4.226545657e-14
4.293200854e-14
4.366609043e-14
4.451062146e-14
4.551805938e-14
4.675231604e-14
4.829128453e-14
5.023022857e-14
5.268638476e-14
5.580526953e-14
5.976938393e-14
6.481029985e-14
7.122553513e-14
7.940225115e-14
8.985073902e-14
1.032520656e-13
1.205263834e-13
1.42931666e-13
1.72207631e-13
2.107872976e-13
2.621104091e-13
3.310909319e-13
4.248180106e-13
5.536100837e-13
7.325999888e-13
9.841071513e-13
1.341144046e-12
1.852464704e-12
2.589448605e-12
5.570812403e-12
1.31944525e-11
3.319492912e-11
9.761897893e-11
3.412835675e-10
1.3362974e-09
5.772104773e-09
3.026914393e-08
1.74304785e-07
9.094988718e-07
4.245263288e-14
4.310036054e-14
4.378122623e-14
4.453078207e-14
4.539280213e-14
4.642079485e-14
4.767995688e-14
4.924975073e-14
5.122736186e-14
5.373239335e-14
5.691329954e-14
6.095626606e-14
6.609753971e-14
7.264064426e-14
8.098055723e-14
9.163787419e-14
1.053074205e-13
1.229279441e-13
1.45782843e-13
1.756469678e-13
2.150023589e-13
2.673577551e-13
3.377249787e-13
4.333328946e-13
5.647005338e-13
7.472497111e-13
1.003715948e-12
1.367706108e-12
1.888806228e-12
2.639510411e-12
5.913565853e-12
1.366693747e-11
3.495694051e-11
1.038737042e-10
3.591103355e-10
1.417705539e-09
6.16937525e-09
3.291139794e-08
1.872341081e-07
9.60393703e-07
4.328961822e-14
4.395151094e-14
4.464701678e-14
4.541239056e-14
4.629227886e-14
4.734126276e-14
4.862585054e-14
5.022710679e-14
5.224417866e-14
5.479908464e-14
5.804327752e-14
6.21667034e-14
6.741038026e-14
7.408396173e-14
8.259040307e-14
9.346081766e-14
1.074040738e-13
1.253778979e-13
1.486916311e-13
1.791559667e-13
2.193029447e-13
2.727116623e-13
3.444937159e-13
4.420204111e-13
5.760152333e-13
7.621943937e-13
1.023716896e-12
1.394793574e-12
1.925853929e-12
2.690518374e-12
6.262543056e-12
1.414752046e-11
3.674681152e-11
1.10217526e-10
3.771603268e-10
1.499989362e-09
6.685590173e-09
3.557581481e-08
2.013902993e-07
1.023503543e-06
4.414284981e-14
4.481923917e-14
4.552971987e-14
4.631126378e-14
4.720940813e-14
4.827982896e-14
4.959037362e-14
5.122374222e-14
5.32810844e-14
5.588688409e-14
5.919565456e-14
6.340117989e-14
6.874934766e-14
7.555606791e-14
8.423243862e-14
9.532030855e-14
1.09542879e-13
1.27877245e-13
1.516592204e-13
1.827360651e-13
2.236908182e-13
2.781743279e-13
3.513999248e-13
4.508841316e-13
5.875588202e-13
7.774401002e-13
1.04411794e-12
1.42241682e-12
1.963621255e-12
2.742489598e-12
6.617847476e-12
1.463632014e-11
3.856487255e-11
1.16651024e-10
3.954343076e-10
1.583158761e-09
7.206684885e-09
3.826238159e-08
2.156484871e-07
1.090445906e-06
4.501265688e-14
4.570388324e-14
4.6429682e-14
4.722775673e-14
4.814455374e-14
4.923686691e-14
5.057391067e-14
5.224005482e-14
5.433849321e-14
5.699622645e-14
6.037089159e-14
6.466019003e-14
7.01149795e-14
7.705755572e-14
8.590732773e-14
9.721710165e-14
1.117247076e-13
1.304270071e-13
1.546868267e-13
1.863887318e-13
2.281677814e-13
2.837479981e-13
3.584464488e-13
4.59927706e-13
5.993360312e-13
7.929930186e-13
1.064927178e-12
1.450586413e-12
2.002121879e-12
2.795441408e-12
6.979583574e-12
1.513345543e-11
4.041144952e-11
1.231745882e-10
4.139322042e-10
1.667222501e-09
7.732692365e-09
4.097109116e-08
2.300085054e-07
1.157793519e-06
4.589937513e-14
4.660578794e-14
4.734725672e-14
4.816223168e-14
4.909808706e-14
5.021275793e-14
5.157685439e-14
5.32764509e-14
5.541682818e-14
5.812755587e-14
6.156945958e-14
6.59442391e-14
7.150782508e-14
7.858903088e-14
8.761574849e-14
9.915196781e-14
1.139504494e-13
1.330282273e-13
1.577756915e-13
1.901154674e-13
2.327356764e-13
2.894349697e-13
3.65636195e-13
4.691548642e-13
6.113517034e-13
8.08859463e-13
1.086152866e-12
1.479313115e-12
2.041369685e-12
2.849391338e-12
7.347856675e-12
1.563904562e-11
4.228687477e-11
1.297883386e-10
4.434007042e-10
1.752187741e-09
8.263646475e-09
4.370191912e-08
2.444701996e-07
1.225546113e-06
4.680334697e-14
4.752530503e-14
4.828280479e-14
4.911505839e-14
5.007038721e-14
5.120789136e-14
5.259960584e-14
5.433334548e-14
5.651652152e-14
5.928132613e-14
6.279183976e-14
6.72538434e-14
7.29284456e-14
8.015111221e-14
8.935839352e-14
1.011256943e-13
1.162210134e-13
1.356819711e-13
1.609270832e-13
1.939178053e-13
2.37396386e-13
2.952375904e-13
3.72972135e-13
4.785694179e-13
6.236107768e-13
8.250458763e-13
1.10780342e-12
1.508607873e-12
2.081378754e-12
2.904357104e-12
7.722772756e-12
1.615320992e-11
4.419147525e-11
1.364930763e-10
4.792943056e-10
1.895414939e-09
8.799586129e-09
4.645480416e-08
2.590333555e-07
1.293703555e-06
4.77249217e-14
4.84627934e-14
4.923669442e-14
5.008661433e-14
5.10618413e-14
5.222266478e-14
5.364257463e-14
5.541116252e-14
5.763801479e-14
6.04580009e-14
6.403852382e-14
6.858953045e-14
7.437741446e-14
8.174443188e-14
9.113597036e-14
1.031390853e-13
1.185373278e-13
1.383893268e-13
1.641422977e-13
1.977973125e-13
2.421518348e-13
3.011582605e-13
3.804573066e-13
4.881752619e-13
6.36118296e-13
8.415588325e-13
1.129887416e-12
1.538481815e-12
2.122163332e-12
2.96035655e-12
8.104438105e-12
1.667606687e-11
4.612557808e-11
1.43289917e-10
5.156206105e-10
2.046799984e-09
9.3404878e-09
4.984036134e-08
2.786625025e-07
1.379653302e-06
4.866445563e-14
4.941861932e-14
5.020930143e-14
5.107728486e-14
5.207284457e-14
5.325748427e-14
5.470617916e-14
5.651033509e-14
5.878175912e-14
6.165805391e-14
6.531001417e-14
6.995183924e-14
7.585531752e-14
8.336963575e-14
9.294920176e-14
1.051929622e-13
1.209003407e-13
1.411514061e-13
1.674226589e-13
2.017555904e-13
2.470039899e-13
3.071994337e-13
3.88094815e-13
4.979763759e-13
6.488794122e-13
8.58405038e-13
1.152413592e-12
1.56894624e-12
2.163737769e-12
3.017407561e-12
8.492958769e-12
1.720773334e-11
4.808951331e-11
1.501799156e-10
5.523845256e-10
2.19978985e-09
9.88633653e-09
5.40848027e-08
2.986970962e-07
1.469062813e-06
4.962231233e-14
5.039315657e-14
5.120100947e-14
5.208746343e-14
5.310380066e-14
5.431276453e-14
5.579084679e-14
5.763130564e-14
5.99482154e-14
6.288196919e-14
6.660682415e-14
7.134132054e-14
7.736275335e-14
8.502738367e-14
9.479882607e-14
1.07288164e-13
1.233110208e-13
1.439693449e-13
1.707695197e-13
2.057942757e-13
2.519548623e-13
3.133636187e-13
3.958878341e-13
5.079768263e-13
6.618993854e-13
8.755913348e-13
1.175390843e-12
1.600012603e-12
2.206116405e-12
3.075527883e-12
8.888439664e-12
1.774832252e-11
5.008360522e-11
1.571640589e-10