/*--------------------------------*- C++ -*----------------------------------*\
| =========                 |                                                 |
| \\      /  F ield         | OpenFOAM: The Open Source CFD Toolbox           |
|  \\    /   O peration     | Version:  v2006                                 |
|   \\  /    A nd           | Website:  www.openfoam.com                      |
|    \\/     M anipulation  |                                                 |
\*---------------------------------------------------------------------------*/
FoamFile
{
    version     2.0;
    format      ascii;
    class       volScalarField;
    location    "0.15";
    object      O2;
}
// * * * * * * * * * * * * * * * * * * * * * * * * * * * * * * * * * * * * * //

dimensions      [0 0 0 0 0 0 0];


internalField   nonuniform List<scalar> 
168000
(
0.220046608
0.2200465753
0.2200465282
0.2200464565
0.220046293
0.2200459973
0.2200456424
0.2200451933
0.2200443256
0.2200432365
0.2200419692
0.2200399987
0.2200374651
0.2200345733
0.220030131
0.2200248105
0.2200183116
0.2200087234
0.2199979522
0.2199815671
0.2199622036
0.2199342589
0.2198990609
0.2198482129
0.2197831451
0.2196843002
0.2195621845
0.2193577322
0.2190910648
0.2186900372
0.2180751517
0.2172328582
0.2159350702
0.2139431406
0.2111379892
0.2072381397
0.2016822045
0.1939694921
0.1839065666
0.1710968238
0.2200460162
0.2200459991
0.2200459609
0.2200458839
0.2200457287
0.2200454658
0.2200451006
0.2200445849
0.220043767
0.220042683
0.2200413033
0.2200393538
0.2200368256
0.2200337042
0.2200293444
0.2200239153
0.2200170748
0.2200076437
0.2199961854
0.2199799851
0.2199597849
0.2199317371
0.2198953452
0.2198442033
0.2197767456
0.2196780118
0.2195495197
0.2193456336
0.219070923
0.2186612018
0.218041601
0.2171758396
0.2158524868
0.2138413664
0.2109973127
0.2070262036
0.2013945794
0.1936235046
0.1834777052
0.1705728194
0.220045429
0.2200454172
0.220045384
0.2200453084
0.2200451599
0.2200449098
0.2200445371
0.2200439929
0.2200431873
0.2200420943
0.2200406532
0.2200386922
0.2200361354
0.2200328767
0.2200285113
0.2200229708
0.2200158906
0.220006436
0.2199945103
0.2199782571
0.2199574198
0.2199290645
0.219891678
0.2198399379
0.2197704993
0.2196710434
0.2195373871
0.2193326414
0.2190505681
0.2186324186
0.2180061871
0.2171182482
0.2157698146
0.2137369942
0.2108525629
0.2068122234
0.2011063953
0.1932730966
0.1830444547
0.1700449709
0.2200448394
0.2200448296
0.2200447995
0.2200447264
0.2200445823
0.220044337
0.2200439589
0.2200433999
0.2200425918
0.2200414838
0.2200400018
0.2200380146
0.2200354154
0.2200320595
0.2200276462
0.2200219923
0.2200147195
0.2200051527
0.2199928683
0.219976435
0.2199550625
0.2199262833
0.2198880069
0.2198354837
0.2197642905
0.2196635831
0.219525544
0.2193189385
0.2190299569
0.2186035058
0.2179691665
0.2170600074
0.2156867829
0.213630094
0.2107040416
0.2065961378
0.2008171654
0.1929185471
0.1826068783
0.1695131145
0.2200442441
0.2200442354
0.2200442073
0.2200441365
0.2200439949
0.220043751
0.2200433683
0.2200427991
0.2200419825
0.220040857
0.220039342
0.2200373218
0.2200346744
0.2200312381
0.2200267559
0.2200209868
0.2200135427
0.2200038194
0.2199912289
0.2199745457
0.2199526876
0.2199234162
0.2198843014
0.2198308787
0.2197580492
0.2196557507
0.2195138256
0.2193046506
0.2190090537
0.218574329
0.2179307323
0.2170010498
0.2156031685
0.2135207273
0.2105520008
0.2063778663
0.2005265054
0.1925600261
0.1821650937
0.1689772686
0.2200436415
0.2200436334
0.2200436068
0.2200435375
0.2200433973
0.220043153
0.2200427659
0.220042188
0.2200413601
0.2200402157
0.2200386707
0.2200366142
0.2200339159
0.2200304058
0.2200258436
0.2200199575
0.2200123508
0.2200024481
0.2199895757
0.2199726031
0.2199502815
0.2199204752
0.2198805434
0.2198261437
0.219751733
0.2196476214
0.2195021191
0.2192898632
0.2189878286
0.2185447889
0.217891029
0.2169413159
0.2155187876
0.2134089486
0.2103966388
0.206157321
0.2002340833
0.1921976269
0.181718998
0.16843779
0.2200430306
0.220043023
0.2200429973
0.2200429291
0.2200427892
0.2200425436
0.220042152
0.2200415655
0.220040725
0.2200395608
0.2200379865
0.2200358917
0.220033141
0.2200295592
0.2200249107
0.2200189056
0.2200111393
0.2200010447
0.2199879002
0.2199706139
0.2199478362
0.2199174661
0.2198767216
0.2198212903
0.2197453161
0.2196392422
0.2194903473
0.2192746342
0.2189662558
0.2185148117
0.2178501643
0.2168807518
0.2154334901
0.2132948088
0.2102381009
0.2059344369
0.1999396449
0.191831424
0.1812686275
0.167894036
0.2200424107
0.2200424033
0.2200423783
0.2200423106
0.2200421705
0.2200419229
0.2200415264
0.2200409311
0.2200400771
0.2200388925
0.2200372887
0.2200351543
0.2200323501
0.2200286967
0.2200239579
0.2200178318
0.2200099058
0.2199996114
0.2199861974
0.2199685814
0.2199453469
0.2199143915
0.219872829
0.2198163241
0.2197387828
0.2196306417
0.2194784562
0.2192590019
0.2189443132
0.2184843423
0.2178082172
0.2168193085
0.2153471541
0.213178334
0.2100765001
0.2057091544
0.1996429879
0.1914614616
0.1808140153
0.1673459741
0.220041781
0.2200417738
0.2200417493
0.2200416817
0.2200415409
0.2200412908
0.220040889
0.2200402845
0.2200394163
0.2200382107
0.220036577
0.220034402
0.2200315431
0.2200278173
0.2200229853
0.2200167361
0.2200086489
0.2199981493
0.2199844643
0.2199665069
0.2199428105
0.2199112523
0.2198688609
0.2198112476
0.2197321232
0.2196218367
0.2194664081
0.219242991
0.2189219813
0.2184533388
0.2177652453
0.2167569412
0.2152596709
0.2130595644
0.2099119384
0.2054814183
0.1993438995
0.1910877628
0.1803551948
0.166793582
0.220041141
0.220041134
0.2200411097
0.2200410421
0.2200409001
0.2200406472
0.2200402396
0.2200396255
0.2200387425
0.2200375153
0.2200358511
0.2200336345
0.2200307199
0.2200269205
0.2200219929
0.2200156182
0.2200073677
0.2199966582
0.2199826992
0.2199643904
0.2199402251
0.2199080484
0.2198648137
0.2198060615
0.2197253309
0.2196128365
0.2194541756
0.2192266167
0.2188992428
0.218421769
0.2177212898
0.2166936094
0.2151709461
0.2129385358
0.209744473
0.2052511367
0.1990422344
0.1907103777
0.1798921975
0.1662368457
0.2200404902
0.2200404833
0.2200404592
0.2200403912
0.2200402479
0.2200399917
0.220039578
0.2200389538
0.2200380556
0.220036806
0.2200351107
0.2200328516
0.2200298801
0.2200260057
0.2200209804
0.220014478
0.2200060615
0.219995138
0.2199809005
0.2199622317
0.2199375888
0.2199047788
0.2198606848
0.2198007653
0.2197184013
0.2196036456
0.2194417386
0.2192098874
0.2188760822
0.2183896074
0.2176763797
0.2166292657
0.2150808981
0.2128152636
0.2095741633
0.2050182412
0.1987378743
0.1903293496
0.1794250606
0.1656757909
0.2200398283
0.2200398214
0.2200397973
0.2200397289
0.2200395839
0.2200393241
0.220038904
0.2200382694
0.2200373553
0.2200360829
0.2200343555
0.220032053
0.2200290236
0.2200250727
0.2200199475
0.2200133151
0.2200047298
0.2199935881
0.2199790671
0.2199600302
0.2199349002
0.2199014427
0.219856472
0.219795358
0.2197113307
0.2195942652
0.2194290819
0.2191928067
0.2188524853
0.2183568333
0.2176305324
0.2165638762
0.2149894586
0.2126897545
0.2094010549
0.2047826741
0.1984307201
0.1899447218
0.1789539943
0.1651110962
0.2200391547
0.2200391479
0.2200391238
0.2200390547
0.2200389079
0.2200386442
0.2200382173
0.2200375718
0.2200366414
0.2200353455
0.2200335854
0.2200312386
0.2200281499
0.220024121
0.2200188941
0.2200121292
0.220003372
0.2199920079
0.2199771982
0.2199577851
0.2199321581
0.2198980387
0.2198521731
0.2197898382
0.2197041163
0.2195846949
0.2194161934
0.2191753751
0.2188284388
0.2183234291
0.2175837563
0.2164974085
0.2148965691
0.2125620118
0.2092251784
0.2045443823
0.1981206964
0.1895565125
0.1784788645
0.1645420168
0.2200384692
0.2200384624
0.2200384382
0.2200383684
0.2200382195
0.2200379518
0.2200375177
0.220036861
0.2200359137
0.2200345936
0.2200328002
0.2200304079
0.2200272588
0.2200231504
0.2200178196
0.2200109197
0.2200019875
0.2199903968
0.2199752928
0.2199554955
0.2199293611
0.2198945655
0.2198477863
0.2197842042
0.2196967552
0.2195749325
0.2194030631
0.2191575905
0.2188039306
0.2182893795
0.2175360538
0.2164298291
0.2148021776
0.2124320353
0.2090465552
0.2043033172
0.1978077495
0.1891646992
0.1779995483
0.1639685801
0.2200377714
0.2200377646
0.2200377401
0.2200376695
0.2200375185
0.2200372464
0.220036805
0.2200361365
0.2200351719
0.2200338271
0.2200319994
0.2200295609
0.2200263501
0.2200221606
0.2200167239
0.2200096864
0.2200005759
0.2199887542
0.2199733499
0.2199531604
0.2199265081
0.2198910218
0.2198433098
0.2197784542
0.2196892448
0.2195649754
0.2193896824
0.2191394491
0.2187789489
0.2182546704
0.2174874228
0.2163611057
0.2147062379
0.212299822
0.2088651997
0.2040594368
0.1974918029
0.1887692354
0.1775160691
0.1633908134
0.2200370609
0.220037054
0.2200370294
0.2200369578
0.2200368044
0.2200365279
0.2200360788
0.2200353983
0.2200344158
0.2200330457
0.220031183
0.2200286971
0.2200254234
0.2200211511
0.2200156064
0.2200084287
0.2199991365
0.2199870793
0.2199713688
0.2199507789
0.2199235978
0.2198874061
0.2198387417
0.2197725863
0.2196815823
0.2195548202
0.2193760437
0.2191209461
0.2187534826
0.2182192886
0.2174378575
0.2162912074
0.2146087083
0.2121653665
0.2086811218
0.2038127053
0.1971727826
0.1883701021
0.177028458
0.1628087535
0.2200363373
0.2200363304
0.2200363055
0.2200362329
0.2200360772
0.2200357959
0.2200353388
0.2200346459
0.2200336452
0.2200322491
0.2200303505
0.2200278163
0.2200244783
0.2200201216
0.2200144668
0.2200071462
0.2199976687
0.2199853714
0.2199693487
0.2199483499
0.219920629
0.2198837169
0.2198340803
0.2197665983
0.219673765
0.2195444631
0.2193621399
0.2191020758
0.2187275207
0.2181832215
0.2173873491
0.2162201043
0.2145095504
0.2120286616
0.2084943287
0.2035630944
0.1968506268
0.187967288
0.1765367478
0.162222538
0.2200356004
0.2200355935
0.2200355683
0.2200354946
0.2200353363
0.2200350501
0.2200345848
0.2200338792
0.2200328596
0.220031437
0.2200295018
0.2200269181
0.2200235146
0.2200190717
0.2200133047
0.2200058383
0.219996172
0.2199836299
0.2199672885
0.2199458725
0.2199176004
0.2198799528
0.2198293238
0.2197604882
0.2196657899
0.2195339004
0.2193479644
0.2190828316
0.2187010525
0.2181464563
0.2173358865
0.2161477675
0.2144087291
0.2118896983
0.2083048272
0.2033105878
0.1965252849
0.187560783
0.1760409727
0.1616326678
0.2200348499
0.2200348428
0.2200348174
0.2200347426
0.2200345815
0.2200342903
0.2200338166
0.2200330978
0.220032059
0.2200306091
0.2200286365
0.2200260024
0.2200225319
0.2200180012
0.2200121196
0.2200045047
0.2199946459
0.219981854
0.2199651875
0.2199433456
0.2199145108
0.2198761123
0.2198244703
0.2197542536
0.2196576541
0.2195231277
0.2193335106
0.2190632068
0.2186740674
0.2181089805
0.2172834571
0.2160741691
0.2143062114
0.2117484655
0.2081126265
0.2030551844
0.1961967043
0.1871505803
0.1755414154
0.1610385053
0.2200340853
0.2200340782
0.2200340524
0.2200339764
0.2200338126
0.2200335161
0.2200330337
0.2200323015
0.2200312429
0.2200297652
0.2200277542
0.2200250686
0.2200215298
0.2200169095
0.2200109112
0.2200031447
0.2199930896
0.219980043
0.2199630448
0.2199407682
0.219911359
0.2198721939
0.219819518
0.2197478924
0.2196493545
0.2195121408
0.2193187722
0.2190431941
0.218646555
0.2180707814
0.2172300464
0.2159992818
0.2142019661
0.2116049498
0.207917738
0.2027968396
0.1958647986
0.1867366512
0.1750379098
0.1604400842
0.2200333064
0.2200332992
0.220033273
0.2200331958
0.2200330291
0.2200327273
0.2200322359
0.2200314899
0.2200304111
0.2200289049
0.2200268548
0.2200241166
0.2200205081
0.2200157963
0.2200096789
0.2200017579
0.2199915026
0.2199781961
0.2199608594
0.2199381392
0.2199081435
0.2198681959
0.2198144648
0.219741402
0.2196408879
0.2195009352
0.2193037429
0.2190227859
0.2186185046
0.2180318462
0.2171756392
0.2159230789
0.2140959637
0.2114591374
0.2077201402
0.2025355075
0.1955295488
0.186318991
0.1745302855
0.1598374559
0.2200325128
0.2200325056
0.220032479
0.2200324005
0.2200322309
0.2200319235
0.2200314229
0.2200306627
0.2200295633
0.2200280279
0.2200259379
0.220023146
0.2200194663
0.2200146612
0.2200084224
0.2200003438
0.2199898842
0.2199763126
0.2199586305
0.2199354575
0.2199048632
0.2198641168
0.219809309
0.2197347801
0.219632251
0.2194895065
0.2192884163
0.2190019744
0.2185899056
0.2179921617
0.2171202191
0.2158455342
0.2139881756
0.2113110122
0.2075198112
0.2022711478
0.1951909517
0.1858976129
0.1740185368
0.1592306398
0.2200317043
0.220031697
0.22003167
0.2200315901
0.2200314174
0.2200311044
0.2200305944
0.2200298197
0.2200286991
0.2200271339
0.2200250031
0.2200221564
0.2200184041
0.2200135038
0.220007141
0.2199989017
0.2199882337
0.2199743918
0.2199563572
0.219932722
0.2199015167
0.219859955
0.2198040485
0.219728024
0.2196234404
0.2194778499
0.2192727862
0.2189807518
0.2185607473
0.2179517143
0.2170637691
0.2157666223
0.2138785744
0.2111605573
0.2073167295
0.2020037215
0.19484899
0.1854724945
0.173502672
0.1586199677
0.2200308805
0.220030873
0.2200308457
0.2200307644
0.2200305886
0.2200302697
0.22002975
0.2200289605
0.2200278183
0.2200262226
0.2200240501
0.2200211474
0.220017321
0.2200123236
0.2200058344
0.2199974311
0.2199865507
0.2199724328
0.2199540386
0.2199299315
0.2198981026
0.2198557088
0.2197986812
0.2197211313
0.2196144527
0.2194659608
0.2192568461
0.2189591097
0.2185310188
0.2179104906
0.2170062718
0.215686318
0.2137671339
0.2110077549
0.2071108736
0.2017331934
0.1945036221
0.185043579
0.1729827168
0.1580054183
0.220030041
0.2200300334
0.2200300056
0.220029923
0.2200297439
0.220029419
0.2200288895
0.2200280848
0.2200269205
0.2200252937
0.2200230786
0.2200201187
0.2200162167
0.2200111203
0.2200045021
0.2199959315
0.2199848342
0.2199704348
0.2199516736
0.2199270851
0.2198946196
0.2198513766
0.219793205
0.2197140991
0.2196052843
0.2194538343
0.2192405894
0.2189370398
0.2185007091
0.2178684764
0.216947709
0.2156045969
0.2136538287
0.2108525879
0.2069022243
0.20145953
0.1941548131
0.1846108737
0.1724587067
0.15738669
0.2200291855
0.2200291779
0.2200291496
0.2200290655
0.2200288831
0.2200285521
0.2200280125
0.2200271923
0.2200260053
0.2200243468
0.2200220882
0.2200190699
0.2200150907
0.2200098932
0.2200031435
0.2199944023
0.2199830838
0.2199683971
0.2199492613
0.2199241814
0.2198910662
0.2198469565
0.2197876178
0.2197069247
0.2195959316
0.2194414655
0.2192240097
0.2189145337
0.2184698071
0.2178256576
0.2168880626
0.2155214354
0.2135386349
0.2106950411
0.2066907655
0.2011826999
0.1938025345
0.1841743891
0.1719311984
0.1567637884
0.2200283138
0.220028306
0.2200282773
0.2200281917
0.2200280059
0.2200276686
0.2200271186
0.2200262826
0.2200250725
0.2200233815
0.2200210785
0.2200180007
0.2200139427
0.220008642
0.2200017581
0.2199928428
0.2199812986
0.2199663188
0.2199468007
0.2199212193
0.2198874411
0.219842447
0.2197819173
0.2196996053
0.2195863907
0.2194288494
0.2192071002
0.2188915826
0.2184383015
0.2177820199
0.2168273144
0.215436811
0.2134215305
0.2105351033
0.2064764905
0.2009026728
0.1934467682
0.1837340919
0.1713995791
0.1561367186
0.2200274254
0.2200274175
0.2200273883
0.2200273011
0.2200271119
0.2200267682
0.2200262076
0.2200253553
0.2200241216
0.2200223974
0.2200200492
0.2200169105
0.2200127722
0.2200073663
0.2200003454
0.2199912524
0.219979478
0.2199641991
0.2199442909
0.2199181976
0.2198837427
0.2198378461
0.2197761014
0.219692138
0.2195766579
0.2194159808
0.2191898541
0.2188681777
0.2184061807
0.2177375489
0.2167654461
0.2153507031
0.2133024967
0.2103727695
0.2062593499
0.2006194178
0.1930875086
0.1832899518
0.1708638552
0.1555055417
0.22002652
0.2200265119
0.2200264823
0.2200263935
0.2200262007
0.2200258505
0.220025279
0.2200244102
0.2200231524
0.2200213943
0.2200189998
0.2200157991
0.2200115787
0.2200060654
0.2199989048
0.2199896306
0.2199776212
0.2199620371
0.2199417308
0.2199151152
0.2198799696
0.219833152
0.2197701677
0.2196845198
0.2195667293
0.2194028546
0.2191722646
0.21884431
0.2183734331
0.2176922305
0.21670244
0.2152630941
0.2131814994
0.2102080042
0.206039329
0.2003329454
0.1927247379
0.1828419412
0.170324025
0.1548706612
0.2200255972
0.2200255891
0.2200255589
0.2200254685
0.2200252721
0.2200249151
0.2200243326
0.2200234468
0.2200221644
0.2200203718
0.22001793
0.220014666
0.2200103619
0.220004739
0.2199974358
0.2199879767
0.2199757275
0.219959832
0.2199391194
0.2199119707
0.2198761203
0.2198283629
0.2197641138
0.2196767477
0.2195566008
0.2193894655
0.2191543245
0.2188199704
0.218340047
0.2176460512
0.216638271
0.2151739582
0.2130585215
0.210040785
0.2058164106
0.2000432554
0.1923584225
0.1823901282
0.1697800647
0.154231659
0.2200246567
0.2200246485
0.2200246178
0.2200245257
0.2200243256
0.2200239618
0.2200233679
0.2200224649
0.2200211573
0.2200193294
0.2200168394
0.2200135107
0.2200091212
0.2200033865
0.2199959378
0.21998629
0.2199737962
0.2199575828
0.2199364556
0.2199087628
0.2198721932
0.2198234769
0.2197579374
0.2196688185
0.2195462684
0.2193758079
0.2191360268
0.2187951494
0.2183060102
0.217598996
0.2165729198
0.2150832693
0.2129335488
0.2098710985
0.2055905785
0.1997503308
0.1919885204
0.1819344614
0.1692319822
0.1535885331
0.2200236982
0.2200236898
0.2200236586
0.2200235648
0.2200233609
0.2200229901
0.2200223847
0.220021464
0.2200201307
0.2200182668
0.2200157275
0.2200123329
0.2200078562
0.2200020074
0.2199944102
0.2199845699
0.2199718264
0.2199552887
0.2199337384
0.2199054903
0.2198681867
0.2198184919
0.2197516359
0.219660729
0.2195357278
0.2193618764
0.2191173642
0.2187698376
0.2182713104
0.2175510484
0.2165063709
0.2149910029
0.2128065692
0.2096988934
0.2053618182
0.1994541192
0.1916149735
0.1814748882
0.1686803178
0.1529412588
0.2200227212
0.2200227127
0.2200226809
0.2200225854
0.2200223776
0.2200219996
0.2200213825
0.2200204437
0.2200190842
0.2200171835
0.220014594
0.2200111321
0.2200065664
0.2200006011
0.2199928525
0.2199828156
0.2199698174
0.2199529487
0.2199309666
0.2199021519
0.2198640993
0.2198134059
0.2197452068
0.2196524761
0.2195249749
0.2193476654
0.2190983292
0.2187440252
0.2182359352
0.2175021917
0.216438604
0.2148971353
0.2126775514
0.2095241568
0.2051301099
0.1991545831
0.1912377575
0.1810114015
0.1681247257
0.1522898438
0.2200217254
0.2200217167
0.2200216844
0.2200215872
0.2200213754
0.2200209901
0.2200203609
0.2200194037
0.2200180174
0.2200160792
0.2200134384
0.2200099077
0.2200052513
0.2199991672
0.219991264
0.2199810266
0.2199677684
0.2199505619
0.2199281392
0.2198987462
0.2198599292
0.219808217
0.2197386475
0.2196440563
0.2195140052
0.219333169
0.2190789142
0.2187177024
0.2181998715
0.217452409
0.2163695985
0.2148016419
0.2125464658
0.2093468652
0.2048954246
0.1988516999
0.1908568632
0.180543984
0.1675650091
0.1516345732
0.2200207103
0.2200207016
0.2200206687
0.2200205696
0.2200203538
0.220019961
0.2200193196
0.2200183436
0.2200169299
0.2200149534
0.2200122602
0.2200086595
0.2200039104
0.219997705
0.2199896441
0.2199792021
0.2199656786
0.2199481274
0.2199252549
0.2198952719
0.2198556749
0.2198029231
0.2197319554
0.2196354662
0.2195028142
0.2193183815
0.2190591116
0.2186908592
0.2181631062
0.2174016832
0.2162993332
0.2147044978
0.2124132832
0.2091669931
0.2046577351
0.1985454504
0.1904722864
0.1800726231
0.1670011588
0.1509752443
0.2200196757
0.2200196668
0.2200196334
0.2200195325
0.2200193125
0.2200189121
0.2200182581
0.2200172629
0.2200158214
0.2200138057
0.2200110591
0.2200073868
0.2200025431
0.219996214
0.2199879921
0.2199773414
0.2199635471
0.2199456442
0.2199223127
0.2198917275
0.2198513345
0.2197975219
0.2197251278
0.2196267023
0.2194913975
0.2193032969
0.2190389135
0.2186634851
0.218125626
0.2173499969
0.2162277869
0.2146056779
0.2122779751
0.2089845156
0.2044170166
0.1982358194
0.1900840306
0.1795973114
0.166433166
0.1503117967
0.2200186211
0.2200186121
0.2200185781
0.2200184753
0.2200182511
0.2200178429
0.2200171761
0.2200161613
0.2200146913
0.2200126357
0.2200098346
0.2200060892
0.220001149
0.2199946937
0.2199863075
0.2199754437
0.2199613731
0.2199431112
0.2199193114
0.2198881115
0.2198469063
0.2197920113
0.2197181618
0.2196177611
0.2194797503
0.2192879089
0.2190183118
0.2186355697
0.2180874172
0.2172973325
0.216154938
0.2145051569
0.2121405134
0.2087994079
0.2041732459
0.197922798
0.1896921128
0.1791181279
0.165861021
0.1496442221
0.2200175461
0.2200175369
0.2200175023
0.2200173976
0.2200171691
0.220016753
0.2200160731
0.2200150384
0.2200135393
0.2200114429
0.2200085862
0.2200047662
0.2199997276
0.2199931433
0.2199845895
0.2199735083
0.2199591558
0.2199405274
0.2199162497
0.2198844226
0.2198423885
0.219786389
0.2197110546
0.2196086389
0.2194678679
0.2192722115
0.2189972985
0.2186071024
0.2180484659
0.2172436723
0.2160807645
0.2144029092
0.2120008708
0.208611647
0.2039264017
0.1976063861
0.1892965316
0.1786351458
0.1652852603
0.1489725067
0.2200164503
0.220016441
0.2200164058
0.2200162991
0.2200160662
0.220015642
0.2200149487
0.2200138936
0.2200123648
0.2200102269
0.2200073133
0.2200034173
0.2199982782
0.2199915624
0.2199828375
0.2199715344
0.2199568942
0.2199378919
0.2199131264
0.2198806593
0.2198377793
0.2197806528
0.2197038034
0.219599332
0.2194557455
0.2192561983
0.2189758651
0.2185780721
0.2180087579
0.2171889981
0.2160052444
0.2142989093
0.2118590205
0.2084212115
0.2036764668
0.1972865708
0.1888972265
0.1781481126
0.1647055462
0.1482968133
0.2200153333
0.2200153238
0.220015288
0.2200151793
0.2200149419
0.2200145094
0.2200138026
0.2200127266
0.2200111676
0.2200089872
0.2200060157
0.220002042
0.2199968003
0.2199899503
0.2199810508
0.2199695212
0.2199545874
0.2199352036
0.2199099403
0.21987682
0.2198330768
0.2197748004
0.2196964052
0.2195898365
0.2194433781
0.2192398627
0.2189540031
0.2185484679
0.2179682787
0.2171332917
0.2159283551
0.2141931314
0.2117149362
0.2082280841
0.2034234303
0.1969633135
0.1884941467
0.1776570306
0.1641216551
0.147617048
0.2200141946
0.2200141849
0.2200141485
0.2200140378
0.2200137959
0.2200133549
0.2200126342
0.220011537
0.220009947
0.2200077233
0.2200046926
0.2200006398
0.2199952933
0.2199883064
0.2199792287
0.219967468
0.2199522345
0.2199324613
0.21990669
0.2198729031
0.2198282791
0.2197688293
0.2196888569
0.2195801486
0.2194307606
0.2192231981
0.218931704
0.2185182784
0.2179270139
0.2170765344
0.2158500742
0.2140855498
0.2115685921
0.2080322531
0.2031672935
0.1966365802
0.1880872668
0.1771619011
0.163533594
0.1469331676
0.2200130338
0.220013024
0.2200129869
0.2200128741
0.2200126275
0.220012178
0.2200114431
0.2200103242
0.2200087027
0.2200064348
0.2200033437
0.21999921
0.2199937568
0.21998663
0.2199773705
0.219965374
0.2199498346
0.219929664
0.2199033742
0.2198689071
0.2198233843
0.219762737
0.2196811554
0.2195702643
0.2194178879
0.2192061979
0.2189089589
0.218487492
0.2178849485
0.2170187075
0.2157703789
0.2139761388
0.2114199619
0.207833715
0.2029080356
0.1963063431
0.1876765607
0.1766627285
0.1629413691
0.1462451749
0.2200118504
0.2200118405
0.2200118028
0.2200116879
0.2200114366
0.2200109782
0.2200102288
0.2200090878
0.2200074342
0.2200051211
0.2200019684
0.2199977522
0.2199921899
0.2199849205
0.2199754755
0.2199632382
0.2199473867
0.2199268106
0.2198999917
0.2198648303
0.2198183903
0.2197565212
0.2196732976
0.2195601795
0.2194047546
0.2191888551
0.2188857587
0.2184560971
0.2178420674
0.216959792
0.2156892462
0.2138648725
0.2112690198
0.2076324456
0.2026456487
0.1959725489
0.1872619981
0.1761595241
0.1623449892
0.1455530711
0.2200106441
0.220010634
0.2200105957
0.2200104786
0.2200102224
0.2200097551
0.220008991
0.2200078274
0.2200061409
0.2200037818
0.2200005662
0.2199962658
0.2199905922
0.2199831772
0.2199735428
0.2199610599
0.2199448899
0.2199238998
0.2198965409
0.2198606711
0.219813295
0.2197501792
0.2196652802
0.2195498901
0.2193913555
0.2191711626
0.2188620943
0.2184240817
0.2177983553
0.2168997688
0.2156066531
0.2137517253
0.2111157397
0.2074284116
0.2023800988
0.1956351795
0.1868435973
0.1756524803
0.1617451506
0.1448569617
0.2200094143
0.2200094041
0.2200093651
0.2200092458
0.2200089847
0.2200085083
0.220007729
0.2200065424
0.2200048224
0.2200024163
0.2199991366
0.2199947501
0.2199889631
0.2199813995
0.2199715718
0.2199588382
0.2199423431
0.2199209306
0.2198930206
0.2198564278
0.2198080965
0.2197437084
0.2196570999
0.2195393918
0.2193776849
0.2191531134
0.2188379563
0.2183914338
0.217753797
0.2168386188
0.2155225767
0.2136366719
0.2109600956
0.2072215811
0.20211135
0.1952942338
0.1864213699
0.1751416132
0.161141154
0.1441567337
0.2200081606
0.2200081502
0.2200081105
0.220007989
0.2200077228
0.2200072371
0.2200064425
0.2200052324
0.2200034782
0.2200010241
0.2199976789
0.2199932048
0.2199873018
0.2199795866
0.2199695616
0.2199565722
0.2199397453
0.2199179017
0.2198894293
0.2198520987
0.2198027925
0.2197371061
0.2196487534
0.2195286802
0.2193637374
0.2191347001
0.2188133352
0.2183581411
0.2177083771
0.2167763229
0.2154369944
0.2135196878
0.2108020618
0.2070119247
0.2018393675
0.1949497168
0.1859953124
0.1746266124
0.1605329732
0.1434523826
0.2200068825
0.2200068719
0.2200068315
0.2200067078
0.2200064365
0.2200059412
0.220005131
0.2200038968
0.2200021077
0.2199996047
0.2199961927
0.219991629
0.2199856078
0.2199777378
0.2199675115
0.219954261
0.2199370955
0.2199148119
0.2198857655
0.2198476819
0.2197973809
0.2197303697
0.2196402372
0.219517751
0.2193495071
0.2191159152
0.2187882214
0.2183241911
0.2176620804
0.2167128628
0.2153498839
0.2134007503
0.2106416137
0.2067994159
0.2015641163
0.194601633
0.1855654234
0.174107455
0.1599206217
0.142743933
0.2200055794
0.2200055687
0.2200055276
0.2200054015
0.220005125
0.2200046201
0.2200037938
0.2200025352
0.2200007105
0.2199981576
0.2199946773
0.2199900223
0.2199838803
0.2199758524
0.2199654207
0.2199519036
0.2199343925
0.2199116599
0.2198820277
0.2198431756
0.2197918595
0.2197234963
0.2196315477
0.2195065997
0.2193349881
0.2190967511
0.218762605
0.2182895713
0.2176148925
0.2166482152
0.2152612241
0.213279841
0.2104787293
0.2065840355
0.2012855626
0.1942499474
0.185131611
0.1735841576
0.1593041143
0.1420314341
0.220004251
0.2200042401
0.2200041983
0.2200040699
0.220003788
0.2200032732
0.2200024306
0.220001147
0.219999286
0.2199966821
0.2199931322
0.2199883839
0.2199821188
0.2199739297
0.2199632883
0.2199494992
0.2199316354
0.2199084445
0.2198782145
0.2198385781
0.2197862259
0.2197164831
0.2196226814
0.2194952215
0.2193201746
0.2190772001
0.2187364758
0.2182542687
0.2175667981
0.2165823566
0.215170998
0.2131569185
0.210313389
0.2063657479
0.2010036681
0.1938946333
0.1846938707
0.1730567364
0.1586837307
0.1413149243
0.2200028966
0.2200028856
0.2200028431
0.2200027122
0.2200024249
0.2200019
0.2200010408
0.2199997317
0.2199978336
0.2199951777
0.2199915568
0.2199867133
0.2199803225
0.2199719689
0.2199611134
0.2199470468
0.219928823
0.2199051644
0.2198743242
0.2198338874
0.2197804778
0.2197093272
0.2196136345
0.2194836117
0.2193050604
0.2190572543
0.2187098237
0.2182182703
0.2175177799
0.216515273
0.2150791807
0.2130319688
0.2101455779
0.2061445124
0.2007184106
0.1935356695
0.1842521993
0.1725252068
0.1580595497
0.1405942433
0.2200015158
0.2200015046
0.2200014614
0.2200013281
0.2200010352
0.2200005
0.2199996239
0.2199982887
0.2199963528
0.2199936438
0.2199899504
0.2199850098
0.2199784907
0.2199699692
0.2199588953
0.2199445453
0.2199259542
0.2199018181
0.2198703552
0.2198291015
0.2197746129
0.2197020256
0.2196044033
0.2194717656
0.2192896392
0.2190369055
0.2186826382
0.2181815627
0.2174678202
0.216446944
0.2149857477
0.212904973
0.2099752718
0.2059203044
0.2004297907
0.1931730414
0.1838065989
0.1719900938
0.1574311478
0.1398694459
0.220000108
0.2200000966
0.2200000527
0.2199999169
0.2199996184
0.2199990727
0.2199981792
0.2199968176
0.219994843
0.2199920799
0.2199883125
0.2199832728
0.2199766227
0.2199679298
0.219956633
0.2199419939
0.2199230277
0.2198984045
0.219866306
0.2198242186
0.2197686288
0.2196945752
0.2195949839
0.2194596783
0.2192739048
0.2190161455
0.2186549087
0.2181441321
0.2174169017
0.216377349
0.2148906742
0.2127759153
0.2098024359
0.2056930948
0.2001378192
0.192806739
0.1833570257
0.1714508582
0.1567985299
0.1391405949
0.2199986727
0.2199986612
0.2199986164
0.2199984781
0.2199981738
0.2199976175
0.2199967063
0.2199953176
0.2199933037
0.2199904853
0.2199866424
0.2199815015
0.2199747178
0.21996585
0.2199543256
0.2199393914
0.2199200425
0.219894922
0.2198621749
0.2198192365
0.2197625228
0.219686973
0.2195853724
0.2194473445
0.2192578506
0.218994966
0.2186266242
0.2181059647
0.2173650064
0.2163064665
0.2147939353
0.2126447744
0.20962703
0.2054628637
0.1998425131
0.1924367115
0.1829034422
0.170907423
0.1561617167
0.1384077085
0.2199972093
0.2199971976
0.2199971521
0.2199970112
0.2199967011
0.2199961338
0.2199952046
0.2199937883
0.2199917342
0.2199888594
0.2199849394
0.2199796953
0.2199727752
0.2199637288
0.2199519723
0.2199367368
0.2199169974
0.2198913693
0.2198579601
0.2198141533
0.2197562926
0.2196792158
0.2195755648
0.2194347593
0.2192414699
0.2189733583
0.2185977738
0.2180670462
0.2173121163
0.2162342749
0.2146955058
0.2125115179
0.2094490322
0.2052296137
0.1995438291
0.1920629327
0.1824459186
0.1703597632
0.1555207447
0.1376707599
0.2199957172
0.2199957054
0.2199956591
0.2199955156
0.2199951995
0.2199946211
0.2199936736
0.2199922291
0.2199901339
0.2199872015
0.219983203
0.2199778535
0.2199707941
0.2199615656
0.219949572
0.2199340291
0.219913891
0.2198877449
0.2198536599
0.2198089668
0.2197499354
0.2196713002
0.219565557
0.2194219174
0.2192247561
0.2189513138
0.218568346
0.2180273621
0.2172582131
0.2161607521
0.2145953602
0.2123761141
0.2092684147
0.2049933328
0.1992417123
0.1916853826
0.1819844319
0.1698078759
0.1548760051
0.1369296642
0.2199941959
0.2199941839
0.2199941369
0.2199939907
0.2199936685
0.2199930788
0.2199921125
0.2199906392
0.2199885022
0.2199855111
0.2199814323
0.2199759753
0.2199687738
0.2199593593
0.2199471239
0.2199312672
0.2199107221
0.2198840472
0.2198492726
0.2198036748
0.2197434487
0.2196632231
0.2195553447
0.2194088134
0.2192077022
0.2189288234
0.2185383295
0.2179868977
0.2172032781
0.2160858757
0.2144934722
0.2122385322
0.2090851492
0.2047539858
0.1989361357
0.1913040387
0.1815188858
0.1692517717
0.1542270135
0.1361845066
0.2199926448
0.2199926327
0.2199925849
0.2199924359
0.2199921075
0.2199915062
0.2199905208
0.2199890182
0.2199868385
0.2199837875
0.2199796267
0.21997406
0.2199667135
0.2199571092
0.2199446268
0.2199284498
0.2199074894
0.2198802749
0.2198447963
0.2197982752