/*--------------------------------*- C++ -*----------------------------------*\
| =========                 |                                                 |
| \\      /  F ield         | OpenFOAM: The Open Source CFD Toolbox           |
|  \\    /   O peration     | Version:  v2006                                 |
|   \\  /    A nd           | Website:  www.openfoam.com                      |
|    \\/     M anipulation  |                                                 |
\*---------------------------------------------------------------------------*/
FoamFile
{
    version     2.0;
    format      ascii;
    class       volScalarField;
    location    "0.15";
    object      OH;
}
// * * * * * * * * * * * * * * * * * * * * * * * * * * * * * * * * * * * * * //

dimensions      [0 0 0 0 0 0 0];


internalField   nonuniform List<scalar> 
168000
(
1.546323819e-15
1.563035191e-15
1.580846071e-15
1.600377412e-15
1.625734504e-15
1.659385671e-15
1.696896817e-15
1.740480807e-15
1.810550494e-15
1.894722348e-15
1.990399387e-15
2.131386694e-15
2.308698984e-15
2.509249176e-15
2.811024455e-15
3.170072091e-15
3.606379986e-15
4.245858997e-15
4.962882459e-15
6.050389374e-15
7.334056652e-15
9.184637601e-15
1.151412311e-14
1.487806179e-14
1.918161106e-14
2.571844424e-14
3.379316242e-14
4.731248409e-14
6.494470713e-14
9.146098901e-14
1.321175898e-13
1.878099251e-13
5.911413998e-13
1.578228e-12
5.881023135e-12
2.911413904e-11
2.686410337e-10
3.479195676e-09
4.946936207e-08
4.432783851e-07
1.580790031e-15
1.596966236e-15
1.61464013e-15
1.634874967e-15
1.660076208e-15
1.692073835e-15
1.730580083e-15
1.778654807e-15
1.845884795e-15
1.930063239e-15
2.033230549e-15
2.173097575e-15
2.350329502e-15
2.566083806e-15
2.862639058e-15
3.22902237e-15
3.687952426e-15
4.317198392e-15
5.079727038e-15
6.155069875e-15
7.494141325e-15
9.351551937e-15
1.1760044e-14
1.514341028e-14
1.960504192e-14
2.613447558e-14
3.463092542e-14
4.811270288e-14
6.627681866e-14
9.336791049e-14
1.343362454e-13
1.915803408e-13
6.32065246e-13
1.628661729e-12
6.142458393e-12
3.079263862e-11
2.960895775e-10
3.777358948e-09
5.366361257e-08
4.739847332e-07
1.614989874e-15
1.631237369e-15
1.64899798e-15
1.669533324e-15
1.694699415e-15
1.726276834e-15
1.765605643e-15
1.81579755e-15
1.882566431e-15
1.967648194e-15
2.075043813e-15
2.21591246e-15
2.395271443e-15
2.620209095e-15
2.917316903e-15
3.291215312e-15
3.766077896e-15
4.396998782e-15
5.190512033e-15
6.269417476e-15
7.650682864e-15
9.528457189e-15
1.200276617e-14
1.542568932e-14
2.001834657e-14
2.659550054e-14
3.543348743e-14
4.897203195e-14
6.762301833e-14
9.527138345e-14
1.366781119e-13
1.953886315e-13
6.730331363e-13
1.680382896e-12
6.411463604e-12
3.248732852e-11
3.235914797e-10
4.079331677e-09
5.790078821e-08
5.049163361e-07
1.649332625e-15
1.665845543e-15
1.683807968e-15
1.704572642e-15
1.729850085e-15
1.76150489e-15
1.801536898e-15
1.853005596e-15
1.920259865e-15
2.006620463e-15
2.11693862e-15
2.259769359e-15
2.442151892e-15
2.673667558e-15
2.974113103e-15
3.355654244e-15
3.843346865e-15
4.481802112e-15
5.299118408e-15
6.389998632e-15
7.806724642e-15
9.712557565e-15
1.224575164e-14
1.572047028e-14
2.042917799e-14
2.708906814e-14
3.621690684e-14
4.987837287e-14
6.898617484e-14
9.71834401e-14
1.391262309e-13
1.992398748e-13
7.141792227e-13
1.733356849e-12
6.687477959e-12
3.419869263e-11
3.511931786e-10
4.384873379e-09
6.263988851e-08
5.360828084e-07
1.684005767e-15
1.700848061e-15
1.719077859e-15
1.740096094e-15
1.765600787e-15
1.7975512e-15
1.838237246e-15
1.890699158e-15
1.958833986e-15
2.046642697e-15
2.159380326e-15
2.304624063e-15
2.490405857e-15
2.727405809e-15
3.032577463e-15
3.421878681e-15
3.921010245e-15
4.569924298e-15
5.407568973e-15
6.515032467e-15
7.963927423e-15
9.90235097e-15
1.249102325e-14
1.602524444e-14
2.084217155e-14
2.76072665e-14
3.699209208e-14
5.082342071e-14
7.036864925e-14
9.911296292e-14
1.416678374e-13
2.031385145e-13
7.556141047e-13
1.787553117e-12
6.970033098e-12
3.803484986e-11
3.789313703e-10
5.109261291e-09
7.040342117e-08
5.694119438e-07
1.719104246e-15
1.736304059e-15
1.754844523e-15
1.776160017e-15
1.801976068e-15
1.834332528e-15
1.875668092e-15
1.929043332e-15
1.998239427e-15
2.087586527e-15
2.202568852e-15
2.350453588e-15
2.539810964e-15
2.781869861e-15
3.09249773e-15
3.489681045e-15
3.999677007e-15
4.660558833e-15
5.516932289e-15
6.64360793e-15
8.123211661e-15
1.009705032e-14
1.273978402e-14
1.633861828e-14
2.126013119e-14
2.814510947e-14
3.776649068e-14
5.180151049e-14
7.17724257e-14
1.010665199e-13
1.442933694e-13
2.070885008e-13
7.974288064e-13
1.842944678e-12
7.258760548e-12
4.456032238e-11
4.068377158e-10
5.906372021e-09
7.824271421e-08
6.109125458e-07
1.754688321e-15
1.772263987e-15
1.791147351e-15
1.812801801e-15
1.838990449e-15
1.871819996e-15
1.913823432e-15
1.968106913e-15
2.038460823e-15
2.129407385e-15
2.246593754e-15
2.397250985e-15
2.590288442e-15
2.837276151e-15
3.153777663e-15
3.558973378e-15
4.079650217e-15
4.753332409e-15
5.627786148e-15
6.775272393e-15
8.285102123e-15
1.029626365e-14
1.299276985e-14
1.665984293e-14
2.168475781e-14
2.869949452e-14
3.854522416e-14
5.280881883e-14
7.319919947e-14
1.030489883e-13
1.469957167e-13
2.110933914e-13
8.396978355e-13
1.899506305e-12
7.553390423e-12
5.115499924e-11
4.349364892e-10
6.711849201e-09
8.615712704e-08
6.527420356e-07
1.790803304e-15
1.808769962e-15
1.828022063e-15
1.850050858e-15
1.876658421e-15
1.910009112e-15
1.952708806e-15
2.007922709e-15
2.079497664e-15
2.172094464e-15
2.291499239e-15
2.445019654e-15
2.64181874e-15
2.893735447e-15
3.216378495e-15
3.629724775e-15
4.161088218e-15
4.848085029e-15
5.740455522e-15
6.909815375e-15
8.449912586e-15
1.049981732e-14
1.325045006e-14
1.698854059e-14
2.211709421e-14
2.926853027e-14
3.933185101e-14
5.384280987e-14
7.465043889e-14
1.050640191e-13
1.497696451e-13
2.151564328e-13
8.824814791e-13
2.089222344e-12
7.853712604e-12
5.782063764e-11
4.696074335e-10
7.52559551e-09
9.414608113e-08
6.949029255e-07
1.827486346e-15
1.845857718e-15
1.865500258e-15
1.887932938e-15
1.914996193e-15
1.948906671e-15
1.9923345e-15
2.048510556e-15
2.12135641e-15
2.215650878e-15
2.337311309e-15
2.493769176e-15
2.69440623e-15
2.951309768e-15
3.280290488e-15
3.701932112e-15
4.244081579e-15
4.944761451e-15
5.855134916e-15
7.047154671e-15
8.617844745e-15
1.070765825e-14
1.351314147e-14
1.732454647e-14
2.255779531e-14
2.985110324e-14
4.012887937e-14
5.490184961e-14
7.612743218e-14
1.071143785e-13
1.526113513e-13
2.192805782e-13
9.258336874e-13
2.309946228e-12
8.159537393e-12
6.455887812e-11
5.605738083e-10
8.347560239e-09
1.02208988e-07
7.373969249e-07
1.864769296e-15
1.883558323e-15
1.903610208e-15
1.926471854e-15
1.954021397e-15
1.988524911e-15
2.03271323e-15
2.089886082e-15
2.164047157e-15
2.260085825e-15
2.38404902e-15
2.543512708e-15
2.748064715e-15
3.010038692e-15
3.345518981e-15
3.775606302e-15
4.328689638e-15
5.043357756e-15
5.971951423e-15
7.1872763e-15
8.789041099e-15
1.091979988e-14
1.378107359e-14
1.766781806e-14
2.30072913e-14
3.044659929e-14
4.093811189e-14
5.59849369e-14
7.763132403e-14
1.092021985e-13
1.555181141e-13
2.234685105e-13
9.698012156e-13
2.534868331e-12
9.264386558e-12
7.137243504e-11
6.523238549e-10
9.177633175e-09
1.103452947e-07
7.802251114e-07
1.902680286e-15
1.921899466e-15
1.942377696e-15
1.965690208e-15
1.993752541e-15
2.028878837e-15
2.073859252e-15
2.132063992e-15
2.207582166e-15
2.305411479e-15
2.431729095e-15
2.594265499e-15
2.802811656e-15
3.069951599e-15
3.412077471e-15
3.850765778e-15
4.414957755e-15
5.143895141e-15
6.090997312e-15
7.330202804e-15
8.963613172e-15
1.113629243e-14
1.405442578e-14
1.801838344e-14
2.346588541e-14
3.105472453e-14
4.17608779e-14
5.709151547e-14
7.916314493e-14
1.113291658e-13
1.584880097e-13
2.471293142e-13
1.014424478e-12
2.763960197e-12
1.06132147e-11
7.826333341e-11
7.448936086e-10
1.001571891e-08
1.185543467e-07
8.23789221e-07
1.941244768e-15
1.960906378e-15
1.981826676e-15
2.005609743e-15
2.034208583e-15
2.069984948e-15
2.115787935e-15
2.175059236e-15
2.251975185e-15
2.351641736e-15
2.480367787e-15
2.646044107e-15
2.858665986e-15
3.13107342e-15
3.479984142e-15
3.927433346e-15
4.502925389e-15
5.246407149e-15
6.212346918e-15
7.475976482e-15
9.141656526e-15
1.135720647e-14
1.43333488e-14
1.837631209e-14
2.393381189e-14
3.167539059e-14
4.259818977e-14
5.822134222e-14
8.072383469e-14
1.134966505e-13
1.615198939e-13
2.79533058e-13
1.059737336e-12
2.997209211e-12
1.198420907e-11
8.523328286e-11
8.383131592e-10
1.086172255e-08
1.302743645e-07
8.784049853e-07
1.980486249e-15
2.000602504e-15
2.021979763e-15
2.046251554e-15
2.07540869e-15
2.111860607e-15
2.1585155e-15
2.218887376e-15
2.297241095e-15
2.398791678e-15
2.529981614e-15
2.698866004e-15
2.915647362e-15
3.193427354e-15
3.549260101e-15
4.005634621e-15
4.592629838e-15
5.350933491e-15
6.336065434e-15
7.624650507e-15
9.323258728e-15
1.158262396e-14
1.461797724e-14
1.874169861e-14
2.441126994e-14
3.230864113e-14
4.345084826e-14
5.937439508e-14
8.231426204e-14
1.157058119e-13
1.646132113e-13
3.12471112e-13
1.105768837e-12
3.234609552e-12
1.337712656e-11
9.228384862e-11
9.326055046e-10
1.171560383e-08
1.438674709e-07
9.33444828e-07
2.020426814e-15
2.041009989e-15
2.062858584e-15
2.087636242e-15
2.117372111e-15
2.154523725e-15
2.202058853e-15
2.263564657e-15
2.343395709e-15
2.446877332e-15
2.580587624e-15
2.752749406e-15
2.973775971e-15
3.257036169e-15
3.619928463e-15
4.085397225e-15
4.684107944e-15
5.457517093e-15
6.462213524e-15
7.776284218e-15
9.508503576e-15
1.18126334e-14
1.490843687e-14
1.911465358e-14
2.489844332e-14
3.295460503e-14
4.431951344e-14
6.055080835e-14
8.393524104e-14
1.179576691e-13
1.677677966e-13
3.459601519e-13
1.152544664e-12
3.476161492e-12
1.47917985e-11
9.941647471e-11
1.027786905e-09
1.337739055e-08
1.575803424e-07
9.889060971e-07
2.061087522e-15
2.082150031e-15
2.104484046e-15
2.12978403e-15
2.16011813e-15
2.197992594e-15
2.24643546e-15
2.309107979e-15
2.390455639e-15
2.495915536e-15
2.632203496e-15
2.807713194e-15
3.03307252e-15
3.321922836e-15
3.692013863e-15
4.166750343e-15
4.777396858e-15
5.566202709e-15
6.590849755e-15
7.930940626e-15
9.697473335e-15
1.204732723e-14
1.520484906e-14
1.94952987e-14
2.539551129e-14
3.361346663e-14
4.52047525e-14
6.175082748e-14
8.558754459e-14
1.202531507e-13
1.709837943e-13
3.80016153e-13
1.200087756e-12
3.721870576e-12
1.622811013e-11
1.066324017e-10
1.123880669e-09
1.52875767e-08
1.714123186e-07
1.044786146e-06
2.102488685e-15
2.124043148e-15
2.14687654e-15
2.172714879e-15
2.203666053e-15
2.242285798e-15
2.291663269e-15
2.355534837e-15
2.438438207e-15
2.54592386e-15
2.68484756e-15
2.863776898e-15
3.093558281e-15
3.388110834e-15
3.765542186e-15
4.249724469e-15
4.872534376e-15
5.677036293e-15
6.722031899e-15
8.088685095e-15
9.890249937e-15
1.228680054e-14
1.550733348e-14
1.9883764e-14
2.590265466e-14
3.428544685e-14
4.610707195e-14
6.297477735e-14
8.727191539e-14
1.225931302e-13
1.742615925e-13
4.146544521e-13
1.248418834e-12
3.971746726e-12
1.768598386e-11
1.139326915e-10
1.22090931e-09
1.721548741e-08
1.853625043e-07
1.10108143e-06
2.144650093e-15
2.166709379e-15
2.190056097e-15
2.21644857e-15
2.248035234e-15
2.287422179e-15
2.33776065e-15
2.402863278e-15
2.487361375e-15
2.596920551e-15
2.738538796e-15
2.920960688e-15
3.155255145e-15
3.455624303e-15
3.840540416e-15
4.334351258e-15
4.969559074e-15
5.790064731e-15
6.855817644e-15
8.249584655e-15
1.008691564e-14
1.253115041e-14
1.581600978e-14
2.028018639e-14
2.642005885e-14
3.497079133e-14
4.702693942e-14
6.422304025e-14
8.898907511e-14
1.249784519e-13
1.776017697e-13
4.498898327e-13
1.297556821e-12
4.225803506e-12
1.916536271e-11
1.213181759e-10
1.318891635e-09
1.916117684e-08
1.994299594e-07
1.159791898e-06
2.187591173e-15
2.21016844e-15
2.234042518e-15
2.261004791e-15
2.293245096e-15
2.333420821e-15
2.384746362e-15
2.451111855e-15
2.537243705e-15
2.648924499e-15
2.793296831e-15
2.979285387e-15
3.218185658e-15
3.524488114e-15
3.917036542e-15
4.420663417e-15
5.068510368e-15
5.90533573e-15
6.992264993e-15
8.413707658e-15
1.028755341e-14
1.278047567e-14
1.613099869e-14
2.068470886e-14
2.694791537e-14
3.566976303e-14
4.796479825e-14
6.549604053e-14
9.073973179e-14
1.274099477e-13
1.810050554e-13
4.857365986e-13
1.347519197e-12
4.484057713e-12
2.066619181e-11
1.28789343e-10
1.417842979e-09
2.112469493e-08
2.136137118e-07
1.229766556e-06
2.23133112e-15
2.254439848e-15
2.278855469e-15
2.306403201e-15
2.339315165e-15
2.380301045e-15
2.432639534e-15
2.500299594e-15
2.588104314e-15
2.701955202e-15
2.849141926e-15
3.03877247e-15
3.282373053e-15
3.594727908e-15
3.995059502e-15
4.508694649e-15
5.169428531e-15
6.0228978e-15
7.131432501e-15
8.581123611e-15
1.049224715e-14
1.303487685e-14
1.645242274e-14
2.109748002e-14
2.748642242e-14
3.638263759e-14
4.892107749e-14
6.6794234e-14
9.252458599e-14
1.2988845e-13
1.844722981e-13
5.22208639e-13
1.398322295e-12
4.746529751e-12
2.218839923e-11
1.376148688e-10
1.559837923e-09
2.310607392e-08
2.324216478e-07
1.300250383e-06
2.275889004e-15
2.299543016e-15
2.32451457e-15
2.352663496e-15
2.386265104e-15
2.428082426e-15
2.481459652e-15
2.550445983e-15
2.639962859e-15
2.756032755e-15
2.906094971e-15
3.099444074e-15
3.347841262e-15
3.666370105e-15
4.074639145e-15
4.598479606e-15
5.272354707e-15
6.142800259e-15
7.273379423e-15
8.751903121e-15
1.070108187e-14
1.329445621e-14
1.678040676e-14
2.151865383e-14
2.803578498e-14
3.710970056e-14
4.989619864e-14
6.811810074e-14
9.434433566e-14
1.324147993e-13
1.880044409e-13
5.593194844e-13
1.449981558e-12
5.013244693e-12
2.373189501e-11
1.622692015e-10
1.845866073e-09
2.510545203e-08
2.537879156e-07
1.371239397e-06
2.321283847e-15
2.345497332e-15
2.37103946e-15
2.399805456e-15
2.434114748e-15
2.476784799e-15
2.531226563e-15
2.601570952e-15
2.692839516e-15
2.811177828e-15
2.96417748e-15
3.161322999e-15
3.414614932e-15
3.739441915e-15
4.155806198e-15
4.690053857e-15
5.377330913e-15
6.265093254e-15
7.418165811e-15
8.926117885e-15
1.091414384e-14
1.355931787e-14
1.711507823e-14
2.194838941e-14
2.859621476e-14
3.785124566e-14
5.089058024e-14
6.946814014e-14
9.619968012e-14
1.349898496e-13
1.916025021e-13
5.970823527e-13
1.502511685e-12
5.284228291e-12
2.529684903e-11
1.872086241e-10
2.134776105e-09
2.712285272e-08
2.753289609e-07
1.442727514e-06
2.367534693e-15
2.392322229e-15
2.418449861e-15
2.447848996e-15
2.482884132e-15
2.526428282e-15
2.581960472e-15
2.653694871e-15
2.746754969e-15
2.867411662e-15
3.023411584e-15
3.22443271e-15
3.482719429e-15
3.813971336e-15
4.238592258e-15
4.783453875e-15
5.484400045e-15
6.389827794e-15
7.565852601e-15
9.103840723e-15
1.113152067e-14
1.382956786e-14
1.745656754e-14
2.238685094e-14
2.916793001e-14
3.860757384e-14
5.19046411e-14
7.084486766e-14
9.809132311e-14
1.376144714e-13
1.952675601e-13
6.355101828e-13
1.555926765e-12
5.559510176e-12
2.688343382e-11
2.12436984e-10
2.426570762e-09
2.999695882e-08
2.970450256e-07
1.514712402e-06
2.414660665e-15
2.440037236e-15
2.46676562e-15
2.496814206e-15
2.532593526e-15
2.57703329e-15
2.633681958e-15
2.706838552e-15
2.801730412e-15
2.924756063e-15
3.083820032e-15
3.288797338e-15
3.55218084e-15
3.889987151e-15
4.323029773e-15
4.878717022e-15
5.593605891e-15
6.517055778e-15
7.716501669e-15
9.28514562e-15
1.135330142e-14
1.410531434e-14
1.780500814e-14
2.283420756e-14
2.975115531e-14
3.93789927e-14
5.293880251e-14
7.224881266e-14
1.000199752e-13
1.402895534e-13
1.990007405e-13
6.746156545e-13
1.610240377e-12
5.839122229e-12
2.849182196e-11
2.379580064e-10
2.721264996e-09
3.415460292e-08
3.189357582e-07
1.595074659e-06
2.462681009e-15
2.488662025e-15
2.516006759e-15
2.546721387e-15
2.583263457e-15
2.628620558e-15
2.686411976e-15
2.761023249e-15
2.857787541e-15
2.983233397e-15
3.145426188e-15
3.354441683e-15
3.623025975e-15
3.967518928e-15
4.409152037e-15
4.975881545e-15
5.704993136e-15
6.646830025e-15
7.870175894e-15
9.470107784e-15
1.157957674e-14
1.438666761e-14
1.816053675e-14
2.329063333e-14
3.034612144e-14
4.016581629e-14
5.399348981e-14
7.368051701e-14
1.019863555e-13
1.430160026e-13
2.028032052e-13
7.144111845e-13
1.665465601e-12
6.123097214e-12
3.012218125e-11
2.63775048e-10
3.018894716e-09
3.834938348e-08
3.410000644e-07
1.683335808e-06
2.511615142e-15
2.538216453e-15
2.566193509e-15
2.597591083e-15
2.634914741e-15
2.681211154e-15
2.740171877e-15
2.816270665e-15
2.914948558e-15
3.042866593e-15
3.208254029e-15
3.421391213e-15
3.695282369e-15
4.046597023e-15
4.496993184e-15
5.074986574e-15
5.818607378e-15
6.77920431e-15
8.026939209e-15
9.658803702e-15
1.18104389e-14
1.46737403e-14
1.852329337e-14
2.375630716e-14
3.095306523e-14
4.096836492e-14
5.506913356e-14
7.514053424e-14
1.039911928e-13
1.457947432e-13
2.066761428e-13
7.549088905e-13
1.721614959e-12
6.411466965e-12
3.177466592e-11
2.898912975e-10
3.319489822e-09
4.25812278e-08
3.634726395e-07
1.772197122e-06
2.561482679e-15
2.588720598e-15
2.617346344e-15
2.649444114e-15
2.687568506e-15
2.734826507e-15
2.794983412e-15
2.872602964e-15
2.973236179e-15
3.103679146e-15
3.272328154e-15
3.489672068e-15
3.768978286e-15
4.127252571e-15
4.586588189e-15
5.176072127e-15
5.934495144e-15
6.914233396e-15
8.186856652e-15
9.85131121e-15
1.204598193e-14
1.496664746e-14
1.889342149e-14
2.423141278e-14
3.157222944e-14
4.178696527e-14
5.616617035e-14
7.662942893e-14
1.060352261e-13
1.486267143e-13
2.106207579e-13
7.961204966e-13
1.778700287e-12
6.704259705e-12
3.344940279e-11
3.163097692e-10
3.623075086e-09
4.685003436e-08
3.94384311e-07
1.86165782e-06
2.612303468e-15
2.640194786e-15
2.669486012e-15
2.702301599e-15
2.741246213e-15
2.789488415e-15
2.850868756e-15
2.930042772e-15
3.032673636e-15
3.165695118e-15
3.337673779e-15
3.559311061e-15
3.844142717e-15
4.209517496e-15
4.677972868e-15
5.279179117e-15
6.052703906e-15
7.051973066e-15
8.349994423e-15
1.004770955e-14
1.228630168e-14
1.52655066e-14
1.927106807e-14
2.471613871e-14
3.220386274e-14
4.262195039e-14
5.728504348e-14
7.814777641e-14
1.081192047e-13
1.51512865e-13
2.146382605e-13
8.380571402e-13
1.836732542e-12
7.001496463e-12
3.514644399e-11
3.430333478e-10
3.929666005e-09
5.115612776e-08
4.255368824e-07
1.951717131e-06
2.66409762e-15
2.692659622e-15
2.722633559e-15
2.756184985e-15
2.795969683e-15
2.845219075e-15
2.907850515e-15
2.988613197e-15
3.093284685e-15
3.228939146e-15
3.404316748e-15
3.630335682e-15
3.920805384e-15
4.293424509e-15
4.771183883e-15
5.384349356e-15
6.173282101e-15
7.192480157e-15
8.516419925e-15
1.024807946e-14
1.25314959e-14
1.557043786e-14
1.965638365e-14
2.521067829e-14
3.284821965e-14
4.347365981e-14
5.842620344e-14
7.969616257e-14
1.102438881e-13
1.54454146e-13
2.187298549e-13
8.807290398e-13
1.895720993e-12
7.303186518e-12
4.154132791e-11
3.700649768e-10
4.239267418e-09
5.549980436e-08
4.569299829e-07
2.044073308e-06
2.716885529e-15
2.746136015e-15
2.776810358e-15
2.811116066e-15
2.851761112e-15
2.902041089e-15
2.965951744e-15
3.048337835e-15
3.155093618e-15
3.293436447e-15
3.472283532e-15
3.702774103e-15
3.998996746e-15
4.379007115e-15
4.866258747e-15
5.491625572e-15
6.296279152e-15
7.335812595e-15
8.686201822e-15
1.045250318e-14
1.278166435e-14
1.588156403e-14
2.00495224e-14
2.571522966e-14
3.350556056e-14
4.434243974e-14
5.959010837e-14
8.12751839e-14
1.124100466e-13
1.574514937e-13
2.228967137e-13
9.241449032e-13
2.083321819e-12
7.609395769e-12
4.805132529e-11
3.974036521e-10
4.746959615e-09
5.988133519e-08
4.885637122e-07
2.154187638e-06
2.770687897e-15
2.800645201e-15
2.832038128e-15
2.867117007e-15
2.908643095e-15
2.959977491e-15
3.025195961e-15
3.109240784e-15
3.218125269e-15
3.359212829e-15
3.541601241e-15
3.776655185e-15
4.078748004e-15
4.466299617e-15
4.963235834e-15
5.601051419e-15
6.42174549e-15
7.482029433e-15
8.859410086e-15
1.066106459e-14
1.303690883e-14
1.619901067e-14
2.045064219e-14
2.622999577e-14
3.417615176e-14
4.522864314e-14
6.077722445e-14
8.288544795e-14
1.146184652e-13
1.605057998e-13
2.426503815e-13
9.683175626e-13
2.31187095e-12
7.920165822e-12
5.464705561e-11
4.250494134e-10
5.552684961e-09
6.644877565e-08
5.204394595e-07
2.265016856e-06
2.825525756e-15
2.856208763e-15
2.888338955e-15
2.924210367e-15
2.966638643e-15
3.01905176e-15
3.085607162e-15
3.171346655e-15
3.282405027e-15
3.426294695e-15
3.612297627e-15
3.85200848e-15
4.160091107e-15
4.555337125e-15
5.062154386e-15
5.712671492e-15
6.549732578e-15
7.63119088e-15
9.036116045e-15
1.087384922e-14
1.329733331e-14
1.652290615e-14
2.085990465e-14
2.675518443e-14
3.486026544e-14
4.613262995e-14
6.198802627e-14
8.452757356e-14
1.168699419e-13
1.636180561e-13
2.7503614e-13
1.013259959e-12
2.544127892e-12
8.261461619e-12
6.13290015e-11
4.530038656e-10
6.366299298e-09
7.445626255e-08
5.525567666e-07
2.376561277e-06
2.881420486e-15
2.912848653e-15
2.945735316e-15
2.982419111e-15
3.025771202e-15
3.079287838e-15
3.147209836e-15
3.234680588e-15
3.347958846e-15
3.494709055e-15
3.684401096e-15
3.928864246e-15
4.24305876e-15
4.646155562e-15
5.163054528e-15
5.826531347e-15
6.680292938e-15
7.783358346e-15
9.216392433e-15
1.109094433e-14
1.356304394e-14
1.685338174e-14
2.12774752e-14
2.729100833e-14
3.555817981e-14
4.70547672e-14
6.322299716e-14
8.620219127e-14
1.191652907e-13
1.667893558e-13
3.080155427e-13
1.058984165e-12
2.780115027e-12
9.625314791e-12
6.809759096e-11
5.270490403e-10
7.187930743e-09
8.253239773e-08
5.922552049e-07
2.488825207e-06
2.938393832e-15
2.970587208e-15
3.004250094e-15
3.041766637e-15
3.086064672e-15
3.140710143e-15
3.21002898e-15
3.299268264e-15
3.414813258e-15
3.564483539e-15
3.757940716e-15
4.007253449e-15
4.327684431e-15
4.738791679e-15
5.265977277e-15
5.942677515e-15
6.813480175e-15
7.938594472e-15
9.400313442e-15
1.131243897e-14
1.383414915e-14
1.719057169e-14
2.170352316e-14
2.783768512e-14
3.627017913e-14
4.799542928e-14
6.448262954e-14
8.790994391e-14
1.215053458e-13
1.700208029e-13
3.415986165e-13
1.10550201e-12
3.01989031e-12
1.100921933e-11
7.495340965e-11
6.181518701e-10
8.017632721e-09
9.067730549e-08
6.349953637e-07
2.601807314e-06
2.996467923e-15
3.02944717e-15
3.063906597e-15
3.102276789e-15
3.147543423e-15
3.203343591e-15
3.274090115e-15
3.365135916e-15
3.482995383e-15
3.635646402e-15
3.832946227e-15
4.087207777e-15
4.414002365e-15
4.833283062e-15
5.370964564e-15
6.061157525e-15
6.949349007e-15
8.096963173e-15
9.587954767e-15
1.153842403e-14
1.411075974e-14
1.753461327e-14
2.213822175e-14
2.839543742e-14
3.699655385e-14
4.895499803e-14
6.576742531e-14
8.96514872e-14
1.238909603e-13
1.733135194e-13
3.757956432e-13
1.152825654e-12
3.263509171e-12
1.241336126e-11
8.189731952e-11
7.102726792e-10
8.855425272e-09
9.889129098e-08
6.780528165e-07
2.736320413e-06
3.055665289e-15
3.089451703e-15
3.124728577e-15
3.163973873e-15
3.210232309e-15
3.267213609e-15
3.339419299e-15
3.432310349e-15
3.552532944e-15
3.708226543e-15
3.909448052e-15
4.168759649e-15
4.502047596e-15
4.929668151e-15
5.47805924e-15
6.182019927e-15
7.087955291e-15
8.258529671e-15
9.779393656e-15
1.176899233e-14
1.43929889e-14
1.788564687e-14
2.258174822e-14
2.896449294e-14
3.773760066e-14
4.993386302e-14
6.707789606e-14
9.142748996e-14
1.263230048e-13
1.766686393e-13
4.106170494e-13
1.200967427e-12
3.511025626e-12
1.383794101e-11
8.893011953e-11
8.03417402e-10
9.701317853e-09
1.071745738e-07
7.214282609e-07
2.875384497e-06
3.116008873e-15
3.150624408e-15
3.186740243e-15
3.22688268e-15
3.274156692e-15
3.332346153e-15
3.406043147e-15
3.50081895e-15
3.623454281e-15
3.782253513e-15
3.98747731e-15
4.251942229e-15
4.591855954e-15
5.027986245e-15
5.587305102e-15
6.305314308e-15
7.229356056e-15
8.42336054e-15
9.974708962e-15
1.200423863e-14
1.468095231e-14
1.824381604e-14
2.303428386e-14
2.954508452e-14
3.849362264e-14
5.09324217e-14
6.841456339e-14
9.323863429e-14
1.288023673e-13
1.80087311e-13
4.460734127e-13
1.249939799e-12
3.762492761e-12
1.528315788e-11
9.605254909e-11
8.975906232e-10
1.055530255e-08
1.155272848e-07
7.651223784e-07
3.015317295e-06
3.17752205e-15
3.212989338e-15
3.249966283e-15
3.291028496e-15
3.339342453e-15
3.39876772e-15
3.473988841e-15
3.570689702e-15
3.695788364e-15
3.857757528e-15
4.067065828e-15
4.336789438e-15
4.683464084e-15
5.128277529e-15
5.698746909e-15
6.431091322e-15
7.373609532e-15
8.591523739e-15
1.017398119e-14
1.224425974e-14
1.49747682e-14
1.860926759e-14
2.34960141e-14
3.013745021e-14
3.926492936e-14
5.195107956e-14
6.977795918e-14
9.508561572e-14
1.313299529e-13
1.835706988e-13
4.821754547e-13
1.299755345e-12
4.017962689e-12
1.674920629e-11
1.032652907e-10
9.927950545e-10
1.141734224e-08
1.255784421e-07
8.091359136e-07
3.156120552e-06
3.240228639e-15
3.276571018e-15
3.314431873e-15
3.356437122e-15
3.405816007e-15
3.466505369e-15
3.543284149e-15
3.641951203e-15
3.769564805e-15
3.934769488e-15
4.148246156e-15
4.423335965e-15
4.776909458e-15
5.23058308e-15
5.812430401e-15
6.559402714e-15
7.520775179e-15
8.763088657e-15
1.037729253e-14
1.248915453e-14
1.527455738e-14
1.898215163e-14
2.39671286e-14
3.074183337e-14
4.005183702e-14
5.299025041e-14
7.116862581e-14
9.696914334e-14
1.33906683e-13
1.871199833e-13
5.18934032e-13
1.350426713e-12
4.277486437e-12
1.823627103e-11
1.105689756e-10
1.089030715e-09
1.274057213e-08
1.39396193e-07
8.615597813e-07
3.297797193e-06
3.304152921e-15
3.341394455e-15
3.380162701e-15
3.42313489e-15
3.473604325e-15
3.535586736e-15
3.613957439e-15
3.71463268e-15
3.84481388e-15
4.013320984e-15
4.231051581e-15
4.511617289e-15
4.872230393e-15
5.334944893e-15
5.928402319e-15
6.690301341e-15
7.670913725e-15
8.93812615e-15
1.058472696e-14
1.273902402e-14
1.558044337e-14
1.936262166e-14
2.444782129e-14
3.13584828e-14
4.085466857e-14
5.405035649e-14
7.258711638e-14
9.888993988e-14
1.365334958e-13
1.907363614e-13
5.563601271e-13
1.401966605e-12
4.541113853e-12
1.974451946e-11
1.179641187e-10
1.186301572e-09
1.466931456e-08
1.533298454e-07
9.176281834e-07
3.46590539e-06
3.369319648e-15
3.407485158e-15
3.447184976e-15
3.491148678e-15
3.542734948e-15
3.606040047e-15
3.686037698e-15
3.788764004e-15
3.921566536e-15
4.093444321e-15
4.315516139e-15
4.601669687e-15
4.969466067e-15
5.441405896e-15
6.046710433e-15
6.823841207e-15
7.824087194e-15
9.116708585e-15
1.079637022e-14
1.299397144e-14
1.589255241e-14
1.975083463e-14
2.493829049e-14
3.198765275e-14
4.167375386e-14
5.513182868e-14
7.403399491e-14
1.008487418e-13
1.392113456e-13
1.944210464e-13
5.944648395e-13
1.45438775e-12
4.808893616e-12
2.127408943e-11
1.25451034e-10
1.284619322e-09
1.66162895e-08
1.673793316e-07
9.741005631e-07
3.642442606e-06
3.435754061e-15
3.474869147e-15
3.515525446e-15
3.560505927e-15
3.613235999e-15
3.677894139e-15
3.759554546e-15
3.864375705e-15
3.999854413e-15
4.17517253e-15
4.40167464e-15
4.693530256e-15
5.068656536e-15
5.55000997e-15
6.167403558e-15
6.960077483e-15
7.980358943e-15
9.298909877e-15
1.10123099e-14
1.325410225e-14
1.621101355e-14
2.014695102e-14
2.543873895e-14
3.262960313e-14
4.250942976e-14
5.623510671e-14
7.550983656e-14
1.028462994e-13
1.419412026e-13
1.981752676e-13
6.332593752e-13
1.507702904e-12
5.080873748e-12
2.282507372e-11
1.330296915e-10
1.383994326e-09
1.858162018e-08
1.815446144e-07
1.030976264e-06
3.820048529e-06
3.503481904e-15
3.543572975e-15
3.585211416e-15
3.631234658e-15
3.685136207e-15
3.751178477e-15
3.834538255e-15
3.941498994e-15
4.079709859e-15
4.258539382e-15
4.489562673e-15
4.787236928e-15
5.169842755e-15
5.660801972e-15
6.290531582e-15
7.099066541e-15
8.139793698e-15
9.484805536e-15
1.123263553e-14
1.351952426e-14
1.653595873e-14
2.055113494e-14
2.594937401e-14
3.328459954e-14
4.336204035e-14
5.736063929e-14
7.70152277e-14
1.048833764e-13
1.44724052e-13
2.020002689e-13
6.727550333e-13
1.561924865e-12
5.357103216e-12
2.439750094e-11
1.516566461e-10
1.484435049e-09
2.056543312e-08
1.958255661e-07
1.088254673e-06
3.998722452e-06
3.572529436e-15
3.613623736e-15
3.656270759e-15
3.703363487e-15
3.75846492e-15
3.825923164e-15
3.911019762e-15
4.020165772e-15
4.161165946e-15
4.343579413e-15
4.579216633e-15
4.882828488e-15
5.273066594e-15
5.773827754e-15
6.416145493e-15
7.240865982e-15
8.302457584e-15
9.674472708e-15
1.145743854e-14
1.379034763e-14
1.686752282e-14
2.096355417e-14
2.64704076e-14
3.395291342e-14
4.4231937e-14
5.850888433e-14
7.855076607e-14
1.069607499e-13
1.475608932e-13
2.058973072e-13
7.129631831e-13
1.617066421e-12
5.637630196e-12
2.59915616e-11
1.766968976e-10
1.753001711e-09
2.256787372e-08
2.102218661e-07
1.145934941e-06
4.178464024e-06
3.642923444e-15
3.685049086e-15
3.728731938e-15
3.77692164e-15
3.833252121e-15
3.902158969e-15
3.989030691e-15
4.100408657e-15
4.244256491e-15
4.430327934e-15
4.670673736e-15
4.980344597e-15
5.378370864e-15
5.889134189e-15
6.544297402e-15
7.385534666e-15
8.46841817e-15
9.867990219e-15
1.168681241e-14
1.406668497e-14
1.72058437e-14
2.138438025e-14
2.700205642e-14
3.463482216e-14
4.511947857e-14
5.968030903e-14
8.01170608e-14
1.090792101e-13
1.50452737e-13
2.098676488e-13
7.53895227e-13
1.673140289e-12
5.92250289e-12
2.760752105e-11
2.020390223e-10
2.043739199e-09
2.458885409e-08
2.277082652e-07
1.21642229e-06
4.39849733e-06
3.714691261e-15
3.757877254e-15
3.802624016e-15
3.851938976e-15
3.909528448e-15
3.979917335e-15
4.06860337e-15
4.182260993e-15
4.329016069e-15
4.518821055e-15
4.763972037e-15
5.079825807e-15
5.485799333e-15
6.006769195e-15
6.67504057e-15
7.533132748e-15
8.637744498e-15
1.006543862e-14
1.192085262e-14
1.434865138e-14
1.755106235e-14
2.181378858e-14
2.754454198e-14
3.533060924e-14
4.602503151e-14
6.087539009e-14
8.171473244e-14
1.112395591e-13
1.534006022e-13
2.139125624e-13
7.955625423e-13
1.730159007e-12
6.21176993e-12
2.924563014e-11
2.276864438e-10
2.337558812e-09
2.662831834e-08
2.493869143e-07
1.288072712e-06
4.626490804e-06
3.787860777e-15
3.832137059e-15
3.877976675e-15
3.928445996e-15
3.987325208e-15
4.059230403e-15
4.149770848e-15
4.265756878e-15
4.415480037e-15
4.609095701e-15
4.859150453e-15
5.181313585e-15
5.595396754e-15
6.126781756e-15
6.80842944e-15
7.683721703e-15
8.810507129e-15
1.026690022e-14
1.215965682e-14
1.463636452e-14
1.790332288e-14
2.225195849e-14
2.809809073e-14
3.604056429e-14
4.694897006e-14
6.209461382e-14
8.334441296e-14
1.134426101e-13
1.564055062e-13
2.180333074e-13
8.379763849e-13