/*--------------------------------*- C++ -*----------------------------------*\
| =========                 |                                                 |
| \\      /  F ield         | OpenFOAM: The Open Source CFD Toolbox           |
|  \\    /   O peration     | Version:  v2006                                 |
|   \\  /    A nd           | Website:  www.openfoam.com                      |
|    \\/     M anipulation  |                                                 |
\*---------------------------------------------------------------------------*/
FoamFile
{
    version     2.0;
    format      ascii;
    class       volScalarField;
    location    "0.15";
    object      p;
}
// * * * * * * * * * * * * * * * * * * * * * * * * * * * * * * * * * * * * * //

dimensions      [1 -1 -2 0 0 0 0];


internalField   nonuniform List<scalar> 
168000
(
101317.7253
101317.7253
101317.7261
101317.7287
101317.73
101317.7272
101317.7272
101317.7309
101317.7282
101317.7273
101317.7299
101317.7289
101317.7273
101317.7305
101317.7282
101317.728
101317.7307
101317.7273
101317.7308
101317.7282
101317.7301
101317.7292
101317.7303
101317.7296
101317.7314
101317.7296
101317.7336
101317.7302
101317.7334
101317.7337
101317.7315
101317.737
101317.7372
101317.7327
101317.7349
101317.7443
101317.7469
101317.7388
101317.7386
101317.7382
101317.725
101317.725
101317.7254
101317.7267
101317.7273
101317.7264
101317.7264
101317.7279
101317.7268
101317.7264
101317.7276
101317.7272
101317.7264
101317.728
101317.7269
101317.7268
101317.7284
101317.7264
101317.7286
101317.727
101317.7283
101317.7277
101317.7287
101317.7282
101317.7296
101317.7285
101317.7314
101317.7292
101317.7316
101317.732
101317.7308
101317.7349
101317.7351
101317.7324
101317.7345
101317.7419
101317.7441
101317.7381
101317.7378
101317.737
101317.7245
101317.7245
101317.7246
101317.7251
101317.7254
101317.7252
101317.7252
101317.7258
101317.7254
101317.7253
101317.7257
101317.7256
101317.7253
101317.7259
101317.7255
101317.7255
101317.7263
101317.7253
101317.7266
101317.7257
101317.7267
101317.7263
101317.727
101317.7268
101317.7279
101317.7272
101317.7294
101317.7281
101317.7299
101317.7303
101317.7299
101317.7328
101317.7332
101317.7319
101317.7339
101317.7394
101317.7414
101317.737
101317.7367
101317.7357
101317.7237
101317.7236
101317.7236
101317.7238
101317.724
101317.7239
101317.724
101317.7242
101317.7241
101317.724
101317.7242
101317.7242
101317.724
101317.7244
101317.7242
101317.7242
101317.7247
101317.7241
101317.725
101317.7245
101317.7252
101317.725
101317.7256
101317.7255
101317.7265
101317.726
101317.7277
101317.7269
101317.7284
101317.7289
101317.7288
101317.7312
101317.7316
101317.7311
101317.733
101317.7373
101317.7392
101317.7357
101317.7353
101317.7344
101317.7226
101317.7225
101317.7225
101317.7225
101317.7226
101317.7226
101317.7226
101317.7227
101317.7227
101317.7227
101317.7227
101317.7228
101317.7227
101317.7229
101317.7228
101317.7228
101317.7232
101317.7229
101317.7235
101317.7232
101317.7237
101317.7236
101317.7242
101317.7241
101317.725
101317.7247
101317.7262
101317.7257
101317.727
101317.7275
101317.7277
101317.7296
101317.7302
101317.7301
101317.732
101317.7353
101317.7373
101317.7343
101317.7339
101317.7329
101317.7215
101317.7213
101317.7212
101317.7212
101317.7212
101317.7212
101317.7212
101317.7213
101317.7213
101317.7213
101317.7213
101317.7213
101317.7213
101317.7214
101317.7214
101317.7214
101317.7217
101317.7215
101317.722
101317.7218
101317.7223
101317.7222
101317.7227
101317.7227
101317.7235
101317.7234
101317.7246
101317.7244
101317.7255
101317.7261
101317.7265
101317.7281
101317.7287
101317.7291
101317.7309
101317.7335
101317.7354
101317.7331
101317.7328
101317.7314
101317.7202
101317.7201
101317.72
101317.7199
101317.7199
101317.7199
101317.7199
101317.7199
101317.7199
101317.7199
101317.7199
101317.7199
101317.7199
101317.72
101317.72
101317.72
101317.7202
101317.7201
101317.7205
101317.7204
101317.7208
101317.7208
101317.7213
101317.7214
101317.7221
101317.7221
101317.7231
101317.7231
101317.7241
101317.7247
101317.7252
101317.7266
101317.7273
101317.7278
101317.7297
101317.7319
101317.7336
101317.732
101317.7316
101317.7302
101317.7189
101317.7188
101317.7186
101317.7186
101317.7185
101317.7185
101317.7185
101317.7185
101317.7185
101317.7185
101317.7185
101317.7185
101317.7185
101317.7185
101317.7186
101317.7186
101317.7188
101317.7187
101317.719
101317.719
101317.7193
101317.7194
101317.7198
101317.72
101317.7206
101317.7207
101317.7216
101317.7217
101317.7226
101317.7233
101317.7239
101317.7251
101317.7259
101317.7265
101317.7284
101317.7303
101317.7316
101317.7308
101317.7304
101317.729
101317.7175
101317.7174
101317.7173
101317.7172
101317.7172
101317.7171
101317.7171
101317.7171
101317.7171
101317.717
101317.717
101317.717
101317.7171
101317.7171
101317.7171
101317.7172
101317.7173
101317.7173
101317.7176
101317.7176
101317.7179
101317.718
101317.7184
101317.7186
101317.7192
101317.7193
101317.7201
101317.7204
101317.7212
101317.7219
101317.7226
101317.7237
101317.7246
101317.7253
101317.7269
101317.7288
101317.7298
101317.7295
101317.7291
101317.7277
101317.7161
101317.716
101317.7159
101317.7159
101317.7158
101317.7157
101317.7157
101317.7157
101317.7156
101317.7156
101317.7156
101317.7156
101317.7156
101317.7157
101317.7157
101317.7158
101317.7159
101317.7159
101317.7161
101317.7162
101317.7165
101317.7166
101317.717
101317.7172
101317.7177
101317.7179
101317.7187
101317.719
101317.7198
101317.7205
101317.7212
101317.7222
101317.7232
101317.7241
101317.7255
101317.7274
101317.7283
101317.7282
101317.7278
101317.7264
101317.7147
101317.7146
101317.7145
101317.7145
101317.7144
101317.7143
101317.7143
101317.7143
101317.7142
101317.7142
101317.7142
101317.7142
101317.7142
101317.7142
101317.7143
101317.7143
101317.7144
101317.7145
101317.7147
101317.7148
101317.715
101317.7152
101317.7155
101317.7158
101317.7163
101317.7165
101317.7172
101317.7176
101317.7184
101317.7191
101317.7199
101317.7207
101317.7219
101317.7228
101317.7242
101317.726
101317.7269
101317.7269
101317.7262
101317.7248
101317.7133
101317.7132
101317.7131
101317.7131
101317.713
101317.7129
101317.7129
101317.7129
101317.7128
101317.7128
101317.7128
101317.7128
101317.7128
101317.7128
101317.7128
101317.7129
101317.713
101317.7131
101317.7132
101317.7133
101317.7136
101317.7138
101317.7141
101317.7143
101317.7148
101317.7151
101317.7158
101317.7162
101317.717
101317.7177
101317.7185
101317.7193
101317.7205
101317.7215
101317.7229
101317.7245
101317.7254
101317.7255
101317.7245
101317.7232
101317.7119
101317.7118
101317.7117
101317.7117
101317.7116
101317.7115
101317.7115
101317.7114
101317.7114
101317.7114
101317.7113
101317.7113
101317.7113
101317.7114
101317.7114
101317.7115
101317.7115
101317.7116
101317.7118
101317.7119
101317.7121
101317.7123
101317.7127
101317.7129
101317.7134
101317.7137
101317.7143
101317.7148
101317.7156
101317.7162
101317.7171
101317.718
101317.7192
101317.7202
101317.7216
101317.7231
101317.724
101317.7239
101317.7231
101317.7219
101317.7105
101317.7104
101317.7103
101317.7102
101317.7102
101317.7101
101317.7101
101317.71
101317.71
101317.7099
101317.7099
101317.7099
101317.7099
101317.7099
101317.71
101317.71
101317.7101
101317.7102
101317.7103
101317.7105
101317.7107
101317.7109
101317.7112
101317.7115
101317.7119
101317.7123
101317.7129
101317.7134
101317.7141
101317.7148
101317.7157
101317.7166
101317.7178
101317.7188
101317.7202
101317.7217
101317.7225
101317.7222
101317.7218
101317.7205
101317.709
101317.709
101317.7089
101317.7088
101317.7087
101317.7087
101317.7086
101317.7086
101317.7085
101317.7085
101317.7085
101317.7085
101317.7085
101317.7085
101317.7085
101317.7086
101317.7087
101317.7088
101317.7089
101317.709
101317.7092
101317.7095
101317.7098
101317.7101
101317.7105
101317.7109
101317.7115
101317.712
101317.7127
101317.7134
101317.7144
101317.7152
101317.7164
101317.7175
101317.7189
101317.7203
101317.7211
101317.7208
101317.7205
101317.7192
101317.7076
101317.7075
101317.7075
101317.7074
101317.7073
101317.7073
101317.7072
101317.7072
101317.7071
101317.7071
101317.7071
101317.707
101317.707
101317.7071
101317.7071
101317.7071
101317.7072
101317.7073
101317.7074
101317.7076
101317.7078
101317.708
101317.7083
101317.7086
101317.7091
101317.7095
101317.71
101317.7106
101317.7113
101317.712
101317.713
101317.7138
101317.7151
101317.7161
101317.7175
101317.7188
101317.7197
101317.7195
101317.7191
101317.7177
101317.7062
101317.7061
101317.706
101317.706
101317.7059
101317.7058
101317.7058
101317.7057
101317.7057
101317.7056
101317.7056
101317.7056
101317.7056
101317.7056
101317.7056
101317.7057
101317.7058
101317.7059
101317.706
101317.7062
101317.7064
101317.7066
101317.7069
101317.7072
101317.7076
101317.708
101317.7086
101317.7092
101317.7099
101317.7106
101317.7116
101317.7124
101317.7137
101317.7148
101317.7161
101317.7174
101317.7182
101317.7181
101317.7177
101317.716
101317.7047
101317.7047
101317.7046
101317.7045
101317.7044
101317.7044
101317.7043
101317.7043
101317.7042
101317.7042
101317.7042
101317.7042
101317.7042
101317.7042
101317.7042
101317.7042
101317.7043
101317.7044
101317.7046
101317.7047
101317.7049
101317.7051
101317.7054
101317.7058
101317.7062
101317.7066
101317.7072
101317.7077
101317.7085
101317.7092
101317.7102
101317.711
101317.7123
101317.7134
101317.7147
101317.7159
101317.7167
101317.7168
101317.7161
101317.7143
101317.7033
101317.7032
101317.7031
101317.7031
101317.703
101317.7029
101317.7029
101317.7028
101317.7028
101317.7027
101317.7027
101317.7027
101317.7027
101317.7027
101317.7027
101317.7028
101317.7029
101317.703
101317.7031
101317.7033
101317.7035
101317.7037
101317.704
101317.7043
101317.7047
101317.7052
101317.7057
101317.7063
101317.707
101317.7078
101317.7088
101317.7096
101317.7109
101317.712
101317.7134
101317.7142
101317.715
101317.7154
101317.7144
101317.7129
101317.7018
101317.7018
101317.7017
101317.7016
101317.7016
101317.7015
101317.7014
101317.7014
101317.7013
101317.7013
101317.7013
101317.7013
101317.7013
101317.7013
101317.7013
101317.7013
101317.7014
101317.7015
101317.7016
101317.7018
101317.702
101317.7023
101317.7026
101317.7029
101317.7033
101317.7037
101317.7043
101317.7049
101317.7056
101317.7064
101317.7073
101317.7082
101317.7095
101317.7106
101317.712
101317.7126
101317.7135
101317.714
101317.7129
101317.7116
101317.7004
101317.7003
101317.7002
101317.7002
101317.7001
101317.7
101317.7
101317.6999
101317.6999
101317.6998
101317.6998
101317.6998
101317.6998
101317.6998
101317.6998
101317.6999
101317.7
101317.7001
101317.7002
101317.7004
101317.7006
101317.7008
101317.7011
101317.7014
101317.7019
101317.7023
101317.7029
101317.7035
101317.7042
101317.7049
101317.7059
101317.7068
101317.7081
101317.7092
101317.7106
101317.7113
101317.7121
101317.7124
101317.7116
101317.7101
101317.6989
101317.6989
101317.6988
101317.6987
101317.6986
101317.6986
101317.6985
101317.6985
101317.6984
101317.6984
101317.6984
101317.6983
101317.6983
101317.6983
101317.6984
101317.6984
101317.6985
101317.6986
101317.6987
101317.6989
101317.6991
101317.6993
101317.6996
101317.7
101317.7004
101317.7009
101317.7014
101317.702
101317.7028
101317.7035
101317.7045
101317.7054
101317.7067
101317.7078
101317.7092
101317.71
101317.7108
101317.7107
101317.7102
101317.7085
101317.6975
101317.6974
101317.6973
101317.6972
101317.6972
101317.6971
101317.6971
101317.697
101317.697
101317.6969
101317.6969
101317.6969
101317.6969
101317.6969
101317.6969
101317.697
101317.697
101317.6971
101317.6973
101317.6974
101317.6976
101317.6979
101317.6982
101317.6985
101317.699
101317.6994
101317.7
101317.7006
101317.7013
101317.7021
101317.7031
101317.704
101317.7053
101317.7064
101317.7078
101317.7086
101317.7094
101317.7091
101317.7088
101317.7067
101317.696
101317.6959
101317.6959
101317.6958
101317.6957
101317.6957
101317.6956
101317.6955
101317.6955
101317.6955
101317.6954
101317.6954
101317.6954
101317.6954
101317.6955
101317.6955
101317.6956
101317.6957
101317.6958
101317.696
101317.6962
101317.6964
101317.6967
101317.6971
101317.6975
101317.698
101317.6985
101317.6991
101317.6999
101317.7007
101317.7016
101317.7025
101317.7038
101317.705
101317.7063
101317.7072
101317.708
101317.7078
101317.7074
101317.7051
101317.6945
101317.6945
101317.6944
101317.6943
101317.6942
101317.6942
101317.6941
101317.6941
101317.694
101317.694
101317.694
101317.6939
101317.6939
101317.694
101317.694
101317.694
101317.6941
101317.6942
101317.6943
101317.6945
101317.6947
101317.695
101317.6953
101317.6956
101317.696
101317.6965
101317.6971
101317.6977
101317.6984
101317.6992
101317.7002
101317.7011
101317.7024
101317.7036
101317.7049
101317.7058
101317.7066
101317.7064
101317.7057
101317.7037
101317.6931
101317.693
101317.6929
101317.6928
101317.6928
101317.6927
101317.6927
101317.6926
101317.6926
101317.6925
101317.6925
101317.6925
101317.6925
101317.6925
101317.6925
101317.6926
101317.6926
101317.6927
101317.6929
101317.693
101317.6933
101317.6935
101317.6938
101317.6942
101317.6946
101317.6951
101317.6956
101317.6963
101317.697
101317.6978
101317.6988
101317.6997
101317.7009
101317.7022
101317.7034
101317.7044
101317.7052
101317.705
101317.704
101317.7022
101317.6916
101317.6915
101317.6914
101317.6914
101317.6913
101317.6912
101317.6912
101317.6911
101317.6911
101317.691
101317.691
101317.691
101317.691
101317.691
101317.691
101317.6911
101317.6912
101317.6913
101317.6914
101317.6916
101317.6918
101317.692
101317.6923
101317.6927
101317.6931
101317.6936
101317.6942
101317.6948
101317.6956
101317.6964
101317.6973
101317.6983
101317.6995
101317.7008
101317.7018
101317.703
101317.7037
101317.7036
101317.7026
101317.7007
101317.6901
101317.69
101317.69
101317.6899
101317.6898
101317.6898
101317.6897
101317.6897
101317.6896
101317.6896
101317.6895
101317.6895
101317.6895
101317.6895
101317.6896
101317.6896
101317.6897
101317.6898
101317.6899
101317.6901
101317.6903
101317.6906
101317.6909
101317.6912
101317.6917
101317.6922
101317.6927
101317.6934
101317.6941
101317.6949
101317.6959
101317.6969
101317.6979
101317.6993
101317.7002
101317.7016
101317.7021
101317.7022
101317.7012
101317.6989
101317.6886
101317.6886
101317.6885
101317.6884
101317.6883
101317.6883
101317.6882
101317.6882
101317.6881
101317.6881
101317.6881
101317.688
101317.688
101317.6881
101317.6881
101317.6881
101317.6882
101317.6883
101317.6885
101317.6886
101317.6888
101317.6891
101317.6894
101317.6898
101317.6902
101317.6907
101317.6913
101317.6919
101317.6927
101317.6935
101317.6944
101317.6954
101317.6964
101317.6979
101317.6988
101317.7002
101317.7004
101317.7005
101317.6998
101317.6971
101317.6871
101317.6871
101317.687
101317.6869
101317.6869
101317.6868
101317.6867
101317.6867
101317.6866
101317.6866
101317.6866
101317.6866
101317.6866
101317.6866
101317.6866
101317.6867
101317.6867
101317.6868
101317.687
101317.6872
101317.6874
101317.6876
101317.6879
101317.6883
101317.6887
101317.6892
101317.6898
101317.6905
101317.6912
101317.6921
101317.6929
101317.694
101317.695
101317.6965
101317.6974
101317.6988
101317.6989
101317.6988
101317.6983
101317.6956
101317.6857
101317.6856
101317.6855
101317.6854
101317.6854
101317.6853
101317.6853
101317.6852
101317.6852
101317.6851
101317.6851
101317.6851
101317.6851
101317.6851
101317.6851
101317.6852
101317.6852
101317.6854
101317.6855
101317.6857
101317.6859
101317.6862
101317.6865
101317.6868
101317.6873
101317.6878
101317.6883
101317.689
101317.6897
101317.6906
101317.6914
101317.6926
101317.6936
101317.6949
101317.6961
101317.6971
101317.6975
101317.6973
101317.6967
101317.6941
101317.6842
101317.6841
101317.684
101317.684
101317.6839
101317.6838
101317.6838
101317.6837
101317.6837
101317.6836
101317.6836
101317.6836
101317.6836
101317.6836
101317.6836
101317.6837
101317.6838
101317.6839
101317.684
101317.6842
101317.6844
101317.6847
101317.685
101317.6854
101317.6858
101317.6863
101317.6869
101317.6876
101317.6883
101317.6892
101317.69
101317.6912
101317.6922
101317.6934
101317.6947
101317.6955
101317.6962
101317.6959
101317.695
101317.6926
101317.6827
101317.6826
101317.6825
101317.6825
101317.6824
101317.6823
101317.6823
101317.6822
101317.6822
101317.6821
101317.6821
101317.6821
101317.6821
101317.6821
101317.6821
101317.6822
101317.6823
101317.6824
101317.6825
101317.6827
101317.6829
101317.6832
101317.6835
101317.6839
101317.6843
101317.6848
101317.6854
101317.6861
101317.6868
101317.6878
101317.6886
101317.6898
101317.6908
101317.692
101317.6933
101317.694
101317.6948
101317.6945
101317.6935
101317.6908
101317.6812
101317.6811
101317.681
101317.681
101317.6809
101317.6808
101317.6808
101317.6807
101317.6807
101317.6806
101317.6806
101317.6806
101317.6806
101317.6806
101317.6806
101317.6807
101317.6808
101317.6809
101317.681
101317.6812
101317.6814
101317.6817
101317.682
101317.6824
101317.6828
101317.6834
101317.6839
101317.6846
101317.6854
101317.6863
101317.6871
101317.6884
101317.6894
101317.6906
101317.6919
101317.6927
101317.6934
101317.6931
101317.6921
101317.689
101317.6797
101317.6796
101317.6795
101317.6795
101317.6794
101317.6793
101317.6793
101317.6792
101317.6792
101317.6791
101317.6791
101317.6791
101317.6791
101317.6791
101317.6791
101317.6792
101317.6793
101317.6794
101317.6795
101317.6797
101317.6799
101317.6802
101317.6805
101317.6809
101317.6814
101317.6819
101317.6825
101317.6832
101317.6839
101317.6849
101317.6857
101317.6869
101317.688
101317.6892
101317.6906
101317.6913
101317.692
101317.6917
101317.6907
101317.6874
101317.6782
101317.6781
101317.678
101317.678
101317.6779
101317.6778
101317.6778
101317.6777
101317.6777
101317.6776
101317.6776
101317.6776
101317.6776
101317.6776
101317.6776
101317.6777
101317.6778
101317.6779
101317.678
101317.6782
101317.6785
101317.6787
101317.6791
101317.6794
101317.6799
101317.6804
101317.681
101317.6817
101317.6825
101317.6834
101317.6842
101317.6855
101317.6866
101317.6878
101317.6891
101317.6899
101317.6906
101317.6901
101317.6892
101317.6859
101317.6767
101317.6766
101317.6765
101317.6765
101317.6764
101317.6763
101317.6763
101317.6762
101317.6762
101317.6761
101317.6761
101317.6761
101317.6761
101317.6761
101317.6761
101317.6762
101317.6763
101317.6764
101317.6765
101317.6767
101317.677
101317.6772
101317.6776
101317.678
101317.6784
101317.6789
101317.6795
101317.6802
101317.681
101317.682
101317.6828
101317.6841
101317.6851
101317.6864
101317.6877
101317.6885
101317.689
101317.6884
101317.6876
101317.6843
101317.6752
101317.6751
101317.675
101317.6749
101317.6749
101317.6748
101317.6748
101317.6747
101317.6747
101317.6746
101317.6746
101317.6746
101317.6746
101317.6746
101317.6746
101317.6747
101317.6748
101317.6749
101317.675
101317.6752
101317.6755
101317.6757
101317.6761
101317.6765
101317.6769
101317.6774
101317.6781
101317.6788
101317.6795
101317.6805
101317.6813
101317.6826
101317.6837
101317.685
101317.6863
101317.6871
101317.6872
101317.6868
101317.6858
101317.6826
101317.6737
101317.6736
101317.6735
101317.6734
101317.6734
101317.6733
101317.6732
101317.6732
101317.6731
101317.6731
101317.6731
101317.6731
101317.6731
101317.6731
101317.6731
101317.6732
101317.6733
101317.6734
101317.6735
101317.6737
101317.674
101317.6742
101317.6746
101317.675
101317.6754
101317.676
101317.6766
101317.6773
101317.6781
101317.679
101317.6799
101317.6812
101317.6823
101317.6836
101317.6848
101317.6856
101317.6856
101317.6854
101317.6843
101317.6807
101317.6721
101317.6721
101317.672
101317.6719
101317.6719
101317.6718
101317.6717
101317.6717
101317.6716
101317.6716
101317.6716
101317.6716
101317.6716
101317.6716
101317.6716
101317.6717
101317.6718
101317.6719
101317.672
101317.6722
101317.6725
101317.6727
101317.6731
101317.6735
101317.6739
101317.6745
101317.6751
101317.6758
101317.6766
101317.6776
101317.6784
101317.6797
101317.6808
101317.6822
101317.6833
101317.6842
101317.6843
101317.684
101317.6829
101317.6791
101317.6706
101317.6706
101317.6705
101317.6704
101317.6703
101317.6703
101317.6702
101317.6702
101317.6701
101317.6701
101317.67
101317.67
101317.67
101317.6701
101317.6701
101317.6702
101317.6702
101317.6704
101317.6705
101317.6707
101317.6709
101317.6712
101317.6716
101317.672
101317.6724
101317.673
101317.6736
101317.6743
101317.6751
101317.6761
101317.677
101317.6783
101317.6794
101317.6807
101317.6817
101317.6827
101317.6829
101317.6826
101317.6814
101317.6775
101317.6691
101317.669
101317.669
101317.6689
101317.6688
101317.6687
101317.6687
101317.6686
101317.6686
101317.6686
101317.6685
101317.6685
101317.6685
101317.6685
101317.6686
101317.6686
101317.6687
101317.6688
101317.669
101317.6692
101317.6694
101317.6697
101317.6701
101317.6705
101317.6709
101317.6715
101317.6721
101317.6728
101317.6736
101317.6746
101317.6755
101317.6768
101317.678
101317.6793
101317.6801
101317.681
101317.6814
101317.6811
101317.68
101317.6759
101317.6676
101317.6675
101317.6674
101317.6674
101317.6673
101317.6672
101317.6672
101317.6671
101317.6671
101317.667
101317.667
101317.667
101317.667
101317.667
101317.6671
101317.6671
101317.6672
101317.6673
101317.6675
101317.6677
101317.6679
101317.6682
101317.6686
101317.669
101317.6694
101317.67
101317.6706
101317.6714
101317.6722
101317.6731
101317.6741
101317.6754
101317.6765
101317.6778
101317.6786
101317.6794
101317.68
101317.6795
101317.6782
101317.6741
101317.6661
101317.666
101317.6659
101317.6658
101317.6658
101317.6657
101317.6656
101317.6656
101317.6655
101317.6655
101317.6655
101317.6655
101317.6655
101317.6655
101317.6655
101317.6656
101317.6657
101317.6658
101317.666
101317.6662
101317.6664
101317.6667
101317.667
101317.6675
101317.6679
101317.6685
101317.6691
101317.6699
101317.6707
101317.6717
101317.6726
101317.6739
101317.6751
101317.6764
101317.6772
101317.678
101317.6786
101317.6778
101317.6764
101317.6722
101317.6645
101317.6645
101317.6644
101317.6643
101317.6642
101317.6642
101317.6641
101317.664
101317.664
101317.664
101317.6639
101317.6639
101317.6639
101317.664
101317.664
101317.6641
101317.6642
101317.6643
101317.6644
101317.6646
101317.6649
101317.6652
101317.6655
101317.6659
101317.6664
101317.667
101317.6676
101317.6684
101317.6692
101317.6702
101317.6711
101317.6724
101317.6736
101317.6749
101317.6758
101317.6766
101317.6771
101317.6762
101317.675
101317.6706
101317.663
101317.6629
101317.6628
101317.6628
101317.6627
101317.6626
101317.6626
101317.6625
101317.6625
101317.6624
101317.6624
101317.6624
101317.6624
101317.6624
101317.6625
101317.6625
101317.6626
101317.6628
101317.6629
101317.6631
101317.6634
101317.6637
101317.664
101317.6644
101317.6649
101317.6655
101317.6661
101317.6669
101317.6677
101317.6687
101317.6696
101317.6709
101317.6721
101317.6734
101317.6744
101317.6752
101317.6753
101317.6748
101317.6735
101317.669
101317.6615
101317.6614
101317.6613
101317.6612
101317.6612
101317.6611
101317.661
101317.661
101317.6609
101317.6609
101317.6609
101317.6609
101317.6609
101317.6609
101317.6609
101317.661
101317.6611
101317.6612
101317.6614
101317.6616
101317.6618
101317.6621
101317.6625
101317.6629
101317.6634
101317.664
101317.6646
101317.6654
101317.6662
101317.6671
101317.6682
101317.6694
101317.6707
101317.6719
101317.673
101317.6738
101317.6736
101317.6734
101317.672
101317.6674
101317.6599
101317.6598
101317.6598
101317.6597
101317.6596
101317.6596
101317.6595
101317.6594
101317.6594
101317.6594
101317.6593
101317.6593
101317.6593
101317.6593
101317.6594
101317.6595
101317.6596
101317.6597
101317.6598
101317.6601
101317.6603
101317.6606
101317.661
101317.6614
101317.6619
101317.6625
101317.6631
101317.6639
101317.6647
101317.6656
101317.6667
101317.6678
101317.6692
101317.6703
101317.6716
101317.6723
101317.6722
101317.6719
101317.6704
101317.6654
101317.6584
101317.6583
101317.6582
101317.6581
101317.6581
101317.658
101317.6579
101317.6579
101317.6578
101317.6578
101317.6578
101317.6578
101317.6578
101317.6578
101317.6578
101317.6579
101317.658
101317.6581
101317.6583
101317.6585
101317.6588
101317.6591
101317.6594
101317.6599
101317.6604
101317.661
101317.6616
101317.6624
101317.6633
101317.6641
101317.6653
101317.6662
101317.6678
101317.6687
101317.6701
101317.6709
101317.6708
101317.6705
101317.6686
101317.6635
101317.6568
101317.6568
101317.6567
101317.6566
101317.6565
101317.6565
101317.6564
101317.6563
101317.6563
101317.6563
101317.6562
101317.6562
101317.6562
101317.6563
101317.6563
101317.6564
101317.6565
101317.6566
101317.6568
101317.657
101317.6572
101317.6576
101317.6579
101317.6584
101317.6589
101317.6594
101317.6601
101317.6609
101317.6618
101317.6626
101317.6638
101317.6648
101317.6663
101317.6672
101317.6687
101317.6694
101317.6694
101317.6687
101317.6669
101317.6619
101317.6553
101317.6552
101317.6551
101317.6551
101317.655
101317.6549
101317.6548
101317.6548
101317.6547
101317.6547
101317.6547
101317.6547
101317.6547
101317.6547
101317.6548
101317.6548
101317.6549
101317.6551
101317.6552
101317.6554
101317.6557
101317.656
101317.6564
101317.6568
101317.6573
101317.6579
101317.6586
101317.6594
101317.6603
101317.6611
101317.6623
101317.6633
101317.6648
101317.6658
101317.6673
101317.6678
101317.668
101317.667
101317.6654
101317.6603
101317.6537
101317.6537
101317.6536
101317.6535
101317.6534
101317.6534
101317.6533
101317.6532
101317.6532
101317.6532
101317.6531
101317.6531
101317.6531
101317.6532
101317.6532
101317.6533
101317.6534
101317.6535
101317.6537
101317.6539
101317.6542
101317.6545
101317.6549
101317.6553
101317.6558
101317.6564
101317.6571
101317.6578
101317.6588
101317.6596
101317.6609
101317.6619
101317.6631
101317.6644
101317.6658
101317.6661
101317.6665
101317.6655
101317.6639
101317.6585
101317.6522
101317.6521
101317.652
101317.6519
101317.6519
101317.6518
101317.6517
101317.6517
101317.6516
101317.6516
101317.6516
101317.6516
101317.6516
101317.6516
101317.6516
101317.6517
101317.6518
101317.652
101317.6521
101317.6524
101317.6526
101317.6529
101317.6533
101317.6538
101317.6543
101317.6549
101317.6556
101317.6563
101317.6573
101317.6581
101317.6594
101317.6604
101317.6616
101317.663
101317.6642
101317.6644
101317.6649
101317.6641
101317.6624
101317.6565
101317.6506
101317.6505
101317.6505
101317.6504
101317.6503
101317.6502
101317.6502
101317.6501
101317.6501
101317.65
101317.65
101317.65
101317.65
101317.65
101317.6501
101317.6502
101317.6503
101317.6504
101317.6506
101317.6508
101317.6511
101317.6514
101317.6518
101317.6522
101317.6528
101317.6534
101317.6541
101317.6548
101317.6558
101317.6566
101317.6579
101317.659
101317.6602
101317.6615
101317.6624
101317.663
101317.6631
101317.6627
101317.6605
101317.6547
101317.6491
101317.649
101317.6489
101317.6488
101317.6487
101317.6487
101317.6486
101317.6486
101317.6485
101317.6485
101317.6484
101317.6484
101317.6484
101317.6485
101317.6485
101317.6486
101317.6487
101317.6489
101317.649
101317.6493
101317.6495
101317.6498
101317.6502
101317.6507
101317.6512
101317.6518
101317.6525
101317.6533
101317.6543
101317.6551
101317.6564
101317.6575
101317.6588
101317.6601
101317.6609
101317.6617
101317.6615
101317.6612
101317.6587
101317.6531
101317.6475
101317.6474
101317.6473
101317.6473
101317.6472
101317.6471
101317.647
101317.647
101317.6469
101317.6469
101317.6469
101317.6469
101317.6469
101317.6469
101317.647
101317.647
101317.6471
101317.6473
101317.6475
101317.6477
101317.648
101317.6483
101317.6487
101317.6491
101317.6497
101317.6503
101317.651
101317.6518
101317.6528
101317.6536
101317.6549
101317.656
101317.6573
101317.6587
101317.6595
101317.6603
101317.6601
101317.6595
101317.6572
101317.6514
101317.6459
101317.6458
101317.6458
101317.6457
101317.6456
101317.6455
101317.6455
101317.6454
101317.6454
101317.6453
101317.6453
101317.6453
101317.6453
101317.6453
101317.6454
101317.6455
101317.6456
101317.6457
101317.6459
101317.6461
101317.6464
101317.6467
101317.6471
101317.6476
101317.6481
101317.6488
101317.6495
101317.6503
101317.6513
101317.6521
101317.6535
101317.6546
101317.6559
101317.6572
101317.6581
101317.6588
101317.6586
101317.6578
101317.6557
101317.6494
101317.6443
101317.6443
101317.6442
101317.6441
101317.644
101317.644
101317.6439
101317.6438
101317.6438
101317.6438
101317.6437
101317.6437
101317.6437
101317.6438
101317.6438
101317.6439
101317.644
101317.6442
101317.6443
101317.6446
101317.6449
101317.6452
101317.6456
101317.6461
101317.6466
101317.6472
101317.6479
101317.6487
101317.6497
101317.6506
101317.652
101317.6531
101317.6544
101317.6558
101317.6566
101317.6574
101317.6572
101317.6562
101317.6541
101317.6474
101317.6428
101317.6427
101317.6426
101317.6425
101317.6425
101317.6424
101317.6423
101317.6423
101317.6422
101317.6422
101317.6422
101317.6422
101317.6422
101317.6422
101317.6422
101317.6423
101317.6424
101317.6426
101317.6428
101317.643
101317.6433
101317.6436
101317.644
101317.6445
101317.645
101317.6457
101317.6464
101317.6472
101317.6482
101317.6491
101317.6505
101317.6516
101317.653
101317.6543
101317.6552
101317.6559
101317.6557
101317.6548
101317.6522
101317.6457
101317.6412
101317.6411
101317.641
101317.641
101317.6409
101317.6408
101317.6407
101317.6407
101317.6406
101317.6406
101317.6406
101317.6406
101317.6406
101317.6406
101317.6407
101317.6408
101317.6409
101317.641
101317.6412
101317.6414
101317.6417
101317.6421
101317.6425
101317.6429
101317.6435
101317.6441
101317.6449
101317.6457
101317.6467
101317.6476
101317.649
101317.6501
101317.6515
101317.6528
101317.6537
101317.6543
101317.6541
101317.6533
101317.6504
101317.644
101317.6396
101317.6395
101317.6394
101317.6394
101317.6393
101317.6392
101317.6392
101317.6391
101317.639
101317.639
101317.639
101317.639
101317.639
101317.639
101317.6391
101317.6392
101317.6393
101317.6394
101317.6396
101317.6399
101317.6402
101317.6405
101317.6409
101317.6414
101317.6419
101317.6426
101317.6433
101317.6442
101317.6452
101317.6461
101317.6475
101317.6486
101317.65
101317.6513
101317.6522
101317.6525
101317.6523
101317.6518
101317.6488
101317.6421
101317.638
101317.638
101317.6379
101317.6378
101317.6377
101317.6376
101317.6376
101317.6375
101317.6375
101317.6374
101317.6374
101317.6374