/*--------------------------------*- C++ -*----------------------------------*\
| =========                 |                                                 |
| \\      /  F ield         | OpenFOAM: The Open Source CFD Toolbox           |
|  \\    /   O peration     | Version:  v2006                                 |
|   \\  /    A nd           | Website:  www.openfoam.com                      |
|    \\/     M anipulation  |                                                 |
\*---------------------------------------------------------------------------*/
FoamFile
{
    version     2.0;
    format      ascii;
    class       volScalarField;
    location    "0.15";
    object      rho;
}
// * * * * * * * * * * * * * * * * * * * * * * * * * * * * * * * * * * * * * //

dimensions      [1 -3 0 0 0 0 0];


internalField   nonuniform List<scalar> 
168000
(
1.122405777
1.122344225
1.122280442
1.122214196
1.122144514
1.12207074
1.121993662
1.121912346
1.121819931
1.121720252
1.121613511
1.121484769
1.121337625
1.12117688
1.120962389
1.120716095
1.12042537
1.120020049
1.119569128
1.11890305
1.118122424
1.117009154
1.115616157
1.11361761
1.111074984
1.107240345
1.102541481
1.094767324
1.08479147
1.070127432
1.04839563
1.020014934
0.9793883596
0.9231719754
0.8546025995
0.775285406
0.6859832228
0.5931390212
0.5062288237
0.4286864441
1.122405003
1.122342093
1.122276875
1.12220906
1.122138032
1.122063227
1.121984423
1.121900366
1.121807623
1.121706479
1.12159532
1.121465961
1.121317482
1.121148004
1.120935233
1.120683839
1.120379858
1.119979381
1.119501597
1.118842048
1.118028465
1.116910991
1.115471286
1.113461581
1.110826707
1.106997894
1.102057155
1.094310995
1.08404561
1.069088395
1.047235201
1.01814895
0.9769227334
0.9204716295
0.851437784
0.7714065938
0.6819565342
0.5895965044
0.5031289584
0.4260551879
1.122404221
1.12233994
1.122273293
1.122203992
1.122131552
1.122055398
1.121974901
1.121888789
1.121794831
1.12169189
1.121577633
1.121446604
1.121295776
1.121120538
1.120906423
1.120649866
1.120336232
1.119933907
1.119437591
1.118775406
1.117936627
1.11680695
1.115328357
1.113295631
1.110584488
1.106729338
1.101593581
1.093821388
1.083292898
1.068053248
1.046013099
1.016271107
0.9744667975
0.9177186212
0.848205562
0.7675292932
0.677968804
0.5860512236
0.500035268
0.4234365665
1.12240343
1.122337768
1.122269692
1.122198923
1.122125016
1.122047371
1.1219652
1.121877251
1.121781697
1.121676811
1.121559962
1.121426757
1.121273164
1.121093438
1.120876478
1.120614702
1.120293068
1.119885596
1.119374864
1.118705135
1.117845117
1.11669869
1.115185325
1.113122378
1.110343833
1.106441969
1.101141447
1.093305477
1.082531768
1.067015448
1.044738582
1.014379088
0.9720125198
0.9149158569
0.8449143818
0.763652946
0.6740128778
0.5825067959
0.496952867
0.4208298975
1.12240263
1.122335575
1.122266062
1.122193815
1.122118398
1.122039194
1.121955344
1.121865607
1.121768277
1.121661365
1.121542096
1.12140646
1.121249915
1.121066213
1.120845644
1.120578586
1.120249674
1.119835402
1.119312242
1.118632277
1.117752952
1.116587101
1.115040993
1.112943307
1.110102023
1.106140419
1.100694434
1.092768053
1.081760939
1.065970207
1.043418663
1.012470914
0.9695534173
0.9120659885
0.8415714063
0.7597970339
0.6700832822
0.5790015351
0.4939056945
0.4182390249
1.12240182
1.122333359
1.122262394
1.122188649
1.122111689
1.122030881
1.121945333
1.121853798
1.121754595
1.121645598
1.121523944
1.121385732
1.121226132
1.121038634
1.120814043
1.120541624
1.120205719
1.119783787
1.119249107
1.118557365
1.117659591
1.116472649
1.114894653
1.112759243
1.109857416
1.105827612
1.100248238
1.092212398
1.080979353
1.064914027
1.042058643
1.010544884
0.9670842934
0.9091714559
0.8381824618
0.7559653836
0.6661754882
0.5755061348
0.490866043
0.4156767872
1.122400998
1.122331115
1.122258679
1.122183414
1.122104881
1.122022435
1.121935161
1.1218418
1.121740655
1.121629522
1.121505467
1.121364582
1.121201852
1.121010593
1.120781729
1.120503863
1.120161037
1.119730963
1.119185125
1.118480667
1.117564726
1.11635557
1.114745873
1.112570631
1.109609022
1.105505372
1.099799913
1.091640736
1.080186118
1.063844348
1.040662516
1.008599517
0.9646010284
0.9062345758
0.8347520943
0.7521319045
0.6622861852
0.5720162736
0.4878345516
0.4131252608
1.122400166
1.122328839
1.122254911
1.122178102
1.122097968
1.122013851
1.121924821
1.121829597
1.121726459
1.121613141
1.121486645
1.12134301
1.121177083
1.120982032
1.120748726
1.120465317
1.120115542
1.119677022
1.119120108
1.118402306
1.117468172
1.116235968
1.114594377
1.112377701
1.109356236
1.105174813
1.099347417
1.091054555
1.079380473
1.062759295
1.039233279
1.006633509
0.9621004199
0.9032833445
0.8312840593
0.7482962218
0.6584176795
0.5685329153
0.484811813
0.4105844626
1.12239932
1.122326528
1.122251085
1.122172707
1.122090943
1.122005124
1.121914304
1.12181718
1.121712001
1.12159645
1.121467464
1.121321015
1.121151824
1.12095292
1.120715042
1.12042599
1.120069188
1.119621997
1.119053944
1.118322332
1.117369812
1.116113877
1.114439981
1.112180552
1.109098682
1.104836598
1.09888932
1.090454829
1.078561763
1.061657482
1.03777317
1.004645723
0.9595797048
0.9002989923
0.8277817952
0.7444580562
0.6546043132
0.5650567932
0.4817984014
0.4080544579
1.122398461
1.122324181
1.122247197
1.122167223
1.122083801
1.121996249
1.121903604
1.121804541
1.121697277
1.121579444
1.121447917
1.12129859
1.121126068
1.120923239
1.120680675
1.120385875
1.120021941
1.11956589
1.11898656
1.118240753
1.117269564
1.11598929
1.114282554
1.111979216
1.108836114
1.104491098
1.098424603
1.089842167
1.077729417
1.060537877
1.036283857
1.002635175
0.9570366007
0.8972779857
0.8242791509
0.7406165519
0.6508022359
0.5615888622
0.4787948549
0.4055353467
1.122397587
1.122321794
1.122243244
1.122161647
1.122076536
1.121987219
1.121892715
1.121791675
1.12168228
1.121562117
1.121427996
1.121275727
1.121099806
1.120892974
1.12064562
1.120344963
1.119973779
1.11950869
1.118917904
1.118157559
1.117167362
1.115862182
1.114121992
1.11177368
1.108568363
1.104138497
1.097952519
1.089216929
1.076882932
1.059399699
1.034766589
1.000615174
0.954469246
0.8942216311
0.8207559517
0.7367712854
0.6470103427
0.5581299795
0.4758017267
0.4030280142
1.122396699
1.122319366
1.122239223
1.122155974
1.122069144
1.121978029
1.12188163
1.121778573
1.121667005
1.121544462
1.121407692
1.121252421
1.121073029
1.120862112
1.120609867
1.120303243
1.119924679
1.11945038
1.118847934
1.118072725
1.117063152
1.115732511
1.11395821
1.111563909
1.108295301
1.103778861
1.097472509
1.088579298
1.076021859
1.058242343
1.033222211
0.9985768373
0.9518762031
0.8911310167
0.8172053994
0.7329220392
0.6432278254
0.5546809664
0.4728390447
0.4005511026
1.122395795
1.122316896
1.122235131
1.122150201
1.12206162
1.121968674
1.121870344
1.12176523
1.121651443
1.121526472
1.121386998
1.121228661
1.121045728
1.120830643
1.120573408
1.120260701
1.119874623
1.119390937
1.118776614
1.117986222
1.116956884
1.115600233
1.113791132
1.111349854
1.10801682
1.103412178
1.096984136
1.087929329
1.075145793
1.057065326
1.031651267
0.996513345
0.9492563502
0.8880071369
0.8136292034
0.7290687002
0.6394542022
0.5512423922
0.4698968477
0.3980849727
1.122394876
1.122314381
1.122230966
1.122144323
1.122053961
1.121959148
1.12185885
1.121751639
1.121635589
1.12150814
1.121365907
1.121204441
1.121017893
1.120798556
1.120536229
1.120217323
1.11982359
1.119330337
1.118703908
1.117898017
1.116848511
1.115465297
1.113620687
1.111131454
1.107732821
1.103038389
1.096487044
1.087266994
1.074254364
1.055868245
1.030054102
0.9944240194
0.9466087925
0.8848509043
0.8100288556
0.7252112417
0.6356892856
0.5478446139
0.466965132
0.3956298882
1.122393939
1.122311821
1.122226725
1.122138339
1.122046161
1.121949448
1.121847143
1.121737794
1.121619436
1.121489459
1.12134441
1.121179751
1.120989515
1.12076584
1.120498319
1.120173094
1.119771561
1.119268558
1.118629785
1.117808073
1.116737985
1.115327652
1.113446808
1.110908644
1.107443208
1.102657402
1.095980935
1.0865922
1.073347227
1.054650754
1.028430908
0.9923082464
0.9439328221
0.8816631622
0.8064056887
0.721349764
0.6319326308
0.5444656613
0.4640443136
0.3931861012
1.122392986
1.122309215
1.122222406
1.122132244
1.122038217
1.121939567
1.121835218
1.121723689
1.121602977
1.12147042
1.121322498
1.121154581
1.120960583
1.120732482
1.120459666
1.120127998
1.119718515
1.119205572
1.118554211
1.117716354
1.116625262
1.115187244
1.113269428
1.110681353
1.107147886
1.102269104
1.095465546
1.085904814
1.072424059
1.05341254
1.026781757
0.9901654703
0.9412278851
0.8784446983
0.8027609236
0.7174844746
0.6281838521
0.5410969516
0.4611348405
0.3907538905
1.122392016
1.122306559
1.122218007
1.122126036
1.122030124
1.121929501
1.121823069
1.121709317
1.121586206
1.121451018
1.121300165
1.121128924
1.120931086
1.120698472
1.120420254
1.120082019
1.119664432
1.119141355
1.118477156
1.117622823
1.116510293
1.115044019
1.113088481
1.110449508
1.106846757
1.10187337
1.094940635
1.085204671
1.071484552
1.052153315
1.025106634
0.987995188
0.9384935547
0.8751962557
0.7990957137
0.71361571
0.6244427315
0.5377387701
0.4582371507
0.3883364362
1.122391027
1.122303855
1.122213526
1.122119711
1.12202188
1.121919246
1.12181069
1.121694673
1.121569114
1.121431243
1.1212774
1.121102768
1.120901015
1.120663796
1.120380071
1.120035139
1.11960929
1.11907588
1.118398586
1.117527441
1.116393033
1.114897921
1.1129039
1.110213031
1.106539718
1.101470065
1.09440598
1.084491584
1.07052841
1.0508728
1.023405453
0.9857969441
0.9357295092
0.8719185391
0.7954111921
0.7097439868
0.6207091999
0.5343914014
0.455351669
0.3859466625
1.12239002
1.122301099
1.122208961
1.122113268
1.122013481
1.121908797
1.121798077
1.12167975
1.121551695
1.121411088
1.121254196
1.121076105
1.120870358
1.120628443
1.120339101
1.119987341
1.119553069
1.119009121
1.11831847
1.117430169
1.116273435
1.114748895
1.112715616
1.109971842
1.106226666
1.101059048
1.093861365
1.083765351
1.069555343
1.049570725
1.021678078
0.9835703265
0.9329355131
0.8686122112
0.7917085178
0.7058735547
0.6169933704
0.5310551519
0.4524961863
0.3835684225
1.122388994
1.122298292
1.122204309
1.122106702
1.122004922
1.12189815
1.121785223
1.121664542
1.121533943
1.121390545
1.121230543
1.121048925
1.120839103
1.120592399
1.120297329
1.119938607
1.119495745
1.11894105
1.118236773
1.117330967
1.116151451
1.114596882
1.112523562
1.109725857
1.105907491
1.100640171
1.093306581
1.083025759
1.068565071
1.048246822
1.019924332
0.9813149625
0.9301114017
0.865277881
0.7879888756
0.7020439254
0.6133186245
0.5277301423
0.449662061
0.3812019488
1.122387949
1.122295431
1.122199569
1.122100012
1.1219962
1.121887299
1.121772124
1.121649043
1.121515849
1.121369607
1.121206432
1.121021216
1.12080724
1.120555651
1.120254739
1.119888918
1.119437296
1.118871641
1.118153463
1.117229797
1.116027032
1.114441826
1.112327667
1.10947499
1.105582082
1.100213284
1.092741423
1.082272587
1.067557312
1.04690082
1.018144014
0.9790305161
0.9272570716
0.8619161548
0.7842528137
0.6982117595
0.6096506571
0.5244166793
0.4468399629
0.3788475319
1.122386885
1.122292516
1.122194738
1.122093194
1.121987312
1.121876241
1.121758774
1.121633246
1.121497408
1.121348264
1.121181855
1.120992969
1.120774756
1.120518186
1.120211316
1.119838255
1.119377699
1.118800864
1.118068506
1.117126616
1.115900129
1.114283668
1.11212786
1.109219153
1.105250324
1.099778234
1.092165687
1.081505607
1.066531791
1.045532451
1.0163369
0.9767166851
0.9243724723
0.858527597
0.7805008777
0.6943772231
0.6059899597
0.5211295559
0.444030061
0.3765053258
1.1223858
1.122289546
1.122189815
1.122086245
1.121978253
1.121864971
1.121745167
1.121617145
1.12147861
1.121326508
1.121156801
1.120964173
1.120741638
1.120479988
1.120167043
1.119786598
1.119316931
1.118728693
1.117981868
1.117021383
1.115770693
1.114122346
1.111924066
1.108958254
1.104912098
1.099334864
1.091579168
1.080724584
1.065488231
1.044141439
1.014502756
0.9743732004
0.9214576
0.8551127513
0.7767336165
0.690540512
0.6023368614
0.5178755915
0.4412325932
0.3741847273
1.122384694
1.122286518
1.122184797
1.122079163
1.121969019
1.121853484
1.121731299
1.121600733
1.12145945
1.121304331
1.121131261
1.120934817
1.120707875
1.120441043
1.120121903
1.119733927
1.119254967
1.118655097
1.117893513
1.116914057
1.115638673
1.1139578
1.111716211
1.1086922
1.104567285
1.098883015
1.090981661
1.079929283
1.064426355
1.042727511
1.01264134
0.9719998253
0.9185124957
0.851672158
0.7729515935
0.6867018857
0.5986914304
0.5146330611
0.4384478796
0.3718848873
1.122383568
1.122283432
1.122179683
1.122071944
1.121959608
1.121841775
1.121717162
1.121584005
1.121439918
1.121281725
1.121105225
1.12090489
1.120673453
1.120401337
1.120075877
1.119680221
1.119191783
1.118580047
1.117803407
1.116804595
1.115504018
1.113789967
1.111504219
1.108420895
1.104215758
1.098422524
1.09037296
1.079119461
1.063345887
1.041290388
1.010752407
0.9695963581
0.9155372478
0.8482063757
0.7691554056
0.682861634
0.5950538133
0.511402338
0.4356768736
0.3695971453
1.12238242
1.122280287
1.12217447
1.122064586
1.121950016
1.12182984
1.121702753
1.121566953
1.121420009
1.12125868
1.121078682
1.12087438
1.120638359
1.120360854
1.12002895
1.11962546
1.119127354
1.118503514
1.117711513
1.116692954
1.115366675
1.113618785
1.111288011
1.108144239
1.103857392
1.097953228
1.089752857
1.078294874
1.062246549
1.039829795
1.008835719
0.9671626365
0.9125319976
0.8447160125
0.7653457123
0.6790200767
0.5914242201
0.5081838035
0.4329427193
0.3673215806
1.12238125
1.12227708
1.122169156
1.122057085
1.121940237
1.121817674
1.121688064
1.121549571
1.121399713
1.121235187
1.121051624
1.120843275
1.120602579
1.120319579
1.119981102
1.119569622
1.119061655
1.118425467
1.117617795
1.116579089
1.115226592
1.113444187
1.111067506
1.107862132
1.103492057
1.097474958
1.089121144
1.077455276
1.061128062
1.038345457
1.006891044
0.9646985493
0.9094969478
0.8412017657
0.7615233379
0.6751775552
0.5878029687
0.5049775088
0.4302212164
0.3650582676
1.122380057
1.122273812
1.122163739
1.122049439
1.121930269
1.121805273
1.121673091
1.121531851
1.121379024
1.121211238
1.121024039
1.120811563
1.120566101
1.120277496
1.119932315
1.119512686
1.118994659
1.118345875
1.117522215
1.116462956
1.115083713
1.113266107
1.110842622
1.107574471
1.103119619
1.096987545
1.088477607
1.076600415
1.05999015
1.036837108
1.004918168
0.9622040543
0.9064324031
0.8376644716
0.7577332601
0.6713344047
0.584190494
0.5017835263
0.4275125504
0.3628088775
1.122378842
1.122270481
1.122158218
1.122041645
1.121920108
1.12179263
1.121657827
1.121513787
1.121357932
1.121186822
1.120995916
1.120779232
1.120528909
1.120234588
1.119882569
1.119454628
1.11892634
1.118264706
1.117424736
1.116344509
1.114937983
1.113084479
1.110613276
1.107281149
1.102739945
1.096490817
1.087822032
1.07573004
1.058832532
1.035304496
1.0029169
0.9596792116
0.903363758
0.8341043072
0.7539312314
0.6674915141
0.5806040594
0.4986019455
0.4248168592
0.3605874408
1.122377603
1.122267085
1.122152588
1.122033699
1.121909749
1.121779742
1.121642266
1.121495372
1.121336429
1.121161931
1.120967245
1.12074627
1.120490989
1.120190838
1.119831846
1.119395426
1.118856671
1.118181929
1.11732532
1.116223702
1.114789347
1.112899232
1.110379382
1.106982058
1.102352895
1.095984598
1.087154203
1.074843895
1.057654927
1.033747402
1.000898418
0.9571238561
0.9002734954
0.8305217466
0.7501175911
0.663649605
0.5770517678
0.4954531067
0.4221341659
0.358378231
1.122376341
1.122263622
1.122146849
1.122025598
1.121899188
1.121766603
1.121626402
1.121476598
1.121314508
1.121136555
1.120938014
1.120712664
1.120452327
1.12014623
1.119780126
1.119335057
1.118785624
1.11809751
1.117223926
1.116100488
1.114637747
1.112710296
1.110140852
1.106677088
1.10195833
1.095468711
1.0864739
1.073941722
1.056457054
1.032165562
0.998860167
0.9545378342
0.8971545699
0.8269184922
0.7462929819
0.6598091675
0.5735081406
0.492329445
0.4194646445
0.3561812772
1.122375054
1.122260093
1.122140999
1.12201734
1.121888421
1.121753208
1.121610229
1.121457459
1.121292159
1.121110684
1.120908212
1.1206784
1.120412907
1.120100747
1.119727387
1.119273497
1.118713172
1.118011416
1.117120516
1.115974818
1.114483123
1.1125176
1.109897596
1.106366126
1.101556106
1.094942974
1.085780901
1.07302326
1.055238626
1.030558672
0.996793032
0.95192106
0.8940074922
0.8233336024
0.7424580744
0.6560044652
0.5699730951
0.4892181961
0.4168247249
0.3539965289
1.122373742
1.122256494
1.122135034
1.12200892
1.121877444
1.121739551
1.121593741
1.121437946
1.121269374
1.121084307
1.120877827
1.120643465
1.120372715
1.120054369
1.11967361
1.119210721
1.118639286
1.117923613
1.117015047
1.115846643
1.114325417
1.112321069
1.109649523
1.106049057
1.101146078
1.094407205
1.08507498
1.072088246
1.053999355
1.028926429
0.9946967959
0.9492734782
0.8908323102
0.8197274528
0.7386134467
0.6522130753
0.5664468775
0.4861195735
0.4142038748
0.3518240428
1.122372405
1.122252826
1.122128952
1.122000336
1.121866253
1.121725628
1.12157693
1.121418051
1.121246144
1.121057415
1.120846848
1.120607847
1.120331733
1.12000708
1.119618773
1.119146705
1.118563936
1.117834066
1.11690748
1.115715913
1.114164567
1.112120628
1.109396539
1.105725762
1.100728096
1.093861216
1.08435591
1.07113641
1.052738946
1.027268534
0.9925712396
0.9465950319
0.8876291241
0.8161005199
0.7347595229
0.6484232801
0.5629298699
0.4830337162
0.4115960984
0.3496778452
1.122371041
1.122249085
1.122122752
1.121991584
1.121854843
1.121711432
1.121559791
1.121397768
1.12122246
1.121029996
1.120815263
1.120571529
1.120289947
1.119958861
1.119562855
1.119081424
1.118487093
1.11774274
1.116797771
1.115582576
1.114000511
1.111916201
1.109138549
1.105396123
1.100302008
1.093304819
1.083623459
1.070167485
1.051457102
1.025584691
0.9904161492
0.9438856713
0.8843980712
0.8124532522
0.7308967664
0.6446355316
0.5594224874
0.47996079
0.4090014673
0.3475462779
1.122369652
1.122245271
1.12211643
1.12198266
1.121843209
1.121696959
1.121542316
1.121377088
1.121198312
1.121002041
1.120783058
1.1205345
1.12024734
1.119909692
1.119505834
1.119014853
1.118408726
1.1176496
1.116685877
1.115446582
1.113833185
1.11170771
1.108875455
1.105060015
1.099867662
1.092737821
1.082877392
1.069181195
1.050153526
1.023874607
0.9882313155
0.9411453568
0.8811393182
0.8087861104
0.727025676
0.6408503311
0.5559252033
0.4769009865
0.40642005
0.3454268216
1.122368235
1.122241383
1.122109984
1.121973561
1.121831348
1.121682202
1.121524499
1.121356003
1.121173691
1.120973538
1.120750222
1.120496743
1.120203895
1.119859555
1.119447687
1.118946963
1.118328805
1.117554607
1.116571754
1.115307876
1.113662525
1.111495074
1.108607157
1.104717315
1.0994249
1.092160027
1.082117474
1.068177264
1.048827916
1.02213799
0.9860165351
0.9383740599
0.8778530617
0.8050995759
0.7231467821
0.6370682457
0.5524385915
0.4738637947
0.4038519065
0.3433194686
1.122366791
1.122237419
1.122103411
1.121964284
1.121819254
1.121667155
1.121506333
1.121334505
1.121148588
1.120944476
1.120716742
1.120458245
1.120159596
1.11980843
1.119388392
1.11887773
1.118247298
1.117457726
1.116455358
1.115166405
1.113488464
1.111278211
1.108333554
1.104367895
1.098973562
1.091571238
1.081343461
1.067155413
1.04747997
1.020374554
0.9837716112
0.9355717659
0.8745395285
0.8013941614
0.719260642
0.6332899355
0.5489802033
0.4708605066
0.4013117389
0.3412241919
1.122365318
1.122233376
1.12209671
1.121954824
1.121806922
1.121651814
1.121487811
1.121312585
1.121122992
1.120914844
1.120682604
1.12041899
1.120114424
1.119756296
1.119327925
1.118807126
1.118164173
1.117358917
1.116336643
1.115022113
1.113310934
1.11105704
1.108054543
1.104011625
1.098513485
1.090971252
1.080555112
1.066115359
1.046109382
1.018584014
0.9814963543
0.9327384752
0.8711989761
0.7976704289
0.7153678722
0.6295158917
0.5455546566
0.4678698506
0.3987904746
0.3391531987
1.122363817
1.122229254
1.122089876
1.121945179
1.121794348
1.12163617
1.121468924
1.121290235
1.121096894
1.120884629
1.120647795
1.120378962
1.120068363
1.119703134
1.119266263
1.118735122
1.118079397
1.117258141
1.116215561
1.114874943
1.113129868
1.110831473
1.107770017
1.103648372
1.098044505
1.090359865
1.079752178
1.065056817
1.04471585
1.016766088
0.9791905831
0.929874204
0.867831692
0.7939290168
0.7114691885
0.6257463018
0.5421394003
0.464892069
0.3962822428
0.3370976556
1.122362286
1.122225051
1.122082908
1.121935343
1.121781526
1.12162022
1.121449667
1.121267445
1.121070283
1.120853821
1.120612302
1.120338147
1.120021393
1.119648922
1.11920338
1.118661691
1.117992937
1.11715536
1.116092066
1.114724838
1.112945194
1.110601425
1.107479868
1.103278003
1.097566451
1.089736869
1.07893441
1.0639795
1.043299066
1.014920499
0.9768541255
0.9269789851
0.8644379863
0.7901706732
0.7075654726
0.6219814072
0.5387346224
0.4619273881
0.3937871622
0.3350540316
1.122360726
1.122220765
1.122075803
1.121925314
1.121768452
1.121603955
1.121430031
1.121244208
1.121043148
1.120822407
1.12057611
1.120296527
1.119973497
1.119593638
1.119139253
1.118586803
1.117904758
1.117050532
1.115966109
1.11457174
1.11275684
1.110366807
1.107183986
1.102900378
1.097079154
1.089102052
1.078101554
1.062883116
1.041858727
1.013046974
0.9744868196
0.9240528667
0.8610181716
0.7863962969
0.7036873407
0.6182215213
0.5353405031
0.4589760433
0.3913053428
0.333022341
1.122359135
1.122216395
1.122068558
1.121915087
1.12175512
1.12158737
1.121410008
1.121220513
1.12101548
1.120790375
1.120539206
1.120254087
1.119924656
1.119537262
1.119073856
1.118510429
1.117814826
1.116943616
1.115837639
1.114415588
1.112564734
1.110127529
1.106882259
1.102515358
1.096582438
1.088455201
1.077253353
1.061767375
1.040394527
1.011145247
0.9720885152
0.9210959154
0.857572584
0.7826063937
0.6998219447
0.6145068444
0.5319571882
0.4560382979
0.3888368972
0.3310025909
1.122357513
1.122211939
1.122061169
1.121904658
1.121741526
1.121570458
1.121389591
1.121196351
1.120987267
1.120757712
1.120501574
1.120210811
1.119874851
1.119479771
1.119007162
1.118432539
1.117723105
1.116834569
1.115706608
1.11425632
1.1123688
1.109883498
1.106574573
1.1021228
1.096076126
1.087796097
1.076389548
1.060631981
1.038906164
1.009215057
0.9696590763
0.9181082189
0.8541015728
0.7788012994
0.6959526401
0.6108016781
0.5285852092
0.4531260059
0.3864000483
0.329007414
1.122355859
1.122207394
1.122053635
1.121894024
1.121727663
1.121553213
1.121368771
1.121171713
1.120958498
1.120724405
1.1204632
1.12016668
1.119824061
1.119421142
1.118939147
1.118353102
1.117629558
1.11672335
1.115572962
1.114093875
1.112168961
1.109634619
1.106260809
1.101722558
1.095560037
1.087124519
1.075509876
1.059476642
1.037393343
1.007256157
0.9671983844
0.9150898919
0.8506054955
0.774981395
0.6920797308
0.6071019747
0.525225024
0.4502428341
0.3839771438
0.3270260109
1.122354172
1.12220276
1.122045951
1.121883179
1.121713526
1.121535627
1.12134754
1.12114659
1.120929162
1.120690441
1.120424069
1.120121677
1.119772267
1.119361353
1.118869783
1.118272087
1.11753415
1.116609913
1.115436649
1.113928188
1.111965141
1.109380798
1.105940849
1.101314485
1.095033988
1.086440244
1.074614073
1.058301062
1.035855774
1.005268317
0.9647063448
0.9120410871
0.8470847323
0.7711471082
0.6882035422
0.6034083853
0.52188305
0.4473727144
0.3815673112
0.3250562659
1.122352453
1.122198034
1.122038116
1.121872119
1.12169911
1.121517694
1.121325891
1.12112097
1.120899246
1.120655807
1.120384166
1.120075786
1.119719448
1.119300378
1.118799042
1.11818946
1.117436842
1.116494214
1.115297616
1.113759195
1.111757259
1.109121935
1.105614572
1.100898428
1.094497792
1.085743043
1.07370187
1.057104945
1.034293187
1.003251341
0.9621828947
0.9089620158
0.8435397034
0.7672989327
0.6843244041
0.599721535
0.5185834087
0.4445157079
0.379170667
0.3230982438
1.122350699
1.122193214
1.122030125
1.121860841
1.121684408
1.121499406
1.121303813
1.121094845
1.12086874
1.120620489
1.120343474
1.120028987
1.119665584
1.119238196
1.118726897
1.118105191
1.117337595
1.116376207
1.115155807
1.113586829
1.111545234
1.108857931
1.105281853
1.100474235
1.093951258
1.085032687
1.072772996
1.055887997
1.032705342
1.001213244
0.9596280133
0.9058530203
0.8399708881
0.7634374946
0.6804426648
0.5960416222
0.5152952458
0.4416720882
0.3767873251
0.3211531166
1.122348911
1.122188299
1.122021976
1.121849339
1.121669415
1.121480756
1.121281299
1.121068203
1.120837632
1.120584473
1.120301977
1.119981262
1.119610653
1.11917478
1.118653318
1.118019245
1.11723637
1.116255845
1.115011167
1.113411022
1.111328984
1.108588684
1.104942566
1.100041748
1.093394195
1.08430894
1.071827178
1.054649917
1.031091981
0.9991579952
0.9570418181
0.9027459635
0.8363788357
0.7595860039
0.6765586171
0.5923689288
0.5120188689
0.438842113
0.3744248514
0.3192328148
1.122347088
1.122183287
1.122013665
1.121837608
1.121654125
1.121461737
1.12125834
1.121041035
1.120805908
1.120547745
1.12025966
1.119932593
1.119554634
1.119110106
1.118578278
1.117931588
1.117133128
1.116133081
1.114863638
1.113231705
1.111108423
1.108314089
1.104596582
1.099600808
1.092826405
1.083571566
1.070864139
1.053390407
1.029452781
0.997073134
0.9544242144
0.8996106218
0.8327641979
0.7557445609
0.6726727772
0.5887037925
0.5087545844
0.4360260215
0.3720862665
0.3173237769
1.122345229
1.122178175
1.122005189
1.121825645
1.121638532
1.121442341
1.121234925
1.121013328
1.120773556
1.120510291
1.120216506
1.119882959
1.119497505
1.119044148
1.118501746
1.117842186
1.117027827
1.116007866
1.114713161
1.113048807
1.110883465
1.10803404
1.104243769
1.099151252
1.092247688
1.082820325
1.069883601
1.052109163
1.027787429
0.9949584514
0.9517751292
0.896446054
0.829127433
0.7518906829
0.6687859619
0.585046609
0.5055027263
0.4332462356
0.3697605243
0.3154261416
1.122343333
1.122172961
1.121996544
1.121813445
1.12162263
1.12142256
1.121211047
1.120985073
1.120740564
1.120472094
1.120172496
1.119832342
1.119439242
1.11897688
1.118423691
1.117751003
1.116920425
1.11588015
1.114559678
1.112862256
1.110654022
1.107748429
1.103883995
1.098692915
1.091657843
1.082054971
1.068885279
1.050805877
1.026095624
0.9928137409
0.9490945056
0.8932527065
0.825486335
0.7480248376
0.6648991055
0.5814052525
0.5022632887
0.4304821914
0.3674476925
0.3135400587
1.122341399
1.122167643
1.121987728
1.121801001
1.121606411
1.121402387
1.121186695
1.120956258
1.120706919
1.120433142
1.120127615
1.119780722
1.119379822
1.118908275
1.118344084
1.117658003
1.11681088
1.115749883
1.114403127
1.112671978
1.110420004
1.107457145
1.103517121
1.098225628
1.091056662
1.081275258
1.067868888
1.04948024
1.024377061
0.990638792
0.9463822988
0.8900309084
0.8218476615
0.7441476506
0.6610131987
0.5778073999
0.4990363102
0.4277315129
0.365147891
0.3116711474
1.122339427
1.12216222
1.121978736
1.12178831
1.12158987
1.121381813
1.121161861
1.120926872
1.120672606
1.120393417
1.120081844
1.119728077
1.119319223
1.118838307
1.118262891
1.117563148
1.116699147
1.115617012
1.114243447
1.112477898
1.11018132
1.107160076
1.103143009
1.09774922
1.090443936
1.080480934
1.066834138
1.048131939
1.022631437
0.9884333982
0.943638479
0.8867807208
0.8181876709
0.7402601225
0.6571487222
0.5742175986
0.495838231
0.4249942241
0.3628623201
0.3098212361
1.122337416
1.122156689
1.121969564
1.121775367
1.121573
1.12136083
1.121136532
1.120896902
1.120637613
1.120352904
1.120035165
1.119674388
1.11925742
1.118766947
1.118180082
1.117466402
1.116585184
1.115481485
1.114080573
1.11227994
1.109937875
1.106857106
1.102761518
1.097263517
1.089819453
1.079671746
1.065780738
1.046760661
1.020858457
0.9861973577
0.9408630146
0.8835022506
0.8145067819
0.7363629961
0.6533116587
0.5706361717
0.4926700801
0.4222704554
0.3606059502
0.307982366
1.122335366
1.122151047
1.12196021
1.121762165
1.121555794
1.12133943
1.121110701
1.120866337
1.120601925
1.120311587
1.119987559
1.119619632
1.119194388
1.118694167
1.118095622
1.117367725
1.116468943
1.115343249
1.113914441
1.112078024
1.109689575
1.106548118
1.102372502
1.09676834
1.089182995
1.078847434
1.064708392
1.045366092
1.019057827
0.9839304729
0.9380558791
0.8801956391
0.8108054217
0.7324566281
0.6494756161
0.5670634158
0.489514356
0.4195603967
0.358362191
0.3061547314
1.122333274
1.122145293
1.121950669
1.1217487
1.121538246
1.121317604
1.121084356
1.120835165
1.120565528
1.120269449
1.119939008
1.119563788
1.119130103
1.118619937
1.118009479
1.117267079
1.116350379
1.115202246
1.113744985
1.111872071
1.109436321
1.106232992
1.101975815
1.096263509
1.088534343
1.078007739
1.063616802
1.043947914
1.017229254
0.981632551
0.9352170545
0.8768610572
0.8070840193
0.728541434
0.6456410292
0.5634996523
0.4863714332
0.4168799268
0.3561310434
0.3043381714
1.122331141
1.122139423
1.121940938
1.121734967
1.121520347
1.121295343
1.121057486
1.120803373
1.120528408
1.120226474
1.119889492
1.119506834
1.119064539
1.118544229
1.117921617
1.117164423
1.116229445
1.115058423
1.113572138
1.111662
1.109178014
1.105911607
1.101571307
1.09574884
1.087873275
1.077152394
1.062505667
1.042505813
1.015372453
0.9793034051
0.9323465328
0.8734987032
0.8033430221
0.724617878
0.641808355
0.5599452496
0.4832414716
0.4142196963
0.3539126026
0.3025442994
1.122328966
1.122133437
1.121931012
1.121720958
1.121502091
1.121272639
1.121030082
1.120770948
1.12049055
1.120182645
1.119838991
1.119448746
1.118997669
1.118467013
1.117832003
1.117059715
1.116106092
1.11491172
1.11339583
1.111447727
1.108914553
1.105583837
1.101158824
1.095224146
1.087199562
1.076281133
1.061374684
1.04103947
1.013487137
0.976942855
0.9294443191
0.8701088046
0.7995829073
0.7206864745
0.6379781051
0.5564006243
0.4801245558
0.4115728253
0.3517068314
0.3007625999
1.122326747
1.12212733
1.121920887
1.12170667
1.121483471
1.121249481
1.121002131
1.120737878
1.120451938
1.120137944
1.119787485
1.119389503
1.118929468
1.118388257
1.117740599
1.116952915
1.11598027
1.11476208
1.113215991
1.111229167
1.108645834
1.105249557
1.100738211
1.094689236
1.086512975
1.075393684
1.060223547
1.039548571
1.011573028
0.9745507282
0.9265104336
0.8666916189
0.7958041982
0.7167477934
0.6341508554
0.5528662716
0.4770207857
0.408939386
0.349528748
0.2989917754
1.122324484
1.122121101
1.121910559
1.121692096
1.121464478