/*--------------------------------*- C++ -*----------------------------------*\
| =========                 |                                                 |
| \\      /  F ield         | OpenFOAM: The Open Source CFD Toolbox           |
|  \\    /   O peration     | Version:  v2006                                 |
|   \\  /    A nd           | Website:  www.openfoam.com                      |
|    \\/     M anipulation  |                                                 |
\*---------------------------------------------------------------------------*/
FoamFile
{
    version     2.0;
    format      ascii;
    class       volScalarField;
    location    "0.15";
    object      T;
}
// * * * * * * * * * * * * * * * * * * * * * * * * * * * * * * * * * * * * * //

dimensions      [0 0 0 1 0 0 0];


internalField   nonuniform List<scalar> 
168000
(
300.0080806
300.0245313
300.0415817
300.0592972
300.0779253
300.0976317
300.1182299
300.1399712
300.1646468
300.1912647
300.2197802
300.254147
300.2934216
300.3363468
300.3935971
300.4593595
300.5370214
300.6453168
300.7659044
300.944163
301.1533549
301.452168
301.8268986
302.3661424
303.0549828
304.0997871
305.3899427
307.5486465
310.3638498
314.5968907
321.0869079
329.9769601
343.5948125
364.4040748
393.4695839
433.4610153
489.4680277
565.4122331
661.4511908
779.3790233
300.008259
300.0250734
300.0425069
300.0606377
300.0796242
300.0996134
300.1206731
300.1431387
300.1679097
300.1949221
300.224611
300.259147
300.2987832
300.3440339
300.4008334
300.4679616
300.5491642
300.6561798
300.7839567
300.9604923
301.1785434
301.4785378
301.8659162
302.4083175
303.122406
304.1660849
305.5235368
307.6763044
310.5763982
314.9012067
321.4409978
330.5787379
344.4575314
365.4672774
394.9234431
435.6261933
492.3362535
568.7791842
665.4815961
784.1132119
300.008439
300.0256202
300.0434354
300.061961
300.0813247
300.101678
300.1231905
300.1462018
300.1713009
300.1987954
300.2293092
300.264294
300.3045604
300.3513466
300.4085108
300.4770217
300.5608054
300.6683269
300.8010694
300.9783337
301.2031677
301.5064918
301.9044208
302.4531873
303.1882134
304.2395546
305.6515163
307.8133894
310.7911951
315.2049701
321.8147511
331.1865604
345.3211779
366.55762
396.4193987
437.8122553
495.2100545
572.1891525
669.5532497
788.8821295
300.0086204
300.0261708
300.0443677
300.0632853
300.0830413
300.1037941
300.1257545
300.149256
300.1747833
300.2027986
300.2340045
300.2695716
300.3105786
300.3585638
300.4164917
300.4864003
300.5723257
300.6812334
300.8178429
300.9971493
301.2277089
301.5355855
301.9429635
302.5000462
303.2536247
304.318211
305.776442
307.9579721
311.0086975
315.5101014
322.2054612
331.8012376
346.18858
367.6743719
397.9543319
440.0198255
498.0942832
575.6394226
673.6596431
793.6872582
300.0088033
300.0267258
300.045307
300.0646198
300.0847794
300.1059497
300.1283592
300.1523387
300.1783414
300.2068989
300.2387519
300.2749696
300.3167666
300.3658147
300.4247096
300.4960334
300.5839082
300.6946435
300.8345903
301.0166602
301.2524295
301.5655799
301.9818664
302.5484943
303.3193785
304.4007927
305.9000536
308.1087278
311.2292818
315.8180182
322.6110906
332.4234788
347.0620693
368.8168909
399.525638
442.2378955
500.9927742
579.0923699
677.7671993
798.5204055
300.0089882
300.0272865
300.0462559
300.0659692
300.0865415
300.108141
300.1310047
300.1554651
300.1819694
300.2110847
300.2435752
300.2804824
300.3230969
300.3731601
300.4331328
300.5058925
300.5956418
300.7084347
300.8514769
301.0367235
301.2774751
301.5963498
302.0213209
302.5983095
303.3859217
304.4865045
306.0235387
308.2647529
311.4532642
316.129769
323.0301132
333.0539141
347.9435646
369.9846071
401.1312679
444.4641951
503.9088359
582.5770502
681.9148389
803.3532663
300.0091753
300.0278541
300.0472169
300.0673366
300.0883296
300.1103675
300.1336929
300.1586419
300.1856655
300.2153523
300.2484852
300.2861076
300.3295597
300.3806295
300.4417464
300.5159657
300.6075705
300.7225502
300.8685922
301.0572682
301.3029286
301.6278328
302.061444
302.6493724
303.4535252
304.5748517
306.1477138
308.4254376
311.6809151
316.4461319
323.461394
333.6931112
348.8346368
371.1769887
402.7697205
446.7141046
506.8450047
586.0983054
686.1022232
808.2244269
300.009365
300.0284296
300.0481914
300.0687241
300.0901455
300.1126303
300.1364258
300.1618729
300.18943
300.2197014
300.2534873
300.2918452
300.3361528
300.3882377
300.4505442
300.5262487
300.6197171
300.7369655
300.8859866
301.0782611
301.3288398
301.660001
302.1023105
302.7016226
303.5223552
304.6655328
306.2731464
308.5903774
311.9124684
316.7676898
323.9040976
334.3415882
349.7365565
372.3829221
404.4398274
448.9882235
509.7995918
589.6557101
690.3290458
813.13418
300.0095576
300.0290139
300.0491808
300.0701332
300.0919907
300.1149307
300.1392052
300.1651607
300.1932638
300.2241328
300.2585847
300.2976959
300.3428769
300.395993
300.4595242
300.5367412
300.6320945
300.7516721
300.9036899
301.0996893
301.3552403
301.6928459
302.1439705
302.7550338
303.5925158
304.7583702
306.4002365
308.7593116
312.1481298
317.094884
324.3576169
334.9998164
350.6504612
373.6103759
406.1405336
451.2871115
512.7457616
593.2490425
694.5949956
818.0827245
300.0097532
300.0296074
300.0501862
300.0715655
300.0938666
300.1172704
300.142033
300.1685072
300.1971684
300.228648
300.2637798
300.3036612
300.3497337
300.4039007
300.4686869
300.5474446
300.6447112
300.7666693
300.9217218
301.1215505
301.3821527
301.7263695
302.1864606
302.8095991
303.6640756
304.8532658
306.5292713
308.9320804
312.3880816
317.4280547
324.8215175
335.6682237
351.5773363
374.8611751
407.8557225
453.6116947
515.7173121
596.8778207
698.8997798
823.070186
300.0099521
300.0302109
300.0512085
300.0730219
300.0957748
300.1196508
300.1449109
300.1719143
300.2011455
300.2332486
300.2690746
300.309743
300.3567256
300.4119644
300.4780338
300.5583616
300.6575737
300.7819602
300.9400964
301.1438481
301.4095944
301.7605795
302.2298091
302.8653227
303.7370826
304.9501727
306.6604628
309.1085951
312.6324883
317.7674711
325.2954923
336.3424516
352.518034
376.1351615
409.5956355
455.9626638
518.7154104
600.5416278
703.2430523
828.0948654
300.0101544
300.0308248
300.0522484
300.0745038
300.0977165
300.1220735
300.1478407
300.1753838
300.2051966
300.2379365
300.2744713
300.3159434
300.3638549
300.4201875
300.4875673
300.5694951
300.6706877
300.7975498
300.9588251
301.1665885
301.4375806
301.7954871
302.2740399
302.9222158
303.8115742
305.0490768
306.7939724
309.2888169
312.8814997
318.1133516
325.7793585
337.0255449
353.4732678
377.4322649
411.364141
458.3406021
521.741031
604.2400489
707.5935726
833.1129641
300.0103602
300.0314495
300.0533068
300.0760119
300.0996928
300.1245399
300.1508238
300.1789173
300.2093238
300.2427135
300.2799719
300.3222645
300.3711242
300.4285729
300.49729
300.5808488
300.6840585
300.8134438
300.9779179
301.1897801
301.4661248
301.8311051
302.3191742
302.9802931
303.8875819
305.1499849
306.9299276
309.472742
313.1352543
318.4658812
326.2730274
337.7199009
354.4436502
378.7524528
413.1609251
460.7460436
524.7949187
607.9729078
711.9665446
838.170027
300.0105698
300.0320854
300.0543841
300.0775472
300.1017049
300.1270512
300.1538618
300.1825165
300.2135286
300.2475815
300.2855785
300.3287086
300.378536
300.4371236
300.5072052
300.5924266
300.6976915
300.8296488
300.997384
301.2134319
301.4952402
301.8674474
302.365232
303.0395722
303.9651349
305.2529174
307.0684336
309.6603919
313.3938818
318.8252225
326.7764726
338.4258709
355.4297224
380.0957266
414.9857705
463.1794809
527.8776002
611.7065369
716.3780456
843.2658106
300.0107832
300.0327328
300.0554811
300.0791106
300.103754
300.1296089
300.1569562
300.1861832
300.2178129
300.2525425
300.2912933
300.3352781
300.386093
300.4458427
300.517316
300.6042325
300.7115919
300.8461713
301.0172324
301.2375536
301.5249397
301.9045285
302.4122323
303.1000723
304.0442617
305.3579037
307.2095808
309.8518057
313.6575057
319.1915235
327.2897169
339.1437917
356.431968
381.4621171
416.8385288
465.6413372
530.9898302
615.465087
720.8278631
848.4000715
300.0110005
300.0333923
300.0565983
300.0807028
300.105841
300.1322141
300.1601085
300.1899189
300.2221786
300.2575985
300.2971184
300.3419755
300.3937979
300.4547331
300.5276262
300.6162708
300.7257654
300.8630183
301.0374718
301.2621554
301.555236
301.9423634
302.4601942
303.161814
304.1249908
305.4649789
307.3534498
310.047035
313.9262442
319.5649236
327.8128223
339.8739865
357.4508237
382.8516794
418.7191001
468.1319747
534.132338
619.2585123
725.315709
853.5724843
300.0112218
300.0340639
300.0577363
300.0823248
300.107967
300.1348682
300.1633202
300.1937253
300.2266275
300.2627516
300.303056
300.3488031
300.4016536
300.4637982
300.5381392
300.628546
300.7402174
300.8801967
301.0581109
301.2872476
301.5861419
301.9809672
302.5091363
303.2248188
304.2073518
305.5741819
307.5001151
310.2461408
314.2002123
319.9455573
328.3458808
340.616767
358.4866884
384.2644888
420.6274107
470.6516772
537.3057326
623.0869195
729.8412811
858.7755101
300.0114473
300.0347482
300.0588957
300.0839771
300.1101329
300.1375723
300.1665926
300.1976041
300.2311614
300.2680037
300.3091086
300.3557635
300.4096628
300.4730411
300.5488589
300.6410627
300.7549539
300.8977137
301.0791587
301.3128408
301.6176705
302.0203555
302.5590778
303.2891095
304.291375
305.6855547
307.6496472
310.4491906
314.4795231
320.3335574
328.889009
341.3724344
359.5399305
385.7006387
422.5633898
473.2006111
540.5105106
626.9504066
734.4042665
863.9767968
300.011677
300.0354454
300.060077
300.0856608
300.1123399
300.1403277
300.1699272
300.2015569
300.2357822
300.273357
300.3152783
300.3628594
300.4178286
300.4824654
300.5597894
300.6538257
300.7699805
300.9155765
301.1006241
301.3389455
301.6498347
302.0605441
302.610038
303.3547095
304.3770918
305.7991409
307.8021146
310.6562571
314.764288
320.7290564
329.4423419
342.1412817
360.6108941
387.1602425
424.5269446
475.7764274
543.738211
630.8490373
738.9734668
869.2159304
300.0119112
300.0361558
300.0612807
300.0873764
300.1145888
300.1431355
300.1733255
300.2055854
300.2404918
300.2788136
300.3215677
300.3700935
300.4261541
300.4920745
300.5709347
300.6668399
300.7853034
300.9337924
301.1225159
301.3655728
301.6826478
302.101549
302.6620365
303.4216432
304.4645348
305.9149861
307.9575843
310.8674166
315.0546184
321.1321885
330.00603
342.9235938
361.6999049
388.6434394
426.5179588
478.3526647
546.9681238
634.7830833
743.5635227
874.492615
300.0121497
300.0368798
300.0625073
300.0891247
300.1168807
300.145997
300.1767889
300.2096913
300.2452921
300.2843757
300.3279791
300.3774686
300.4346423
300.5018719
300.582299
300.6801104
300.8009286
300.9523689
301.1448434
301.3927337
301.7161232
302.1433865
302.7150935
303.4899357
304.5537376
306.0331368
308.1161228
311.0827488
315.3506258
321.5430897
330.5802358
343.7196495
362.8072725
390.1503727
428.5366517
480.9586915
550.2305791
638.7525909
748.1911255
879.8063983
300.0123929
300.0376177
300.0637575
300.0909065
300.1192165
300.1489134
300.1803188
300.2138761
300.2501851
300.2900454
300.334515
300.3849873
300.4432965
300.5118615
300.5938867
300.6936423
300.8168624
300.9713137
301.1676159
301.4204394
301.7502745
302.1860733
302.7692294
303.5596131
304.6447346
306.153641
308.2777969
311.3023357
315.6524222
321.9618989
331.1651311
344.5297213
363.9332939
391.6812069
430.5832457
483.5949098
553.5256079
642.7394312
752.856327
885.157107
300.0126407
300.0383697
300.0650316
300.0927226
300.1215972
300.1518859
300.1839166
300.2181417
300.2551726
300.2958251
300.341178
300.3926527
300.4521199
300.5220471
300.6057023
300.707441
300.8331113
300.9906346
301.1908427
301.4487013
301.7851156
302.2296262
302.8244654
303.630702
304.7375617
306.2765475
308.4426736
311.5262617
315.960121
322.3887578
331.7608955
345.3540764
365.0782552
393.2361192
432.6579632
486.2617088
556.8533791
646.7346576
757.5590519
890.5208282
300.0128933
300.0391362
300.0663304
300.0945736
300.1240238
300.1549158
300.187584
300.2224897
300.2602567
300.3017169
300.3479706
300.4004676
300.461116
300.5324325
300.6177504
300.7215119
300.8496818
301.0103393
301.2145333
301.4775309
301.8206607
302.2740626
302.8808228
303.7032299
304.8322553
306.4019062
308.6108206
311.754613
316.2738367
322.8238109
332.3677143
346.1929766
366.242432
394.8152918
434.7610208
488.9594391
560.214298
650.7655694
762.2990649
895.8990239
300.0131508
300.0399176
300.0676542
300.0964605
300.1264972
300.1580042
300.1913222
300.2269219
300.2654395
300.3077232
300.3548956
300.4084352
300.4702883
300.5430218
300.6300356
300.7358606
300.8665804
301.0304359
301.2386976
301.5069401
301.856924
302.3194001
302.9383239
303.7772252
304.9288531
306.529768
308.7823064
311.9874779
316.5936854
323.2672055
332.9857769
347.0466771
367.4260883
396.4189016
436.8926172
491.688434
563.6087022
654.8320969
767.0748513
901.3137906
300.0134133
300.0407141
300.0690037
300.0983838
300.1290186
300.1611524
300.1951329
300.2314401
300.2707228
300.3138464
300.3619555
300.4165584
300.4796402
300.5538191
300.6425628
300.7504927
300.8838141
301.0509327
301.2633453
301.5369408
301.8939201
302.3656566
302.9969911
303.852717
305.0273935
306.6601849
308.9572005
312.2249461
316.919785
323.7190914
333.6152755
347.9154251
368.6294733
398.0471053
439.0529159
494.4490084
567.0368715
658.9341425
771.8406944
906.7650806
300.0136809
300.0415261
300.0703793
300.1003445
300.1315889
300.1643616
300.1990176
300.2360461
300.276109
300.3200888
300.3691532
300.4248405
300.4891755
300.5648286
300.6553369
300.7654142
300.9013898
301.0718379
301.2884865
301.5675452
301.931664
302.4128507
303.0568477
303.9297349
305.1279159
306.7932096
309.1355733
312.4671093
317.2522547
324.1796199
334.256403
348.7994551
369.8528181
399.7000198
441.2419841
497.2414635
570.4989809
663.0720179
776.6436784
912.2528471
300.0139537
300.0423539
300.0717818
300.1023433
300.1342091
300.1676333
300.2029777
300.2407416
300.2815999
300.3264529
300.3764915
300.4332847
300.4988978
300.5760546
300.668363
300.7806309
300.9193145
301.09316
301.3141315
301.5987657
301.9701708
302.4610011
303.1179172
304.0083096
305.2304607
306.9288963
309.3174966
312.7140609
317.5912157
324.6489424
334.9093514
349.6989825
371.0963178
401.3776965
443.4340792
500.066107
573.9950849
667.2460081
781.483746
917.7728832
300.0142318
300.0431978
300.0732115
300.1043811
300.1368803
300.1709686
300.207015
300.2455286
300.287198
300.3329412
300.3839732
300.4418943
300.5088109
300.5875015
300.6816461
300.7961489
300.9375954
301.1149077
301.3402906
301.6306149
302.009456
302.5101271
303.180224
304.0884725
305.3350692
307.0672999
309.5030432
312.9658957
317.9367906
325.1272083
335.5743076
350.6141907
372.3498476
403.0805019
445.6550815
502.9228339
577.5084659
671.4563735
786.3609128
923.2882472
300.0145154
300.0440581
300.0746692
300.1064585
300.1396036
300.174369
300.211131
300.250409
300.2929052
300.3395563
300.3916013
300.4506726
300.5189188
300.5991739
300.6951916
300.8119744
300.95624
301.1370897
301.3669745
301.6631058
302.0495355
302.5602482
303.2437929
304.1702554
305.4417836
307.2084763
309.6922873
313.2227106
318.2891045
325.6145596
336.2476528
351.54535
373.6207843
404.808667
447.9053318
505.8116482
581.0307998
675.6748257
791.2753928
928.8394181
300.0148045
300.0449354
300.0761553
300.1085766
300.1423801
300.1778357
300.2153273
300.2553846
300.298724
300.3463008
300.3993788
300.4596231
300.5292254
300.6110763
300.7090048
300.8281137
300.9752557
301.1597151
301.394194
301.6962516
302.0904253
302.6113846
303.3086494
304.2536914
305.550647
307.3524829
309.8853043
313.484604
318.6482846
326.1111544
336.930332
352.4927333
374.9123375
406.5618247
450.1849947
508.7327175
584.587621
679.9114508
796.2271155
934.4264117
300.0150993
300.0458297
300.0776705
300.110736
300.1452108
300.1813702
300.2196056
300.2604575
300.3046565
300.3531772
300.4073087
300.4687493
300.5397347
300.6232135
300.7230913
300.8445733
300.9946501
301.182793
301.4219602
301.7300655
302.132142
302.6635568
303.3748194
304.338814
305.6617036
307.4993779
310.0821712
313.7516763
319.0144604
326.6171669
337.6255228
353.4565948
376.2246314
408.3210947
452.4942162
511.6598931
588.1794895
684.1843963
801.180536
940.0494436
300.0153998
300.0467417
300.0792154
300.1129378
300.148097
300.1849737
300.2239675
300.2656296
300.3107052
300.3601884
300.4153941
300.4780549
300.550451
300.6355902
300.7374566
300.8613599
301.0144312
301.2063327
301.4502842
301.7645613
302.1747024
302.7167857
303.4423297
304.4256576
305.7749983
307.6492208
310.2829663
314.0240299
319.387765
327.1327732
338.3334365
354.4371837
377.5579882
410.1062276
454.8331959
514.6104693
591.8066387
688.493728
806.1577445
945.7084471
300.0157063
300.0476715
300.0807906
300.1151827
300.1510396
300.1886479
300.2284149
300.270903
300.3168723
300.367337
300.4236383
300.4875434
300.5613784
300.6482114
300.7521064
300.87848
301.0346067
301.2303437
301.4791775
301.7997529
302.2181236
302.771093
303.5112074
304.5142573
305.8905772
307.8020721
310.4877693
314.3017691
319.7683341
327.6581519
339.0542897
355.4347562
378.9127159
411.9174633
457.2022278
517.594014
595.4691564
692.8396072
811.1719026
951.3662188
300.0160188
300.0486196
300.0823967
300.1174716
300.15404
300.1923941
300.2329495
300.2762797
300.3231604
300.3746259
300.4320444
300.4972186
300.5725212
300.661082
300.7670466
300.8959406
301.055185
301.2548358
301.5086518
301.8356546
302.2624232
302.8265004
303.5814804
304.6046491
306.0084872
307.9579937
310.6966616
314.5850004
320.1563065
328.1934839
339.7883019
356.4495722
380.2891149
413.7550602
459.6015845
520.6107194
599.1670837
697.2221502
816.2230915
957.0528416
300.0163374
300.0495863
300.0840344
300.1198055
300.1570993
300.1962138
300.237573
300.281762
300.329572
300.382058
300.4406159
300.5070844
300.583884
300.6742072
300.7822832
300.9137486
301.0761742
301.2798188
301.5387192
301.872281
302.3076192
302.8830304
303.6531773
304.6968699
306.1287765
308.1170488
310.9097261
314.8738323
320.5518236
328.7389521
340.5356961
357.4818942
381.6874801
415.6192753
462.0315181
523.6607339
602.900386
701.6414261
821.3113906
962.7749878
300.0166623
300.0505721
300.0857043
300.1221853
300.1602187
300.2001085
300.2422873
300.2873519
300.3361094
300.3896362
300.449356
300.5171445
300.5954711
300.6875922
300.7978223
300.9319113
301.0975829
301.3053028
301.5693916
301.9096468
302.3537299
302.9407061
303.7263271
304.7909571
306.251494
308.2793017
311.1270475
315.1683756
320.9550295
329.2947422
341.2966981
358.5319873
383.1081011
417.5103593
464.4922612
526.7441454
606.6689011
706.0828278
826.4368866
968.5327287
300.0169936
300.0515773
300.0874071
300.1246119
300.1633995
300.2040798
300.2470942
300.2930517
300.3427754
300.3973634
300.4582682
300.5274032
300.6072871
300.7012424
300.8136699
300.9504359
301.1194196
301.3312982
301.6006817
301.9477673
302.400774
302.9995507
303.8009598
304.8869492
306.3766899
308.4448181
311.3487118
315.468743
321.3660711
329.8610421
342.0715365
359.6001178
384.5512616
419.4285504
466.9840293
529.8609543
610.4534473
710.5280658
831.5651873
974.326184
300.0173315
300.0526023
300.0891435
300.1270864
300.1666429
300.2081293
300.2519958
300.2988636
300.3495726
300.4052428
300.4673561
300.5378643
300.6193369
300.7151631
300.8298326
300.9693299
301.1416931
301.3578155
301.632602
301.9866579
302.4487707
303.0595884
303.8771057
304.9848854
306.5044151
308.613665
311.5748072
315.7750497
321.7850976
330.4380427
342.8604427
360.6865533
386.0172384
421.3740643
469.5069977
533.011289
614.2485021
715.0105897
836.7167517
980.1223829
300.0176761
300.0536476
300.0909142
300.1296096
300.1699502
300.2122585
300.2569938
300.3047899
300.3565036
300.4132775
300.4766232
300.548532
300.6316251
300.72936
300.8463168
300.9886008
301.1644125
301.3848653
301.6651655
302.0263344
302.4977394
303.1208436
303.954796
305.084806
306.6347221
308.7859107
311.8054231
316.0874128
322.2122612
331.0259372
343.6636505
361.791562
387.5063022
423.3470786
472.0612736
536.1955284
618.0794311
719.5303775
841.9054335
985.9443645
300.0180274
300.0547136
300.0927198
300.1321826
300.1733227
300.2164691
300.2620904
300.310833
300.3635712
300.4214706
300.4860733
300.5594106
300.6441567
300.7438386
300.863129
301.0082563
301.187587
301.4124587
301.6983855
302.066813
302.5477002
303.1833414
304.0340626
305.1867519
306.767664
308.9616251
312.040651
316.4059516
322.6477162
331.6249214
344.4813959
362.9154126
389.0187197
425.347713
474.6468465
539.4140077
621.9464768
724.0874175
847.1311721
991.8015906
300.0183857
300.0558006
300.0945611
300.1348065
300.1767618
300.2207628
300.2672874
300.3169953
300.3707782
300.4298254
300.49571
300.5705044
300.6569366
300.7586048
300.8802761
301.0283045
301.2112258
301.4406069
301.7322754
302.1081102
302.5986736
303.2471074
304.1149381
305.290765
306.9032954
309.1408793
312.2805841
316.7307878
323.0916196
332.2351937
345.3139169
364.0583746
390.554763
427.3760041
477.2435525
542.6670013
625.8498882
728.6816683
852.3939114
997.6940378
300.0187512
300.0569092
300.0964389
300.1374823
300.1802689
300.2251413
300.2725871
300.3232792
300.3781275
300.4383452
300.5055373
300.5818178
300.6699699
300.7736645
300.8977648
301.0487534
301.2353385
301.4693213
301.7668491
302.1502429
302.6506803
303.3121678
304.1974557
305.3968881
307.0416719
309.323746
312.5253174
317.0620449
323.5441305
332.8569541
346.161453
365.2207173
392.1146998
429.4321975
479.8600913
545.9193629
629.7899511
733.313027
857.6935732
1003.621695
300.0191238
300.0580398
300.0983539
300.140211
300.1838453
300.2296063
300.2779914
300.3296872
300.385622
300.4470334
300.5155589
300.5933553
300.6832619
300.7890237
300.9156022
301.0696113
301.259935
301.4986134
301.8021207
302.1932283
302.7037418
303.3785493
304.2816495
305.505165
307.1828503
309.5102993
312.7749476
317.3998485
324.0054098
333.4904045
347.0242442
366.4027087
393.6987979
431.5166353
482.5081718
549.202439
633.7664927
737.9608521
862.9848548
1009.549329
300.0195039
300.0591928
300.1003068
300.1429938
300.1874925
300.2341596
300.2835026
300.3362219
300.3932646
300.4558935
300.5257789
300.6051215
300.6968178
300.8046886
300.9337956
301.0908864
301.2850252
301.5284954
301.8381045
302.237084
302.7578798
303.4462793
304.3675541
305.6156404
307.3268886
309.7006149
313.0295734
317.7443264
324.4756196
334.1357468
347.9025303
367.6046127
395.3073274
433.629641
485.1881517
552.5203178
637.779403
742.6180122
868.3106993
1015.506212
300.0198916
300.0603686
300.1022985
300.1458317
300.191212
300.238803
300.2891228
300.3428859
300.4010584
300.4649289
300.5362015
300.6171211
300.7106431
300.8206653
300.9523521
301.1125875
301.3106191
301.5589792
301.8748153
302.2818281
302.8131166
303.5153858
304.4552053
305.72836
307.4738459
309.8947697
313.2892952
318.0956079
324.954922
334.7931817
348.7965481
368.8266851
396.9405538
435.771517
487.9003785
555.8729497
641.821093
747.3128563
873.6734385
1021.49817
300.0202869
300.0615679
300.1043297
300.1487259
300.1950051
300.2435385
300.2948543
300.3496817
300.4090066
300.4741433
300.5468306
300.6293589
300.7247432
300.8369605
300.9712794
301.1347234
301.3367273
301.5900774
301.9122681
302.3274788
302.869475
303.5858974
304.5446392
305.8433703
307.6237827
310.0928426
313.5542151
318.453824
325.4434763
335.4629025
349.706529
370.0691643
398.5987298
437.9425331
490.6452001
559.260292
645.8611481
752.0455932
879.0729535
1027.524995
300.0206901
300.062791
300.1064013
300.1516776
300.1988736
300.2483678
300.3006994
300.3566123
300.4171122
300.4835403
300.5576706
300.6418398
300.739124
300.8535805
300.9905849
301.1573028
301.3633604
301.6218026
301.9504782
302.3740549
302.9269783
303.6578433
304.635893
305.9607192
307.7767607
310.2949136
313.8244373
318.8191081
325.9414348
336.1423558
350.6326945
371.3322414
400.2820851
440.1428857
493.4229546
562.6826838
649.9380751
756.8160705
884.5091137
1033.583235
300.0211014
300.0640385
300.1085141
300.154688
300.2028188
300.2532929
300.3066604
300.3636802
300.4253785
300.4931237
300.5687257
300.6545687
300.753791
300.8705322
301.0102766
301.1803352
301.3905291
301.6541679
301.9894613
302.4215757
302.9856502
303.7312532
304.7290047
306.0804553
307.932843
310.5010648
314.1000679
319.191596
326.4489588
336.8303081
351.5752217
372.6031233
401.9908205
442.3596373
496.2340233
566.1403865
654.0519158
761.6241403
889.9626874
1039.637748
300.0215208
300.0653109
300.110669
300.1577582
300.2068425
300.2583159
300.3127396
300.3708883
300.4338088
300.5028973
300.5800005
300.6675508
300.7687502
300.8878222
301.0303622
301.2038296
301.4182446
301.6871863
302.0292335
302.4700609
303.0455152
303.8061579
304.8240129
306.2026282
308.0920938
310.7113795
314.381215
319.5714257
326.9662326
337.531056
352.5343697
373.8944222
403.7250907
444.5928904
499.0786277
569.6336052
658.2027004
766.4696633
895.4251696
1045.727508
300.0219487
300.0666086
300.1128668
300.1608896
300.2109461
300.2634386
300.3189397
300.3782396
300.4424065
300.5128651
300.5914994
300.6807913
300.7840076
300.9054576
301.0508501
301.2277958
301.4465181
301.7208716
302.0698111
302.5195303
303.106598
303.8825884
304.9209574
306.3272889
308.2545788
310.925943
314.6679887
319.9587387
327.4934404
338.2448123
353.5103965
375.2068663
405.4851454
446.8561491
501.9567621
573.162483
662.3904098
771.3084406
900.9245903
1051.852051
300.0223851
300.0679322
300.1151084
300.1640833
300.2151315
300.2686633
300.325263
300.3857369
300.4511751
300.523031
300.6032271
300.6942954
300.7995694
300.9234454
301.0717485
301.2522434
301.4753612
301.7552374
302.1112108
302.5700046
303.168924
303.9605767
305.0198785
306.4544892
308.4203651
311.144842
314.9605015
320.3536792
328.0307665
338.9717938
354.5035603
376.5406198
407.2627005
449.1497065
504.8683187
576.7197268
666.6154537
776.1802297
906.460907
1058.010848
300.0228302
300.0692823
300.1173948
300.1673407
300.2194002
300.2739919
300.331712
300.3933833
300.460118
300.5333991
300.6151881
300.7080687
300.8154417
300.941793
301.0930657
301.2771824
301.5047857
301.7902979
302.1534498
302.6215046
303.2325193
304.0401553
305.1208177
306.5842822
308.589521
311.3681653
315.2588679
320.7563945
328.5783997
339.7122236
355.5141216
377.8959006
409.0546574
451.4737647
507.8131277
580.2777471
670.8781872
781.089961
912.0339383
1064.186408
300.0232842
300.0706594
300.1197268
300.1706631
300.2237539
300.2794266
300.3382894
300.4011818
300.4692388
300.5439735
300.6273874
300.7221166
300.8316311
300.9605078
301.1148106
301.302623
301.5348037
301.8260676
302.1965454
302.6740518
303.2974103
304.1213576
305.2238172
306.7167219
308.7621165
311.5960033
315.5632049
321.1670347
329.1365309
340.4663285
356.5423417
379.2730458
410.8730926
453.8282965
510.775863
583.8718382
675.1558965
786.0378595
917.6406668
1070.372364
300.0237473
300.072064
300.1221055
300.1740518
300.2281946
300.2849697
300.3449978
300.4091357
300.4785412
300.5547586
300.6398298
300.7364448
300.8481439
300.9795973
301.1369919
301.3285754
301.5654273
301.8625612
302.2405157
302.7276681
303.3636242
304.2042175
305.3289203
306.8518637
308.9382228
311.8284483
315.8736316
321.5857529
329.7053534
341.2343385
357.5884894
380.6723815
412.7182915
456.2134229
513.7518501
587.5021927
679.4466269
791.0239525
923.2416746
1076.593131
300.0242197
300.0734967
300.1245318
300.1775083
300.2327239
300.2906233
300.35184
300.417248
300.488029
300.5657586
300.6525204
300.7510591
300.864987
300.9990693
301.1596186
301.3550505
301.5966693
301.8997937
302.2853788
302.7823758
303.4311888
304.2887699
305.4361709
306.9897642
309.1179128
312.0655943
316.1902696
322.0127046
330.285063
342.0164879
358.6528382
382.0942272
414.5905412
458.6295
516.7619176
591.1690257
683.7751002
796.0481421
928.8796207
1082.847992
300.0247016
300.0749582
300.1270066
300.1810339
300.2373437
300.2963898
300.3588186
300.4255221
300.4977059
300.576978
300.6654643
300.7659653
300.8821671
301.0189316
301.1827
301.3820589
301.6285425
301.9377806
302.3311533
302.8381978
303.5001323
304.3750504
305.5456143
307.1304809
309.3012608
312.3075374
316.5132427
322.4480482
330.8758585
342.8130143
359.7356657
383.5388982
416.4901329
461.0768526
519.8063059
594.8725207
688.1411902
801.0760722
934.5545977
1089.137431
300.0251932
300.076449
300.129531
300.1846301
300.2420559
300.3022715
300.3659365
300.4339612
300.507576
300.5884212
300.6786666
300.7811696
300.8996912
301.0391924
301.2062455
301.4096118
301.66106
301.9765375
302.3778583
302.8951573
303.5704837
304.4630952
305.6572964
307.2740728
309.4883427
312.5543756
316.8426771
322.8919447
331.4779415
343.6241591
360.8372527
385.0067053
418.4173541
463.555778
522.8852353
598.6128047
692.5450529
806.1272187
940.2664504
1095.422339
300.0256946
300.0779698
300.1321061
300.1882983
300.2468623
300.3082708
300.3731967
300.4425689
300.517643
300.600093
300.6921327
300.7966779
300.9175663
301.0598599
301.2302647
301.4377204
301.6942352
302.0160806
302.4255134
302.9532784
303.6422727
304.5529415
305.7712645
307.4206001
309.6792358
312.8062087
317.1787011
323.344558
332.0915166
344.4501669
361.9578821
386.4979545
420.3724817
466.0665436
525.9988775
602.3899423
696.986945
811.2166365
946.0153511
1101.737099
300.0262062
300.0795211
300.1347328
300.19204
300.251765
300.3143901
300.380602
300.4513486
300.5279112
300.6119981
300.7058682
300.8124968
300.9357998
301.0809425
301.2547675
301.4663963
301.7280818
302.0564263
302.4741384
303.0125854
303.7155294
304.6446273
305.8875664
307.5701243
309.8740193
313.0631385
317.5214457
323.8060541
332.7167909
345.2912854
363.0978385
388.012946
422.3557727
468.6093816
529.1473446
606.2038989
701.4670971
816.3444235
951.7614271
1108.085918
300.026728
300.0811036
300.1374124
300.1958568
300.256766
300.3206319
300.3881555
300.4603039
300.5383847
300.6241412
300.7198784
300.8286324
300.9543991
301.1024488
301.2797637
301.4956514
301.7626139
302.0975914
302.5237536
303.0731032
303.7902849
304.7381914
306.0062515
307.7227082
310.0727738
313.3252689
317.8710437
324.2766014
333.3539739
346.1477649
364.2574072
389.5519737
424.367452
471.1844832
532.3306782
610.04026
705.972276
821.510851
957.5403996
1114.469332
300.0272604
300.082718
300.1401458
300.1997503
300.2618673
300.3269988
300.3958601
300.4694384
300.5490678