/*--------------------------------*- C++ -*----------------------------------*\
| =========                 |                                                 |
| \\      /  F ield         | OpenFOAM: The Open Source CFD Toolbox           |
|  \\    /   O peration     | Version:  v2006                                 |
|   \\  /    A nd           | Website:  www.openfoam.com                      |
|    \\/     M anipulation  |                                                 |
\*---------------------------------------------------------------------------*/
FoamFile
{
    version     2.0;
    format      ascii;
    class       volScalarField;
    location    "0.15";
    object      theta2_0;
}
// * * * * * * * * * * * * * * * * * * * * * * * * * * * * * * * * * * * * * //

dimensions      [0 0 0 0 0 0 0];


internalField   nonuniform List<scalar> 
168000
(
96.98969043
96.99030008
96.99092668
96.99156863
96.99220843
96.99283626
96.99347417
96.99411775
96.99470512
96.99527762
96.99585069
96.99636437
96.99683881
96.99730837
96.99770072
96.99806444
96.99840779
96.9986765
96.9989379
96.99913952
96.99932212
96.9994689
96.9995916
96.99968929
96.99976869
96.9998281
96.99987787
96.99991044
96.99993792
96.99995648
96.99996989
96.99997996
96.99998636
96.99999068
96.99999371
96.99999572
96.99999696
96.99999774
96.99999826
96.99999862
96.98946074
96.99009042
96.99073506
96.99139061
96.99204733
96.99269895
96.99335022
96.9939946
96.99460548
96.99519492
96.99576752
96.99629599
96.99678631
96.99725215
96.99766037
96.99803241
96.99837333
96.99865634
96.99891537
96.99912559
96.99930929
96.9994596
96.99958409
96.99968387
96.99976421
96.9998254
96.99987506
96.99990914
96.99993662
96.99995568
96.99996937
96.9999795
96.99998608
96.99999049
96.99999356
96.9999956
96.99999687
96.99999767
96.99999821
96.99999857
96.98923296
96.98987864
96.99053974
96.99121077
96.99188443
96.99255494
96.99322038
96.99387404
96.99450227
96.99510634
96.99568564
96.99622648
96.99672922
96.99719835
96.99761818
96.99799804
96.99834086
96.99863367
96.99889394
96.99911058
96.99929653
96.99945001
96.99957651
96.99967827
96.99975976
96.99982249
96.99987238
96.9999077
96.99993535
96.99995486
96.99996884
96.99997905
96.99998578
96.9999903
96.99999341
96.99999548
96.99999678
96.9999976
96.99999815
96.99999852
96.98900427
96.98966473
96.99034152
96.99102842
96.99171866
96.99240623
96.99308644
96.99375271
96.99439618
96.99501399
96.99560315
96.99615557
96.99666939
96.99714506
96.99757466
96.99796212
96.99830909
96.99860954
96.99887288
96.99909486
96.99928369
96.99944017
96.99956883
96.99967252
96.9997553
96.99981942
96.99986977
96.99990615
96.99993409
96.99995402
96.99996828
96.9999786
96.99998548
96.99999009
96.99999325
96.99999535
96.99999668
96.99999753
96.99999809
96.99999846
96.98877338
96.98944832
96.99014048
96.99084323
96.99154978
96.99225369
96.99294908
96.99362938
96.99428744
96.99491876
96.99551926
96.99608313
96.9966076
96.99709138
96.99753004
96.99792505
96.99827736
96.99858446
96.99885183
96.99907864
96.99927068
96.99943013
96.99956104
96.99966665
96.99975081
96.99981624
96.9998672
96.99990452
96.99993283
96.99995315
96.9999677
96.99997814
96.99998517
96.99998988
96.99999309
96.99999522
96.99999659
96.99999745
96.99999803
96.99999841
96.98853965
96.98922906
96.98993648
96.99065503
96.99137772
96.99209775
96.99280858
96.99350357
96.99417613
96.99482102
96.99543364
96.99600908
96.99654418
96.99703691
96.9974844
96.99788701
96.99824535
96.99855868
96.99883059
96.99906199
96.99925746
96.99941988
96.99955312
96.99966066
96.99974626
96.99981296
96.99986463
96.99990283
96.99993155
96.99995228
96.9999671
96.99997769
96.99998486
96.99998967
96.99999293
96.9999951
96.99999649
96.99999738
96.99999796
96.99999835
96.98830268
96.98900667
96.98972936
96.9904637
96.99120248
96.99193858
96.99266506
96.99337513
96.99406228
96.99472093
96.99534615
96.99593337
96.99647925
96.99698143
96.99743776
96.9978481
96.99821288
96.9985323
96.99880907
96.99904498
96.99924401
96.99940943
96.99954507
96.99965455
96.99974164
96.99980959
96.99986205
96.99990108
96.99993026
96.99995138
96.99996648
96.99997723
96.99998453
96.99998944
96.99999276
96.99999496
96.99999638
96.9999973
96.9999979
96.99999829
96.98806217
96.98878089
96.98951895
96.99026914
96.99102404
96.99177626
96.99251857
96.99324399
96.99394593
96.99461855
96.99525673
96.99585598
96.99641284
96.99692484
96.99739013
96.99780834
96.99817986
96.99850537
96.9987872
96.99902762
96.99923032
96.99939878
96.99953686
96.99964833
96.99973695
96.99980615
96.99985946
96.99989928
96.99992895
96.99995046
96.99996585
96.99997676
96.9999842
96.99998921
96.99999259
96.99999483
96.99999628
96.99999721
96.99999783
96.99999823
96.98781788
96.98855151
96.98930509
96.99007124
96.99084235
96.99161081
96.99236913
96.99311012
96.99382706
96.9945139
96.99516535
96.99577689
96.99634498
96.99686708
96.99734149
96.99776775
96.99814623
96.9984779
96.99876496
96.99900993
96.99921637
96.99938793
96.99952851
96.99964199
96.99973218
96.99980263
96.99985683
96.99989744
96.99992762
96.99994953
96.9999652
96.99997628
96.99998387
96.99998897
96.99999241
96.99999469
96.99999617
96.99999713
96.99999775
96.99999817
96.9875696
96.98831836
96.98908764
96.9898699
96.99065737
96.99144221
96.99221673
96.99297352
96.99370568
96.99440699
96.99507198
96.99569606
96.99627564
96.99680811
96.99729184
96.99772632
96.99811196
96.99844991
96.99874232
96.99899189
96.99920216
96.99937687
96.99952001
96.99963553
96.99972733
96.99979904
96.99985417
96.99989555
96.99992627
96.99994858
96.99996453
96.9999758
96.99998352
96.99998873
96.99999223
96.99999455
96.99999606
96.99999704
96.99999768
96.99999811
96.98731715
96.98808126
96.98886645
96.98966502
96.99046903
96.99127044
96.99206136
96.99283417
96.99358179
96.9942978
96.9949766
96.9956135
96.99620481
96.99674789
96.99724114
96.99768404
96.99807703
96.99842137
96.99871925
96.99897351
96.99918768
96.99936561
96.99951135
96.99962895
96.99972239
96.99979539
96.99985148
96.99989363
96.99992489
96.99994761
96.99996385
96.99997531
96.99998317
96.99998848
96.99999204
96.9999944
96.99999594
96.99999694
96.9999976
96.99999804
96.98706036
96.98784007
96.9886414
96.9894565
96.99027726
96.99109546
96.99190298
96.99269205
96.99345536
96.99418633
96.9948792
96.99552917
96.99613246
96.99668641
96.99718939
96.99764089
96.9980414
96.99839228
96.99869576
96.99895479
96.99917294
96.99935414
96.99950254
96.99962226
96.99971736
96.99979167
96.99984873
96.99989167
96.99992348
96.99994662
96.99996316
96.99997481
96.99998281
96.99998822
96.99999185
96.99999425
96.99999582
96.99999685
96.99999752
96.99999797
96.98679906
96.98759464
96.98841236
96.98924424
96.99008199
96.9909172
96.99174157
96.99254712
96.99332637
96.99407256
96.99477976
96.99544305
96.99605859
96.99662363
96.99713655
96.99759686
96.99800507
96.99836262
96.99867183
96.99893571
96.99915791
96.99934246
96.99949356
96.99961544
96.99971225
96.99978787
96.99984595
96.99988967
96.99992205
96.9999456
96.99996244
96.99997429
96.99998245
96.99998796
96.99999165
96.9999941
96.9999957
96.99999675
96.99999744
96.99999789
96.98653313
96.98734484
96.98817923
96.98902815
96.98988314
96.99073561
96.99157708
96.99239937
96.99319481
96.99395647
96.99467826
96.99535514
96.99598317
96.99655954
96.99708263
96.99755193
96.99796801
96.99833238
96.99864743
96.99891627
96.99914261
96.99933056
96.99948441
96.9996085
96.99970704
96.99978402
96.99984312
96.99988763
96.9999206
96.99994457
96.99996172
96.99997377
96.99998207
96.99998769
96.99999145
96.99999394
96.99999558
96.99999665
96.99999735
96.99999782
96.98626241
96.98709055
96.98794189
96.98880812
96.98968062
96.99055063
96.99140946
96.99224875
96.99306065
96.99383803
96.99457468
96.99526541
96.99590617
96.99649412
96.99702758
96.99750609
96.99793022
96.99830156
96.99862257
96.99889646
96.99912701
96.99931843
96.9994751
96.99960143
96.99970174
96.99978009
96.99984024
96.99988555
96.99991911
96.99994352
96.99996097
96.99997324
96.99998169
96.99998741
96.99999124
96.99999378
96.99999545
96.99999654
96.99999726
96.99999774
96.98598677
96.98683164
96.98770022
96.98858407
96.98947436
96.99036218
96.99123865
96.99209522
96.99292384
96.99371723
96.99446899
96.99517383
96.99582758
96.99642734
96.99697141
96.99745931
96.99789166
96.99827012
96.99859723
96.99887627
96.99911113
96.99930608
96.99946561
96.99959423
96.99969634
96.99977609
96.9998373
96.99988344
96.9999176
96.99994245
96.99996021
96.9999727
96.9999813
96.99998712
96.99999102
96.99999361
96.99999532
96.99999643
96.99999717
96.99999766
96.98570608
96.98656798
96.98745412
96.98835588
96.98926428
96.99017021
96.99106461
96.99193873
96.99278436
96.99359402
96.99436118
96.99508038
96.99574738
96.99635919
96.99691408
96.99741158
96.99785234
96.99823807
96.9985714
96.9988557
96.99909494
96.99929349
96.99945595
96.9995869
96.99969084
96.99977201
96.99983432
96.99988128
96.99991606
96.99994136
96.99995944
96.99997214
96.9999809
96.99998683
96.9999908
96.99999344
96.99999518
96.99999632
96.99999708
96.99999758
96.98542022
96.98629946
96.98720348
96.98812347
96.98905029
96.98997463
96.99088726
96.99177924
96.99264216
96.99346839
96.99425121
96.99498504
96.99566554
96.99628964
96.99685558
96.99736288
96.99781222
96.99820539
96.99854507
96.99883473
96.99907844
96.99928067
96.9994461
96.99957944
96.99968525
96.99976787
96.99983128
96.99987909
96.99991449
96.99994024
96.99995865
96.99997157
96.99998049
96.99998653
96.99999058
96.99999326
96.99999504
96.99999621
96.99999698
96.99999749
96.98512906
96.98602597
96.98694818
96.98788673
96.9888323
96.98977538
96.99070655
96.9916167
96.99249721
96.99334028
96.99413905
96.99488779
96.99558205
96.99621868
96.99679589
96.99731319
96.99777131
96.99817206
96.99851822
96.99881336
96.99906164
96.99926761
96.99943608
96.99957183
96.99967955
96.99976365
96.99982819
96.99987685
96.99991289
96.9999391
96.99995784
96.99997099
96.99998007
96.99998622
96.99999034
96.99999308
96.99999489
96.99999609
96.99999688
96.9999974
96.98483246
96.98574737
96.98668812
96.98764558
96.98861022
96.98957238
96.99052242
96.99145104
96.99234946
96.99320967
96.99402467
96.99478859
96.99549687
96.99614628
96.99673499
96.9972625
96.99772957
96.99813807
96.99849086
96.99879158
96.99904451
96.99925431
96.99942587
96.99956409
96.99967375
96.99975935
96.99982505
96.99987458
96.99991126
96.99993794
96.99995701
96.9999704
96.99997964
96.9999859
96.99999011
96.9999929
96.99999474
96.99999596
96.99999677
96.99999731
96.98453031
96.98546357
96.9864232
96.98739991
96.98838398
96.98936555
96.9903348
96.99128222
96.99219885
96.99307652
96.99390804
96.99468742
96.99540998
96.99607242
96.99667286
96.9972108
96.997687
96.99810341
96.99846295
96.99876938
96.99902705
96.99924075
96.99941546
96.9995562
96.99966784
96.99975497
96.99982184
96.99987226
96.9999096
96.99993676
96.99995617
96.9999698
96.9999792
96.99998558
96.99998986
96.99999271
96.99999459
96.99999583
96.99999666
96.99999721
96.98422248
96.98517443
96.98615331
96.98714962
96.98815348
96.98915481
96.99014362
96.99111018
96.99204535
96.99294078
96.99378912
96.99458425
96.99532136
96.99599708
96.99660948
96.99715805
96.99764358
96.99806806
96.99843451
96.99874675
96.99900927
96.99922694
96.99940486
96.99954817
96.99966182
96.99975052
96.99981858
96.9998699
96.9999079
96.99993555
96.99995531
96.99996918
96.99997875
96.99998525
96.99998961
96.99999251
96.99999443
96.9999957
96.99999655
96.99999711
96.98390885
96.98487984
96.98587832
96.98689461
96.98791863
96.98894009
96.9899488
96.99093485
96.9918889
96.99280241
96.99366788
96.99447904
96.99523098
96.99592024
96.99654484
96.99710425
96.99759929
96.99803202
96.9984055
96.99872368
96.99899114
96.99921286
96.99939407
96.99953999
96.99965569
96.99974598
96.99981526
96.99986749
96.99990618
96.99993432
96.99995443
96.99996855
96.99997829
96.99998491
96.99998935
96.9999923
96.99999427
96.99999557
96.99999643
96.999997
96.98358927
96.98457968
96.98559815
96.98663479
96.98767934
96.98872131
96.98975029
96.99075618
96.99172945
96.99266137
96.99354428
96.99437177
96.99513881
96.99584186
96.9964789
96.99704937
96.99755413
96.99799526
96.99837593
96.99870017
96.99897266
96.99919852
96.99938307
96.99953165
96.99964945
96.99974136
96.99981187
96.99986504
96.99990442
96.99993306
96.99995353
96.9999679
96.99997782
96.99998456
96.99998908
96.9999921
96.9999941
96.99999542
96.99999631
96.9999969
96.98326364
96.98427384
96.98531267
96.98637005
96.98743551
96.98849837
96.98954801
96.9905741
96.99156693
96.9925176
96.99341828
96.9942624
96.99504483
96.99576194
96.99641165
96.9969934
96.99750806
96.99795778
96.99834578
96.9986762
96.99895383
96.99918391
96.99937186
96.99952316
96.99964309
96.99973665
96.99980843
96.99986254
96.99990262
96.99993178
96.99995261
96.99996724
96.99997733
96.9999842
96.99998881
96.99999188
96.99999392
96.99999528
96.99999618
96.99999678
96.98293181
96.98396218
96.98502177
96.98610029
96.98718707
96.9882712
96.98934187
96.99038855
96.99140131
96.99237107
96.99328983
96.9941509
96.994949
96.99568043
96.99634307
96.99693632
96.99746109
96.99791955
96.99831504
96.99865177
96.99893464
96.99916902
96.99936045
96.99951451
96.99963662
96.99973186
96.99980492
96.99986
96.99990079
96.99993047
96.99995167
96.99996656
96.99997684
96.99998383
96.99998853
96.99999166
96.99999374
96.99999513
96.99999605
96.99999667
96.98259366
96.9836446
96.98472533
96.9858254
96.9869339
96.98803972
96.98913181
96.99019946
96.99123251
96.99222172
96.99315891
96.99403722
96.99485129
96.99559732
96.99627313
96.99687811
96.99741318
96.99788058
96.99828369
96.99862686
96.99891508
96.99915384
96.99934882
96.9995057
96.99963002
96.99972698
96.99980135
96.99985741
96.99989893
96.99992914
96.99995072
96.99996587
96.99997633
96.99998345
96.99998824
96.99999143
96.99999356
96.99999497
96.99999592
96.99999655
96.98224906
96.98332095
96.98442325
96.98554528
96.98667591
96.98780383
96.98891775
96.99000675
96.99106049
96.9920695
96.99302545
96.99392134
96.99475168
96.99551258
96.99620181
96.99681876
96.99736433
96.99784083
96.99825174
96.99860146
96.99889515
96.99913838
96.99933696
96.99949673
96.99962331
96.99972201
96.9997977
96.99985477
96.99989703
96.99992777
96.99994974
96.99996516
96.99997582
96.99998306
96.99998794
96.9999912
96.99999336
96.99999481
96.99999578
96.99999642
96.98189786
96.98299113
96.98411541
96.98525982
96.98641301
96.98756344
96.98869961
96.98981037
96.99088517
96.99191436
96.99288942
96.99380322
96.99465013
96.99542619
96.9961291
96.99675823
96.99731452
96.99780031
96.99821915
96.99857558
96.99887483
96.99912262
96.99932489
96.99948759
96.99961646
96.99971694
96.999794
96.99985208
96.99989509
96.99992638
96.99994874
96.99996444
96.99997529
96.99998267
96.99998763
96.99999095
96.99999317
96.99999465
96.99999563
96.99999629
96.98153994
96.98265499
96.98380168
96.9849689
96.98614509
96.98731847
96.98847731
96.98961024
96.9907065
96.99175624
96.99275077
96.99368281
96.99454661
96.9953381
96.99605496
96.99669651
96.99726373
96.99775899
96.99818594
96.99854919
96.99885411
96.99910656
96.99931258
96.99947827
96.99960949
96.99971179
96.99979022
96.99984934
96.99989312
96.99992497
96.99994772
96.9999637
96.99997474
96.99998226
96.99998732
96.9999907
96.99999296
96.99999447
96.99999548
96.99999616
96.98117515
96.98231242
96.98348195
96.98467243
96.98587206
96.98706882
96.98825077
96.98940629
96.99052441
96.99159509
96.99260946
96.99356008
96.99444108
96.99524831
96.99597937
96.99663359
96.99721194
96.99771686
96.99815207
96.99852229
96.998833
96.99909019
96.99930005
96.99946878
96.99960239
96.99970653
96.99978637
96.99984654
96.9998911
96.99992352
96.99994668
96.99996295
96.99997419
96.99998184
96.999987
96.99999045
96.99999275
96.9999943
96.99999533
96.99999602
96.98080336
96.98196327
96.9831561
96.98437028
96.9855938
96.9868144
96.9880199
96.98919844
96.99033884
96.99143085
96.99246543
96.99343498
96.9943335
96.99515676
96.9959023
96.99656943
96.99715914
96.99767391
96.99811754
96.99849486
96.99881148
96.99907351
96.99928727
96.99945911
96.99959516
96.99970118
96.99978245
96.9998437
96.99988905
96.99992204
96.99994561
96.99996217
96.99997362
96.99998141
96.99998666
96.99999018
96.99999254
96.99999411
96.99999517
96.99999587
96.98042441
96.98160742
96.98282399
96.98406235
96.98531022
96.98655512
96.98778461
96.98898661
96.99014972
96.99126347
96.99231864
96.99330747
96.99422385
96.99506345
96.99582374
96.99650403
96.9971053
96.99763012
96.99808234
96.99846691
96.99878955
96.99905651
96.99927425
96.99944926
96.99958779
96.99969573
96.99977845
96.99984079
96.99988696
96.99992053
96.99994453
96.99996138
96.99997303
96.99998097
96.99998632
96.99998991
96.99999231
96.99999392
96.999995
96.99999572
96.98003817
96.98124472
96.9824855
96.98374851
96.98502121
96.98629088
96.98754483
96.98877074
96.98995698
96.99109288
96.99216903
96.99317752
96.99411209
96.99496832
96.99574365
96.99643735
96.99705042
96.99758547
96.99804645
96.99843841
96.99876719
96.99903918
96.99926098
96.99943922
96.99958028
96.99969017
96.99977438
96.99983784
96.99988482
96.999919
96.99994341
96.99996057
96.99997243
96.99998051
96.99998597
96.99998963
96.99999208
96.99999373
96.99999483
96.99999556
96.97964449
96.98087504
96.98214051
96.98342864
96.98472666
96.98602157
96.98730045
96.98855074
96.98976056
96.99091903
96.99201656
96.99304506
96.99399817
96.99487136
96.99566201
96.99636937
96.99699447
96.99753996
96.99800987
96.99840936
96.9987444
96.99902152
96.99924747
96.99942899
96.99957263
96.99968451
96.99977024
96.99983482
96.99988264
96.99991743
96.99994228
96.99995974
96.99997182
96.99998005
96.99998561
96.99998934
96.99999184
96.99999352
96.99999465
96.9999954
96.97924321
96.98049824
96.98178888
96.98310263
96.98442645
96.98574711
96.9870514
96.98832653
96.98956037
96.99074185
96.99186116
96.99291007
96.99388206
96.99477253
96.99557879
96.99630008
96.99693743
96.99749356
96.99797257
96.99837974
96.99872118
96.99900352
96.99923369
96.99941857
96.99956484
96.99967874
96.99976601
96.99983175
96.99988042
96.99991582
96.99994112
96.99995889
96.99997119
96.99997957
96.99998524
96.99998904
96.9999916
96.99999331
96.99999447
96.99999523
96.97883418
96.98011417
96.98143048
96.98277034
96.98412048
96.98546738
96.98679758
96.98809802
96.98935636
96.99056128
96.99170279
96.99277248
96.99376372
96.9946718
96.99549397
96.99622944
96.99687929
96.99744626
96.99793456
96.99834956
96.9986975
96.99898518
96.99921965
96.99940795
96.99955689
96.99967286
96.9997617
96.99982862
96.99987816
96.99991419
96.99993993
96.99995803
96.99997054
96.99997908
96.99998485
96.99998873
96.99999134
96.9999931
96.99999427
96.99999506
96.97841725
96.97972269
96.98106517
96.98243166
96.98380863
96.98518228
96.98653889
96.98786514
96.98914844
96.99037725
96.99154139
96.99263226
96.99364311
96.99456913
96.99540751
96.99615744
96.99682002
96.99739804
96.9978958
96.99831879
96.99867337
96.99896648
96.99920534
96.99939713
96.9995488
96.99966688
96.99975731
96.99982543
96.99987585
96.99991252
96.99993872
96.99995714
96.99996988
96.99997858
96.99998446
96.99998842
96.99999108
96.99999287
96.99999408
96.99999488
96.97799224
96.97932365
96.98069281
96.98208646
96.98349078
96.9848917
96.98627524
96.9876278
96.98893655
96.99018971
96.99137689
96.99248935
96.99352019
96.99446448
96.99531938
96.99608405
96.9967596
96.99734889
96.9978563
96.99828742
96.99864877
96.99894743
96.99919076
96.9993861
96.99954055
96.99966077
96.99975284
96.99982217
96.99987349
96.99991081
96.99993748
96.99995623
96.9999692
96.99997806
96.99998405
96.99998809
96.99999081
96.99999264
96.99999387
96.99999469
96.97755902
96.97891689
96.98031326
96.9817346
96.98316681
96.98459555
96.98600653
96.98738591
96.98872059
96.98999857
96.99120925
96.99234371
96.99339491
96.99435783
96.99522956
96.99600925
96.99669802
96.99729879
96.99781603
96.99825545
96.99862369
96.99892801
96.99917589
96.99937486
96.99953215
96.99965456
96.99974828
96.99981885
96.99987109
96.99990907
96.99993622
96.9999553
96.99996851
96.99997753
96.99998364
96.99998775
96.99999053
96.9999924
96.99999366
96.9999945
96.97711739
96.97850226
96.97992638
96.98137596
96.98283661
96.98429369
96.98573266
96.98713938
96.9885005
96.98980378
96.9910384
96.99219528
96.99326723
96.99424913
96.99513801
96.995933
96.99663525
96.99724772
96.99777498
96.99822286
96.99859814
96.99890821
96.99916075
96.99936341
96.99952359
96.99964822
96.99974363
96.99981547
96.99986863
96.99990729
96.99993492
96.99995435
96.99996779
96.99997698
96.99998321
96.99998741
96.99999024
96.99999215
96.99999344
96.99999429
96.97666721
96.97807959
96.97953202
96.98101039
96.98250004
96.98398603
96.98545354
96.98688813
96.98827619
96.98960525
96.99086429
96.99204401
96.99313711
96.99413835
96.99504471
96.99585529
96.99657127
96.99719567
96.99773314
96.99818964
96.99857209
96.99888804
96.99914531
96.99935173
96.99951486
96.99964176
96.9997389
96.99981202
96.99986613
96.99990548
96.9999336
96.99995337
96.99996706
96.99997642
96.99998277
96.99998705
96.99998994
96.99999189
96.99999321
96.99999408
96.97620828
96.97764874
96.97913003
96.98063776
96.98215698
96.98367245
96.98516904
96.98663205
96.98804759
96.98940293
96.99068684
96.99188985
96.99300449
96.99402545
96.99494962
96.99577609
96.99650606
96.99714261
96.9976905
96.99815578
96.99854554
96.99886747
96.99912958
96.99933984
96.99950596
96.99963518
96.99973407
96.9998085
96.99986358
96.99990362
96.99993225
96.99995237
96.99996631
96.99997585
96.99998231
96.99998668
96.99998963
96.99999162
96.99999297
96.99999387
96.97574045
96.97720954
96.97872025
96.98025793
96.9818073
96.98335283
96.98487908
96.98637106
96.98781461
96.98919674
96.990506
96.99173274
96.99286935
96.99391039
96.99485271
96.99569537
96.9964396
96.99708854
96.99764703
96.99812127
96.99851848
96.99884652
96.99911354
96.99932771
96.9994969
96.99962847
96.99972915
96.99980492
96.99986097
96.99990173
96.99993087
96.99995135
96.99996554
96.99997525
96.99998184
96.9999863
96.99998931
96.99999135
96.99999272
96.99999364
96.97526352
96.97676181
96.97830254
96.97987075
96.98145087
96.98302705
96.98458354
96.98610506
96.98757716
96.9889866
96.9903217
96.99157263
96.99273162
96.99379313
96.99475394
96.99561311
96.99637186
96.99703343
96.99760273
96.9980861
96.9984909
96.99882516
96.9990972
96.99931536
96.99948766
96.99962163
96.99972413
96.99980126
96.99985832
96.9998998
96.99992945
96.99995031
96.99996475
96.99997465
96.99998136
96.99998591
96.99998898
96.99999106
96.99999247
96.99999341
96.97477731
96.97630538
96.97787672
96.97947607
96.98108755
96.98269498
96.98428232
96.98583395
96.98733515
96.98877243
96.99013388
96.99140946
96.99259126
96.99367363
96.99465329
96.99552927
96.99630283
96.99697725
96.99755758
96.99805025
96.99846279
96.99880338
96.99908054
96.99930276
96.99947824
96.99961466
96.99971901
96.99979752
96.9998556
96.99989782
96.99992801
96.99994923
96.99996395
96.99997402
96.99998087
96.9999855
96.99998864
96.99999077
96.9999922
96.99999316
96.97428165
96.97584008
96.97744265
96.97907376
96.98071721
96.98235651
96.98397529
96.98555763
96.98708851
96.98855417
96.98994247
96.99124317
96.99244822
96.99355185
96.99455071
96.99544382
96.99623247
96.99692001
96.99751156
96.99801371
96.99843414
96.9987812
96.99906357
96.99928993
96.99946864
96.99960755
96.99971379
96.99979372
96.99985283
96.99989581
96.99992653
96.99994814
96.99996311
96.99997338
96.99998035
96.99998508
96.99998829
96.99999046
96.99999193
96.99999291
96.97377633
96.97536574
96.97700015
96.97866364
96.9803397
96.98201151
96.98366235
96.98527599
96.98683713
96.98833172
96.98974739
96.99107371
96.99230245
96.99342774
96.99444617
96.99535675
96.99616077
96.99686166
96.99746466
96.99797648
96.99840494
96.99875858
96.99904627
96.99927685
96.99945886
96.99960031
96.99970848
96.99978984
96.99985001
96.99989374
96.99992501
96.99994701
96.99996226
96.99997272
96.99997983
96.99998465
96.99998793
96.99999015
96.99999165
96.99999265
96.97326117
96.97488217
96.97654905
96.97824558
96.9799549
96.98165985
96.98334338
96.98498894
96.98658093
96.98810502
96.98954859
96.99090101
96.99215389
96.99330127
96.99433964
96.99526801
96.9960877
96.9968022
96.99741686
96.99793852
96.99837518
96.99873553
96.99902863
96.99926351
96.99944889
96.99959292
96.99970305
96.99978588
96.99984712
96.99989164
96.99992347
96.99994586
96.99996139
96.99997204
96.99997929
96.99998421
96.99998755
96.99998982
96.99999135
96.99999237
96.97273596
96.97438918
96.97608918
96.9778194
96.97956264
96.98130138
96.98301825
96.98469637
96.9863198
96.98787396
96.98934598
96.99072501
96.99200251
96.99317238
96.99423108
96.99517758
96.99601323
96.99674161
96.99736814
96.99789984
96.99834485
96.99871204
96.99901066
96.99924992
96.99943873
96.9995854
96.99969752
96.99978184
96.99984418
96.99988949
96.99992188
96.99994468
96.99996049
96.99997134
96.99997873
96.99998375
96.99998716
96.99998948
96.99999105
96.99999209
96.9722005
96.97388659
96.97562037
96.97738495
96.97916278
96.98093599
96.98268686
96.98439817
96.98605367
96.98763848
96.98913949
96.99054565
96.99184823
96.99304104
96.99412045
96.99508542
96.99593735
96.99667985
96.9973185
96.99786042
96.99831393
96.9986881
96.99899234
96.99923607
96.99942836
96.99957772
96.99969188
96.99977771
96.99984117
96.99988729
96.99992026
96.99994347
96.99995957
96.99997062
96.99997815
96.99998328
96.99998676
96.99998913
96.99999073
96.9999918
96.97165459
96.9733742
96.97514243
96.97694206
96.97875517
96.98056353
96.98234907
96.98409422
96.98578242
96.98739849
96.98892906
96.99036286
96.99169101
96.99290719
96.99400772
96.99499151
96.99586002
96.99661692
96.9972679
96.99782025
96.99828243
96.99866369
96.99897367
96.99922195
96.9994178
96.9995699
96.99968613
96.99977351
96.9998381
96.99988504
96.99991861
96.99994223
96.99995862
96.99996988
96.99997756
96.99998279
96.99998635
96.99998877
96.9999904
96.99999149
96.97109801
96.97285181
96.97465519
96.97649056
96.97833965
96.98018387
96.98200476
96.98378442
96.98550596
96.9871539
96.9887146
96.99017658
96.9915308
96.9927708
96.99389283
96.99489582
96.99578121
96.99655279
96.99721634
96.9977793
96.99825032
96.99863882
96.99895464
96.99920756
96.99940704
96.99956192
96.99968027
96.99976922
96.99983496
96.99988275
96.99991691
96.99994096
96.99995765
96.99996912
96.99997695
96.99998228
96.99998592
96.99998839
96.99999006
96.99999117
96.97053055
96.97231923
96.97415845
96.97603028
96.97791607
96.97979685
96.9816538
96.98346865
96.98522418
96.98690461
96.98849603
96.98998674
96.99136752
96.9926318
96.99377576
96.9947983
96.9957009
96.99648743
96.9971638
96.99773758
96.99821759
96.99861348
96.99893524
96.99919289
96.99939606
96.99955379
96.99967428
96.99976484
96.99983176
96.9998804
96.99991517
96.99993966
96.99995666
96.99996834
96.99997632
96.99998176
96.99998547
96.999988
96.99998971
96.99999084
96.96995199
96.97177624
96.97365203
96.97556105
96.97748426
96.97940233
96.98129605
96.98314679
96.98493698
96.98665054
96.98827328
96.98979328
96.99120114
96.99249016
96.99365646
96.99469892
96.99561907
96.99642084
96.99711025
96.99769505
96.99818424
96.99858764
96.99891547
96.99917793
96.99938487
96.99954549
96.99966818
96.99976037
96.99982849
96.999878
96.9999134
96.99993832
96.99995563
96.99996754
96.99997568
96.99998123
96.99998501
96.99998759
96.99998934
96.9999905
96.9693621
96.97122264
96.97313573
96.97508268
96.97704407
96.97900017
96.98093139
96.98281873
96.98464426
96.98639159
96.98804627
96.98959612
96.99103158
96.99234582
96.99353489
96.99459766
96.99553568
96.99635297
96.99705569
96.99765172
96.99815025
96.99856131
96.99889532
96.99916269
96.99937346
96.99953703
96.99966196
96.99975581
96.99982516
96.99987555
96.99991158
96.99993695
96.99995458
96.99996671
96.99997501
96.99998067
96.99998454
96.99998718
96.99998896
96.99999014
96.96876066
96.97065822
96.97260935
96.97459499
96.97659532
96.97859021
96.98055967
96.98248433
96.98434591
96.98612768
96.98781491
96.9893952
96.99085879
96.99219874
96.99341101
96.99449447
96.9954507
96.99628381
96.99700008
96.99760756
96.99811562
96.99853448
96.99887479
96.99914715
96.99936183
96.99952841
96.99965561
96.99975116
96.99982175
96.99987304
96.99990972
96.99993555
96.9999535
96.99996586
96.99997432
96.9999801
96.99998405
96.99998674
96.99998857
96.99998978
96.96814743
96.97008275
96.97207269
96.97409779
96.97613784
96.97817229
96.98018076
96.98214348
96.98404181
96.98585869
96.98757911
96.98919043
96.9906827
96.99204885
96.99328478
96.99438932
96.99536411
96.99621334
96.99694342
96.99756256
96.99808032
96.99850713
96.99885385
96.99913132
96.99934998
96.99951962
96.99964913
96.99974641
96.99981826
96.99987047
96.99990781
96.99993411
96.9999524
96.99996499
96.99997361
96.99997951
96.99998354
96.99998629
96.99998816
96.99998939
96.96752217
96.96949601
96.97152554
96.9735909
96.97567146
96.97774626
96.97979451
96.98179605
96.98373185
96.98558454
96.9873388
96.98898175
96.99050325
96.99189611
96.99315614
96.99428217
96.99527587
96.99614153
96.99688568
96.9975167
96.99804434
96.99847926
96.99883252
96.99911517
96.99933789
96.99951065
96.99964252
96.99974156
96.99981471
96.99986785
96.99990586
96.99993264
96.99995126
96.99996409
96.99997288
96.9999789
96.99998302
96.99998583
96.99998773
96.99998899
96.96688464
96.96889777
96.97096769
96.97307411
96.97519599
96.97731196
96.97940078
96.9814419
96.98341592
96.98530512
96.98709388
96.98876908
96.99032039
96.99174046
96.99302506
96.99417299
96.99518596
96.99606836
96.99682684
96.99746996
96.99800768
96.99845085
96.99881077
96.99909871
96.99932556
96.9995015
96.99963578
96.99973661
96.99981107
96.99986517
96.99990386
96.99993112
96.99995009
96.99996316
96.99997213
96.99997827
96.99998247
96.99998535
96.99998729
96.99998858
96.96623459
96.96828781
96.97039892
96.97254723
96.97471127
96.97686922
96.97899942
96.98108091
96.9830939
96.98502033
96.98684427
96.98855235
96.99013403
96.99158185
96.99289149
96.99406173
96.99509435
96.9959938
96.99676689
96.99742234
96.99797032
96.9984219
96.9987886
96.99908194
96.999313
96.99949217
96.9996289
96.99973156
96.99980736
96.99986243
96.99990181
96.99992957
96.99994889
96.99996221
96.99997135
96.99997762
96.99998191
96.99998485
96.99998683
96.99998815
96.96557176
96.96766588
96.96981901
96.97201006
96.97421709
96.97641786
96.97859027