/*--------------------------------*- C++ -*----------------------------------*\
| =========                 |                                                 |
| \\      /  F ield         | OpenFOAM: The Open Source CFD Toolbox           |
|  \\    /   O peration     | Version:  v2006                                 |
|   \\  /    A nd           | Website:  www.openfoam.com                      |
|    \\/     M anipulation  |                                                 |
\*---------------------------------------------------------------------------*/
FoamFile
{
    version     2.0;
    format      ascii;
    class       volScalarField;
    location    "0.15";
    object      theta1;
}
// * * * * * * * * * * * * * * * * * * * * * * * * * * * * * * * * * * * * * //

dimensions      [0 0 0 0 0 0 0];


internalField   nonuniform List<scalar> 
168000
(
1.000225284
1.000683923
1.00115928
1.001653175
1.002172507
1.002721901
1.00329615
1.003902266
1.004590184
1.005332248
1.006127208
1.007085294
1.008180199
1.009376871
1.010972904
1.012806237
1.014971302
1.017990378
1.021352132
1.026321654
1.032153537
1.040483895
1.050930694
1.065963818
1.085167419
1.114294644
1.150261804
1.210442504
1.288925196
1.406934601
1.587864361
1.835702684
2.217518897
2.803503602
3.628629351
4.775603854
6.40936721
8.676934835
11.63521555
15.40595015
1.000230259
1.000699039
1.001185076
1.001690547
1.002219876
1.002777151
1.003364268
1.003990576
1.004681153
1.005434214
1.006261887
1.007224691
1.008329676
1.009591178
1.011174645
1.013046053
1.015309827
1.018293223
1.021855405
1.026776892
1.032855751
1.041219042
1.052018437
1.067139585
1.087047059
1.116142907
1.153986166
1.214001375
1.29485066
1.415418377
1.59773574
1.852479147
2.241812894
2.83344318
3.670007248
4.837932716
6.493937947
8.778648808
11.76130613
15.5604867
1.000235277
1.000714285
1.001210962
1.001727442
1.002267285
1.002834712
1.003434454
1.004075975
1.004775699
1.005542201
1.006392873
1.007368185
1.008490738
1.00979505
1.011388682
1.013298637
1.015634368
1.018631868
1.022332481
1.027274281
1.033542237
1.041998352
1.053091879
1.068390478
1.088881652
1.118191112
1.157554005
1.217823058
1.300838807
1.423886747
1.6081553
1.869424124
2.266133011
2.864147015
3.71258324
4.900862767
6.578673073
8.881662312
11.88868715
15.71615689
1.000240335
1.000729634
1.001236957
1.001764367
1.002315145
1.002893711
1.003505939
1.004161128
1.004872787
1.005653808
1.006523774
1.007515322
1.00865852
1.009996258
1.011611179
1.013560099
1.015955538
1.018991683
1.022800101
1.027798831
1.034226405
1.042809435
1.054166384
1.069696822
1.090705202
1.120383913
1.16103671
1.221853761
1.30690238
1.43239325
1.619047583
1.886560201
2.290558886
2.895594532
3.756268562
4.964411974
6.663715664
8.985893311
12.01734631
15.87300912
1.000245436
1.000745109
1.001263144
1.001801573
1.002363603
1.00295381
1.003578558
1.004247074
1.004971988
1.005768125
1.006656128
1.007665814
1.008831038
1.010198406
1.011840286
1.013828658
1.016278444
1.019365537
1.023266992
1.028342764
1.034915575
1.04364563
1.055250929
1.071047471
1.092538303
1.122686141
1.16448278
1.226056556
1.313051869
1.44097741
1.63035579
1.903907146
2.315156176
2.927767642
3.800989084
5.028600802
6.749178785
9.091286611
12.14728357
16.03107904
1.000250591
1.000760743
1.001289603
1.001839196
1.002412733
1.003014903
1.003652317
1.004334236
1.005073136
1.005884823
1.0067906
1.007819506
1.00900752
1.01040319
1.012075114
1.014103519
1.016605562
1.019750016
1.023737766
1.028902097
1.035613805
1.044503444
1.056350853
1.072436233
1.094393411
1.125075634
1.167925321
1.230406254
1.319296092
1.449668452
1.642037374
1.921482528
2.339978916
2.960650304
3.846686485
5.093454157
6.835159984
9.19781916
12.27848882
16.19039015
1.000255808
1.000776569
1.001316394
1.00187732
1.002462588
1.00307698
1.003727265
1.004422807
1.005176184
1.006003802
1.006927489
1.007976335
1.009187698
1.010611428
1.012315252
1.014384348
1.016938118
1.020143535
1.024214916
1.02947485
1.036323409
1.045381137
1.057469418
1.073859777
1.096278078
1.127538598
1.1713871
1.234885854
1.325642584
1.458488075
1.654060696
1.939302176
2.365071334
2.994227538
3.893318048
5.158995284
6.92173405
9.305469864
12.41095133
16.35096378
1.000261097
1.000792616
1.001343565
1.001916004
1.002513215
1.003140067
1.003803458
1.004512889
1.005281137
1.006125053
1.007066946
1.008136294
1.009371509
1.010823539
1.012560525
1.014671026
1.017276748
1.020545414
1.024699844
1.030060101
1.03704577
1.046277934
1.058608705
1.075316422
1.098196937
1.130066626
1.174883937
1.239484077
1.332097872
1.467452524
1.666402464
1.957380529
2.39046922
3.0284876
3.940850514
5.225241645
7.008959572
9.414225718
12.54466143
16.51280958
1.000266466
1.000808905
1.001371152
1.001955293
1.002564661
1.003204206
1.003880949
1.004604553
1.005388023
1.0062486
1.007209059
1.008299408
1.009558971
1.01103975
1.012810879
1.014963544
1.017621814
1.020955414
1.025193386
1.030657486
1.037781774
1.047193595
1.059770117
1.076805434
1.100152892
1.132654766
1.17842698
1.244193657
1.338667682
1.476574102
1.679045754
1.975730725
2.416204599
3.063421835
3.989253858
5.292209543
7.096892265
9.524079944
12.67960927
16.67593411
1.00027192
1.000825454
1.001399184
1.001995225
1.002616965
1.003269438
1.00395979
1.004697855
1.005496884
1.006374483
1.007353896
1.008465718
1.009750135
1.011260208
1.013066326
1.015261943
1.017973552
1.021373516
1.025696089
1.031266943
1.038532048
1.048128176
1.060954668
1.078326619
1.102147852
1.135300287
1.182024239
1.249010141
1.345357104
1.485862295
1.691978456
1.994364698
2.442305226
3.099020499
4.038505739
5.359925955
7.185582482
9.635017811
12.81578558
16.8403415
1.000277465
1.000842281
1.001427687
1.002035834
1.002670167
1.003335807
1.004040028
1.004792846
1.005607765
1.006502748
1.007501515
1.008635276
1.009945063
1.011485018
1.013326908
1.015566294
1.018332143
1.021799805
1.026208346
1.031888565
1.03929708
1.049081895
1.062163151
1.0798801
1.10418316
1.13800188
1.185681623
1.253931052
1.352170719
1.495324604
1.705192007
2.013293897
2.46879509
3.135279087
4.088592525
5.428411005
7.275065057
9.747026568
12.95317942
17.00603229
1.000283106
1.000859396
1.001456682
1.002077149
1.002724302
1.003403354
1.004121711
1.004889575
1.005720713
1.006633446
1.007651973
1.008808139
1.010143823
1.01171427
1.013592691
1.015876685
1.018697744
1.02223442
1.026730476
1.032522534
1.040077289
1.050055061
1.06339623
1.08146618
1.106259854
1.14075915
1.18940363
1.258955309
1.359112704
1.504967123
1.718681313
2.032529677
2.495694291
3.1721956
4.139502399
5.497681684
7.365369076
9.860093531
13.09178737
17.1730146
1.000288846
1.000876814
1.00148619
1.002119198
1.002779404
1.003472118
1.004204882
1.004988091
1.005835778
1.006766628
1.007805329
1.008984369
1.010346486
1.011948048
1.013863752
1.016193214
1.019070506
1.022677525
1.027262756
1.033169079
1.040873057
1.051048032
1.064654499
1.083085276
1.108378816
1.143572289
1.193193818
1.26408281
1.366186921
1.514795008
1.732443902
2.052082608
2.523020071
3.209769116
4.191226332
5.567753545
7.456516768
9.974213321
13.23162107
17.3412935
1.000294688
1.000894544
1.001516228
1.002162004
1.002835505
1.003542136
1.004289584
1.00508844
1.005953009
1.006902348
1.00796164
1.009164028
1.010553122
1.012186435
1.014140177
1.016515989
1.019450575
1.023129298
1.027805443
1.033828455
1.041684749
1.052061196
1.065938512
1.084737875
1.110540858
1.146441865
1.197055117
1.269314152
1.37339699
1.524812789
1.746479034
2.07196259
2.550787675
3.247999674
4.24375806
5.638640939
7.54852385
10.08939372
13.37268681
17.51086086
1.000300637
1.000912597
1.001546814
1.002205594
1.002892635
1.003613446
1.004375859
1.005190668
1.006072458
1.007040662
1.008120966
1.009347184
1.010763807
1.012429516
1.014422059
1.016845125
1.019838103
1.023589925
1.028358787
1.034500933
1.042512723
1.053094957
1.067248803
1.086424513
1.112746773
1.149368697
1.200990048
1.274650423
1.380746344
1.535024595
1.76078735
2.092179104
2.579010719
3.286888151
4.29709332
5.710356195
7.641412853
10.2056476
13.51497778
17.6817086
1.000306696
1.000930983
1.001577964
1.002249988
1.002950824
1.003686083
1.004463747
1.005294822
1.006194174
1.007181624
1.008283368
1.009533902
1.010978616
1.012677375
1.014709495
1.01718074
1.020233242
1.024059596
1.028923031
1.035186794
1.043357336
1.054149731
1.068585897
1.088145764
1.114997361
1.152353763
1.205000858
1.280093064
1.388238286
1.54543431
1.775370572
2.112741252
2.607701501
3.326436114
4.351229229
5.782909864
7.735205539
10.3229802
13.65848479
17.85382588
1.000312868
1.00094971
1.001609695
1.002295211
1.003010099
1.003760081
1.004553291
1.005400947
1.006318211
1.007325291
1.00844891
1.009724253
1.011197627
1.012930102
1.015002588
1.017522959
1.020636148
1.024538508
1.029498423
1.035886327
1.044218946
1.055225943
1.069950322
1.089902232
1.117293442
1.15539815
1.209089624
1.285643775
1.395876023
1.556045685
1.790231273
2.133657808
2.636871252
3.366645709
4.406163668
5.856310213
7.829920087
10.44139479
13.80319815
18.02720575
1.000319155
1.00096879
1.00164202
1.002341283
1.00307049
1.003835475
1.004644529
1.005509091
1.006444618
1.007471721
1.008617654
1.009918309
1.011420921
1.013187789
1.015301445
1.017871912
1.021046982
1.025026858
1.030085206
1.036599825
1.045097912
1.056324026
1.071342608
1.091694546
1.119635862
1.158503025
1.213258314
1.291304438
1.4036627
1.566862421
1.805372694
2.154937261
2.666530347
3.40751959
4.461894599
5.930562089
7.925571319
10.56089444
13.94910788
18.20184957
1.000325561
1.000988229
1.001674956
1.002388225
1.003132024
1.003912299
1.004737502
1.005619298
1.006573448
1.007620972
1.008789666
1.010116141
1.01164858
1.013450531
1.015606177
1.018227731
1.021465907
1.025524849
1.030683629
1.037327587
1.045994599
1.057444419
1.072763292
1.093523362
1.122025498
1.161669609
1.217508832
1.297077077
1.411601431
1.577888215
1.820798608
2.176587854
2.696688479
3.449060985
4.518419349
6.005665241
8.022173191
10.68148108
14.0962182
18.37776418
1.000332089
1.001008038
1.001708518
1.002436059
1.003194728
1.003990585
1.00483225
1.005731615
1.006704754
1.007773103
1.008965013
1.010317826
1.011880689
1.013718425
1.015916897
1.018590554
1.02189309
1.026032685
1.031293943
1.038069917
1.046909377
1.058587569
1.074212925
1.095389358
1.124463256
1.164899167
1.221843049
1.302963826
1.419695318
1.589126804
1.836513205
2.198617617
2.727354814
3.49127386
4.575734575
6.081626592
8.119747308
10.80316315
14.24453793
18.55493964
1.000338741
1.001028224
1.00174272
1.002484806
1.003258629
1.004070368
1.004928813
1.005846089
1.006838589
1.007928175
1.009143763
1.010523439
1.012117337
1.013991572
1.016233725
1.018960521
1.022328704
1.026550575
1.031916404
1.038827123
1.047842619
1.059753931
1.075692064
1.097293238
1.126950073
1.168193002
1.226262821
1.3089669
1.427947467
1.600581984
1.852521015
2.221034394
2.758538074
3.534162287
4.633846585
6.158466299
8.21830452
10.92594206
14.39407092
18.73336076
1.000345521
1.001048798
1.001777577
1.002534487
1.003323755
1.004151682
1.00502723
1.005962766
1.006975008
1.00808625
1.009325985
1.010733061
1.012358611
1.014270076
1.016556782
1.019337777
1.022772921
1.027078733
1.032551269
1.039599517
1.048794706
1.060943969
1.077201285
1.099235723
1.129486913
1.171552446
1.230770006
1.315088588
1.436361006
1.612257624
1.868826831
2.243845863
2.79024662
3.577730953
4.69276178
6.236196213
8.317845761
11.04982135
14.54481884
18.91302174
1.000352431
1.001069766
1.001813104
1.002585123
1.003390133
1.00423456
1.005127543
1.006081695
1.007114063
1.008247388
1.009511749
1.01094677
1.012604605
1.014554043
1.016886191
1.019722471
1.023225922
1.027617373
1.033198799
1.040387416
1.049766024
1.062158154
1.078741171
1.10121756
1.132074771
1.174978862
1.235366475
1.321331242
1.444939091
1.624157673
1.885435657
2.267059549
2.822488512
3.621984902
4.752486569
6.31482781
8.418376133
11.17481137
14.69677927
19.09392109
1.000359475
1.00109114
1.001849316
1.002636735
1.003457791
1.004319036
1.005229793
1.006202922
1.007255812
1.008411654
1.009701129
1.01116465
1.012855414
1.014843582
1.017222082
1.020114755
1.023687887
1.028166716
1.033859263
1.041191144
1.050756965
1.063396969
1.080312324
1.103239516
1.134714665
1.178473642
1.240054114
1.327697267
1.453684917
1.636286163
1.902352657
2.290682821
2.85527151
3.666929315
4.813027181
6.394371431
8.519907882
11.3009178
14.84994461
19.27605923
1.000366655
1.001112926
1.001886228
1.002689344
1.003526756
1.004405146
1.005334021
1.006326497
1.00740031
1.008579113
1.009894197
1.011386784
1.013111133
1.015138805
1.017564585
1.020514782
1.024159004
1.028726986
1.034532929
1.04201103
1.05176793
1.064660906
1.081915358
1.10530238
1.137407643
1.182038204
1.244834832
1.33418912
1.462601722
1.648647201
1.919583117
2.314722867
2.888603044
3.712569227
4.874389338
6.474836899
8.62245121
11.42813846
15.00430938
19.45943588
1.000373974
1.001135135
1.001923855
1.002742972
1.003597057
1.004492923
1.005440268
1.006452469
1.007547615
1.00874983
1.01009103
1.01161326
1.013371862
1.015439828
1.017913834
1.020922713
1.024639461
1.029298411
1.035220074
1.042847405
1.052799325
1.065950466
1.083550904
1.107406962
1.140154778
1.185673997
1.249710567
1.340809308
1.471692788
1.661244959
1.937132391
2.339186646
2.922490138
3.758909102
4.936577749
6.5562335
8.726014563
11.5564703
15.15987923
19.64404944
1.000381436
1.001157776
1.001962213
1.002797641
1.003668721
1.004582404
1.005548578
1.006580889
1.007697784
1.008923872
1.010291704
1.011844164
1.013637702
1.015746767
1.018269967
1.02133871
1.025129451
1.029881223
1.035920978
1.043700612
1.053851567
1.067266162
1.085219605
1.109554092
1.142957169
1.189382494
1.254683284
1.347560385
1.480961444
1.674083657
1.955005857
2.364080766
2.956939294
3.805952265
4.999594346
6.63857012
8.83060323
11.68592308
15.31666145
19.82989831
1.000389042
1.001180857
1.002001317
1.002853373
1.003741779
1.004673624
1.005658994
1.006711806
1.007850878
1.009101307
1.010496297
1.012079588
1.013908758
1.016059743
1.018633124
1.021762938
1.025629173
1.030475658
1.036635926
1.044570995
1.054925079
1.068608519
1.086922124
1.111744622
1.145815942
1.1931652
1.259754982
1.354444951
1.490411064
1.687167517
1.97320887
2.389411289
2.991956008
3.85370018
5.063446469
6.721855826
8.936218858
11.8165057
15.47465419
20.01697731
1.000396797
1.001204388
1.002041182
1.00291019
1.003816259
1.00476662
1.00577156
1.006845274
1.008006956
1.009282206
1.01070489
1.012319623
1.014185134
1.016378878
1.019003449
1.022195566
1.026138827
1.031081957
1.037365209
1.045458907
1.056020292
1.069978073
1.088659135
1.113979426
1.148732246
1.197023648
1.264927692
1.361465655
1.500045068
1.700500702
1.991746639
2.41518338
3.027546433
3.902163273
5.128145519
6.806087522
9.042864206
11.94822631
15.63385794
20.20528348
1.000404704
1.001228378
1.002081826
1.002968116
1.003892192
1.004861429
1.00588632
1.006981344
1.00816608
1.009466639
1.010917564
1.012564363
1.01446694
1.016704299
1.019381089
1.022636768
1.026658618
1.031700366
1.038109122
1.046364709
1.057137648
1.071375371
1.090431333
1.116259398
1.15170726
1.200959401
1.270203481
1.368625193
1.509866944
1.714087172
2.010624539
2.441404655
3.063718229
3.951348125
5.19369658
6.891265329
9.150547898
12.08109428
15.7942797
20.39481217
1.000412765
1.001252838
1.002123264
1.003027172
1.003969606
1.004958088
1.006003319
1.007120072
1.008328313
1.009654678
1.011134403
1.012813905
1.014754286
1.017036134
1.019766193
1.02308672
1.027188756
1.032331136
1.038867967
1.047288765
1.058277595
1.072800973
1.092239426
1.118585453
1.154742185
1.204974053
1.275584454
1.375926312
1.519880236
1.727931335
2.029848661
2.468082791
3.100476785
4.001258546
5.260104448
6.977394188
9.259285923
12.21511447
15.95591716
20.58556392
1.000420985
1.001277776
1.002165513
1.003087384
1.004048535
1.005056636
1.006122606
1.00726151
1.008493719
1.009846399
1.011355492
1.013068345
1.015047285
1.017374513
1.020158915
1.023545601
1.027729454
1.03297452
1.039642051
1.04823145
1.059440595
1.074255451
1.094084139
1.120958527
1.15783825
1.209069228
1.281072755
1.38337181
1.530088558
1.742038047
2.049425109
2.495224951
3.137825639
4.051902565
5.327373373
7.064483165
9.369095404
12.35028362
16.11876829
20.7775461
1.000429366
1.001303204
1.00220859
1.003148775
1.004129007
1.005157112
1.006244226
1.007405717
1.008662362
1.010041876
1.011580918
1.013327785
1.015346053
1.017719572
1.02055941
1.024013596
1.028280931
1.03363078
1.040431688
1.049193145
1.060627114
1.075739392
1.095966215
1.12337958
1.160996712
1.213246585
1.286670565
1.39096454
1.540495616
1.756412214
2.06935983
2.522838153
3.175773959
4.103291101
5.395509173
7.152547381
9.479983479
12.4866038
16.28283772
20.97075643
1.000437911
1.001329131
1.002252511
1.00321137
1.004211057
1.005259556
1.006368227
1.007552747
1.00883431
1.010241185
1.011810769
1.013592327
1.015650708
1.018071446
1.02096784
1.024490892
1.028843407
1.034300181
1.041237198
1.05017424
1.061837634
1.077253393
1.097886414
1.125849593
1.164218854
1.217507813
1.29238011
1.398707412
1.551105197
1.771058822
2.089658925
2.550929611
3.214330512
4.155431057
5.464520412
7.241595592
9.591952826
12.62408011
16.44812516
21.16519319
1.000446624
1.001355567
1.002297296
1.003275193
1.004294716
1.005364009
1.00649466
1.00770266
1.00900963
1.010444407
1.012045137
1.013862075
1.015961371
1.018430276
1.021384365
1.02497768
1.029417109
1.034982993
1.042058906
1.051175131
1.063072643
1.078798066
1.099845512
1.128369566
1.167505985
1.221854637
1.298203658
1.406603394
1.561921169
1.785982908
2.110328578
2.57950664
3.253503844
4.208329873
5.534415027
7.331633534
9.705004706
12.76271624
16.61463328
21.3608489
1.000455509
1.001382524
1.002342961
1.003340269
1.004380018
1.005470512
1.006623573
1.007855515
1.009188392
1.010651621
1.012284114
1.014137135
1.016278163
1.018796203
1.021809153
1.025474156
1.030002269
1.035679491
1.042897146
1.052196223
1.064332641
1.080374037
1.101844305
1.130940527
1.170859444
1.226288816
1.304143521
1.414655512
1.572947473
1.801189575
2.131375063
2.608576638
3.293302352
4.261994946
5.605200365
7.422665635
9.819138062
12.90251436
16.78236472
21.55772685
1.000464569
1.001410011
1.002389524
1.003406626
1.004466996
1.005579107
1.006755018
1.008011371
1.009370665
1.010862908
1.012527794
1.014417617
1.016601212
1.019169374
1.022242374
1.025980518
1.030599123
1.036389959
1.043752256
1.053237932
1.06561814
1.081981945
1.103883605
1.133563521
1.174280599
1.230812144
1.310202056
1.422866853
1.584188129
1.816683995
2.152804742
2.638147065
3.333734278
4.316433492
5.676883205
7.514694516
9.934347932
13.04347892
16.95132232
21.75582947
1.000473808
1.001438041
1.002437005
1.003474289
1.004555685
1.005689837
1.006889047
1.008170292
1.009556523
1.011078352
1.012776273
1.014703631
1.016930646
1.019549938
1.0226842
1.026496971
1.031207911
1.037114683
1.044624584
1.054300679
1.066929662
1.083622444
1.105964244
1.136239622
1.177770845
1.235426452
1.316381667
1.431240562
1.595647228
1.832471412
2.174624053
2.668225424
3.374807692
4.371652369
5.749469817
7.607720192
10.05063533
13.18562347
17.12151121
21.9551609
1.000483229
1.001466624
1.002485423
1.003543286
1.004646121
1.005802747
1.007025713
1.008332339
1.009746038
1.011298039
1.013029651
1.014995291
1.017266594
1.019938045
1.023134809
1.027023722
1.031828879
1.037853956
1.045514484
1.055384897
1.068267739
1.085296203
1.10808707
1.138969923
1.181331608
1.240133609
1.322684806
1.439779845
1.607328935
1.848557144
2.196839512
2.698819249
3.416530479
4.427657786
5.822965315
7.701746497
10.16801833
13.32896031
17.29293476
22.15572169
1.000492837
1.001495771
1.002534796
1.003613643
1.00473834
1.005917881
1.007165071
1.008497577
1.009939286
1.011522055
1.013288026
1.015292713
1.017609191
1.020333851
1.023594381
1.027560982
1.032462276
1.038608079
1.046422317
1.056491026
1.069632917
1.087003905
1.110252952
1.141755543
1.184964344
1.244935522
1.329113971
1.448487971
1.619237487
1.864946579
2.2194577
2.729936091
3.458910337
4.484454859
5.897372816
7.796784733
10.28651095
13.47348873
17.46559342
22.35750529
1.000502635
1.001525495
1.002585144
1.003685389
1.004832378
1.006035285
1.007307175
1.008666071
1.010136343
1.011750489
1.013551502
1.015596014
1.017958574
1.020737514
1.024063099
1.028108968
1.03310836
1.039377355
1.047348451
1.057619517
1.071025754
1.088746249
1.11246278
1.144597626
1.18867054
1.249834134
1.335671711
1.457368267
1.631377191
1.881645178
2.242485266
2.761583517
3.50195486
4.542047029
5.97269202
7.892844914
10.40612067
13.61920836
17.63948519
22.56051043
1.000512627
1.001555807
1.002636489
1.003758553
1.004928272
1.006155006
1.007452082
1.008837889
1.010337287
1.011983432
1.013820183
1.015905315
1.01831488
1.021149195
1.024541153
1.0286679
1.033767391
1.040162098
1.048293263
1.05877083
1.072446819
1.090523948
1.11471746
1.147497339
1.192451714
1.254831432
1.342360624
1.46642412
1.64375242
1.898658465
2.26592891
2.793769117
3.545671791
4.600435352
6.048924287
7.989935222
10.5268552
13.76611787
17.8146082
22.76473629
1.000522817
1.00158672
1.00268885
1.003833164
1.005026062
1.006277092
1.00759985
1.009013098
1.010542198
1.012220976
1.014094177
1.01622074
1.018678253
1.021569058
1.025028733
1.029238003
1.034439636
1.040962626
1.049257138
1.059945436
1.073896694
1.092337733
1.11701792
1.150455877
1.196309417
1.259929439
1.349183357
1.475658977
1.65636761
1.915992023
2.289795376
2.826500476
3.590068749
4.659626898
6.126073953
8.088065085
10.64872339
13.91421397
17.99095985
22.97018249
1.000533209
1.001618246
1.002742248
1.003909252
1.005125785
1.006401591
1.007750538
1.009191768
1.010751157
1.012463216
1.014373591
1.016542413
1.019048838
1.021997273
1.025526036
1.029819508
1.035125366
1.041779263
1.050240469
1.061143814
1.075375973
1.094188351
1.119365109
1.15347446
1.200245232
1.265130223
1.35614261
1.485076343
1.669227249
1.933651474
2.314091425
2.859785137
3.635153355
4.719631516
6.204153642
8.187245253
10.77171988
14.06349779
18.16854368
23.17685567
1.000543808
1.001650397
1.002796705
1.003986848
1.005227483
1.006528552
1.007904205
1.009373971
1.010964249
1.012710247
1.014658537
1.016870463
1.019426782
1.02243401
1.026033262
1.030412648
1.03582486
1.042612343
1.051243658
1.062366455
1.076885265
1.096076563
1.121759996
1.156554334
1.204260775
1.270435892
1.363241131
1.494679775
1.682335856
1.951642453
2.338823805
2.893630536
3.680933298
4.780458514
6.283173897
8.287476798
10.89584128
14.21398589
18.34736981
23.38475812
1.000554618
1.001683188
1.002852242
1.004065982
1.005331196
1.006658027
1.008060913
1.009559778
1.011181556
1.012962169
1.014949128
1.017205022
1.019812236
1.022879444
1.026550614
1.031017664
1.036538402
1.043462205
1.052267114
1.063613862
1.078425191
1.09800315
1.124203572
1.159696771
1.208357697
1.275848594
1.370481718
1.504472878
1.695697948
1.969970551
2.363999191
2.928043873
3.727416135
4.842116603
6.363144965
8.388758216
11.02109173
14.36569169
18.52743476
23.59388473
1.000565642
1.00171663
1.002908883
1.004146686
1.005436965
1.006790068
1.008220725
1.009749264
1.011403167
1.013219081
1.015245481
1.017546221
1.020205355
1.023333754
1.027078302
1.031634801
1.03726628
1.044329194
1.053311256
1.064886546
1.079996386
1.099968908
1.12669685
1.162903073
1.212537684
1.281370524
1.377867221
1.514459307
1.709317965
1.988641159
2.389624092
2.963031863
3.774609054
4.904613546
6.444077105
8.491088222
11.14748422
14.51862193
18.70873453
23.80422821
1.000576886
1.001750738
1.00296665
1.004228993
1.005544833
1.006924727
1.008383704
1.009942505
1.011629168
1.013481086
1.015547713
1.017894199
1.020606296
1.023797123
1.027616537
1.032264307
1.038008791
1.045213664
1.054376513
1.066185032
1.081599499
1.101974652
1.129240865
1.166174569
1.216802455
1.287003919
1.385400544
1.52464278
1.723200157
2.007659699
2.415704754
2.998599886
3.822518598
4.967955002
6.525980285
8.594477056
11.27503026
14.67277169
18.89126475
24.01577756
1.000588355
1.001785525
1.003025566
1.004312936
1.005654843
1.007062058
1.008549916
1.010139578
1.011859652
1.013748288
1.015855946
1.018249093
1.021015221
1.024269738
1.028165537
1.032906438
1.038766237
1.046115978
1.055463321
1.067509854
1.083235194
1.104021215
1.131836673
1.169512616
1.221153767
1.292751059
1.393084643
1.535027082
1.737349018
2.027032321
2.442246154
3.034755173
3.871150479
5.032147736
6.608865748
8.698932617
11.40373113
14.82813618
19.07501982
24.22856305
1.000600052
1.001821005
1.003085656
1.004398549
1.00576704
1.007202117
1.008719427
1.010340561
1.012094709
1.014020795
1.016170303
1.018611046
1.021432292
1.024751787
1.028725524
1.033561455
1.039538927
1.047036505
1.056572127
1.06886156
1.084904148
1.106109448
1.134485356
1.1729186
1.225593413
1.298614273
1.400922531
1.545616062
1.751769684
2.046765267
2.469255596
3.071506508
3.920509098
5.097203674
6.692740024
8.804461102
11.53358778
14.98471092
19.26001245
24.44258728
1.000611983
1.001857193
1.003146943
1.004485867
1.005881469
1.00734496
1.008892305
1.010545535
1.012334434
1.014298716
1.016490909
1.018980204
1.021857678
1.025243466
1.029296725
1.034229623
1.040327175
1.04797562
1.057703387
1.070240709
1.086607054
1.10824022
1.137188018
1.176393939
1.230123224
1.304595934
1.408917282
1.556413662
1.766467295
2.066864528
2.496740341
3.108859649
3.970601565
5.16313369
6.777602947
8.91106683
11.66459963
15.14250571
19.44625604
24.65783397
1.000624152
1.001894104
1.003209453
1.004574925
1.005998175
1.007490644
1.00906862
1.010754583
1.012578922
1.014582161
1.016817893
1.019356714
1.02229155
1.025744973
1.02987937
1.034911214
1.041131304
1.048933711
1.058857569
1.071647872
1.088344621
1.110414421
1.139945788
1.17994008
1.234745069
1.310698466
1.417072028
1.567423904
1.781446986
2.087336209
2.524707665
3.146819273
4.021435009
5.229946329
6.86345134
9.018751622
11.79677948
15.30153394
19.63374915
24.87428448
1.000636565
1.001931753
1.00327321
1.004665758
1.006117207
1.007639228
1.009248442
1.010967788
1.012828273
1.014871244
1.017151386
1.019740728
1.022734083
1.026256511
1.030473695
1.035606506
1.041951642
1.049911171
1.060035149
1.073083632
1.090117573
1.112632958
1.142759819
1.183558499
1.239460856
1.316924338
1.425389964
1.578650894
1.796714021
2.108186594
2.553164896
3.185391581
4.073020002
5.297647472
6.95028019
9.12752633
11.93013845
15.46180072
19.82248564
25.09196312
1.000649227
1.001970155
1.003338242
1.004758405
1.006238612
1.007790772
1.009431845
1.011185236
1.013082586
1.015166082
1.017491522
1.0201324
1.023185454
1.026778286
1.031079943
1.036315781
1.042788525
1.050908401
1.061236614
1.074548588
1.09192665
1.114896761
1.145631288
1.187250707
1.244272531
1.323276073
1.433874349
1.590098819
1.812273723
2.129422064
2.582119399
3.224586166
4.125367228
5.366236332
7.038098496
9.237403783
12.06467925
15.62331338
20.01246411
25.31088918
1.000662142
1.002009325
1.003404574
1.004852902
1.006362439
1.007945337
1.009618901
1.011407015
1.013341963
1.015466793
1.017838439
1.020531888
1.023645847
1.027310509
1.031698359
1.03703933
1.043642297
1.051925814
1.062462462
1.076043348
1.093772608
1.117206779
1.148561401
1.191018246
1.249182084
1.329756242
1.442528507
1.601771942
1.828131479
2.151049105
2.611578739
3.26441231
4.178484898
5.435716428
7.12692116
9.348389872
12.20041103
15.78607281
20.20369439
25.53104723
1.000675316
1.002049281
1.003472233
1.004949288
1.006488739
1.008102986
1.009809687
1.011633214
1.013606509
1.015773498
1.018192275
1.020939353
1.024115447
1.027853397
1.032329195
1.037777448
1.044513309
1.052963829
1.063713201
1.077568535
1.09565622
1.119563981
1.151551387
1.19486269
1.254191544
1.33636747
1.451355825
1.613674603
1.844292749
2.173074306
2.641550622
3.304879109
4.232381278
5.506098139
7.216761004
9.460491169
12.33733676
15.95007582
20.39618581
25.75241192
1.000688755
1.002090037
1.003541247
1.005047602
1.006617563
1.008263783
1.01000428
1.011863924
1.01387633
1.016086321
1.018553173
1.02135496
1.024594443
1.028407169
1.032972708
1.038530438
1.045401918
1.054022875
1.064989351
1.079124788
1.097578277
1.121969358
1.154602503
1.198785649
1.259302984
1.343112434
1.460359755
1.625811215
1.860763075
2.195504364
2.672042862
3.345995531
4.287064753
5.577390924
7.307625203
9.573713289
12.47545245
16.11532561
20.58994156
25.97500035
1.000702464
1.002131612
1.003611645
1.005147885
1.006748964
1.008427793
1.010202758
1.012099238
1.014151535
1.016405387
1.018921279
1.021778875
1.025083032
1.028972051
1.03362916
1.039298607
1.04630849
1.055103391
1.066291445
1.080712758
1.099539585
1.124423925
1.157716035
1.202788764
1.264518518
1.349993864
1.469543814
1.63818627
1.877548078
2.218346073
2.703063366
3.387770425
4.3425436
5.649603442
7.399520332
9.688060111
12.61476302
16.28183238
20.78495632
26.19884456
1.000716448
1.002174022
1.003683456
1.005250177
1.006882995
1.008595082
1.010405202
1.012339252
1.014432236
1.016730826
1.019296742
1.022211272
1.025581409
1.029548273
1.03429882
1.040082272
1.047233401
1.056205826
1.067620024
1.08233311
1.101540971
1.126928716
1.160893293
1.206873716
1.269840306
1.357014544
1.478911584
1.650804331
1.894653459
2.241606323
2.734620102
3.430212499
4.398825785
5.722743487
7.492451519
9.803533615
12.75527661
16.44960073
20.98123598
26.42393217
1.000730714
1.002217284
1.003756708
1.005354521
1.007019711
1.008765719
1.010611695
1.012584064
1.014718547
1.01706277
1.019679714
1.022652326
1.026089778
1.030136069
1.034981962
1.040881754
1.048177031
1.057330637
1.068975645
1.083986524
1.103583279
1.12948479
1.164135619
1.211042216
1.275270551
1.364177314
1.488466709
1.663670031
1.912084994
2.265292088
2.766721084
3.4733303
4.455918714
5.79681782
7.586422106
9.920132738
12.89700052
16.6186339
21.17879212
26.65023381
1.000745267
1.002261417
1.003831432
1.005460959
1.007159167
1.008939774
1.010822319
1.012833771
1.015010582
1.017401353
1.02007035
1.023102214
1.026608347
1.03073568
1.035678866
1.041697383
1.049139773
1.058478293
1.070358874
1.085673696
1.10566737
1.132093228
1.167444384
1.215296016
1.280811501
1.371485067
1.498212898
1.676788063
1.929848523
2.28941042
2.799374345
3.517132189
4.513828853
5.87183201
7.681433335
10.03785598
13.0399447
16.78894082
21.37762531
26.87776856
1.000760114
1.002306439
1.003907659
1.005569535
1.007301422
1.009117317
1.011037162
1.013088477