/*--------------------------------*- C++ -*----------------------------------*\
| =========                 |                                                 |
| \\      /  F ield         | OpenFOAM: The Open Source CFD Toolbox           |
|  \\    /   O peration     | Version:  v2006                                 |
|   \\  /    A nd           | Website:  www.openfoam.com                      |
|    \\/     M anipulation  |                                                 |
\*---------------------------------------------------------------------------*/
FoamFile
{
    version     2.0;
    format      ascii;
    class       volScalarField;
    location    "0.1";
    object      C2H3;
}
// * * * * * * * * * * * * * * * * * * * * * * * * * * * * * * * * * * * * * //

dimensions      [0 0 0 0 0 0 0];


internalField   nonuniform List<scalar> 
72000
(
6.684381963e-28
6.687797736e-28
6.694455512e-28
6.704072373e-28
6.716340034e-28
6.730954892e-28
6.747625069e-28
6.766090136e-28
6.786112998e-28
6.807489273e-28
6.830034818e-28
6.853597696e-28
6.878047695e-28
6.903273057e-28
6.929182345e-28
6.955699583e-28
6.982760374e-28
7.010317368e-28
7.038331689e-28
7.066771439e-28
7.095616815e-28
7.124859211e-28
7.154480027e-28
7.184469779e-28
7.214825098e-28
7.245539131e-28
7.276608363e-28
7.308042674e-28
7.339854362e-28
7.37205882e-28
7.40466981e-28
7.43770078e-28
7.471164291e-28
7.5050702e-28
7.539434783e-28
7.574274648e-28
7.609605108e-28
7.645441429e-28
7.681804767e-28
7.718713613e-28
7.75618579e-28
7.79424066e-28
7.832895237e-28
7.872170772e-28
7.912085195e-28
7.95265791e-28
7.993906949e-28
8.035851218e-28
8.078502836e-28
8.121869735e-28
8.166157291e-28
8.211309004e-28
8.257257811e-28
8.30403855e-28
8.35168532e-28
8.400226479e-28
8.449686473e-28
8.500095032e-28
8.55147649e-28
8.603854083e-28
8.657255195e-28
8.711705771e-28
8.767243446e-28
8.823897576e-28
8.881699899e-28
8.948309732e-28
9.083513454e-28
9.221626993e-28
9.362771232e-28
9.507048766e-28
9.654549173e-28
9.805374237e-28
9.959611096e-28
1.01173658e-27
1.027874813e-27
1.044385081e-27
1.061281512e-27
1.078572193e-27
1.096268429e-27
1.114381561e-27
1.132921508e-27
1.151904235e-27
1.171343192e-27
1.191254742e-27
1.211654128e-27
1.232558043e-27
1.25398036e-27
1.275934502e-27
1.298417473e-27
1.321458106e-27
1.345076311e-27
1.369294533e-27
1.394132939e-27
1.419607086e-27
1.445739639e-27
1.472547259e-27
1.500051582e-27
1.528272321e-27
1.557221611e-27
1.586930379e-27
1.617417355e-27
1.648701295e-27
1.68079907e-27
1.713722942e-27
1.747485405e-27
1.782095327e-27
1.817562929e-27
1.85388749e-27
1.891053725e-27
1.929012952e-27
1.967767055e-27
2.007254893e-27
2.047385784e-27
2.088060393e-27
2.145154378e-27
2.23669163e-27
2.283445784e-27
2.563511408e-27
1.98660961e-27
3.317955826e-27
2.049422819e-27
4.179130293e-27
2.096485502e-27
5.154383951e-27
2.136584325e-27
6.23283695e-27
2.170952225e-27
7.455669933e-27
2.208137957e-27
8.888522582e-27
2.239451269e-27
1.059776818e-26
2.267012962e-27
1.28037704e-26
2.27817184e-27
1.697546843e-26
2.374206391e-27
1.992440455e-26
2.558713021e-27
2.369284395e-26
2.854382449e-27
2.85351862e-26
3.439204523e-27
4.300514678e-26
4.550427239e-27
6.556769547e-26
5.937821971e-27
9.612377857e-26
8.294429504e-27
1.963702524e-25
1.219360241e-26
4.210505348e-25
2.107625531e-26
1.320019691e-24
4.353120734e-26
4.770299841e-24
1.128551139e-25
1.917039805e-25
3.167315495e-25
3.590442504e-21
9.256415806e-23
2.693944823e-10
1.562380578e-08
4.64080321e-09
9.191389381e-10
2.224312014e-10
5.917551163e-11
1.744539261e-11
4.914000974e-12
1.334103734e-12
3.858695426e-13
8.762219155e-14
2.706284209e-14
6.185527888e-15
1.805021707e-15
6.513833714e-16
2.232509257e-16
6.678279812e-17
2.582716318e-17
1.412555059e-17
8.323811373e-18
4.777071763e-18
3.18019233e-18
2.009038363e-18
1.448793647e-18
1.064846437e-18
7.675514962e-19
5.61208224e-19
4.490532399e-19
3.583450431e-19
2.850212691e-19
2.257184742e-19
1.75661663e-19
1.330792432e-19
1.073023448e-19
9.194933817e-20
7.717368817e-20
6.464975664e-20
5.437978287e-20
4.602048921e-20
3.920074107e-20
3.360204272e-20
2.89703288e-20
2.510817663e-20
2.186321625e-20
1.911757074e-20
1.677942721e-20
1.477665138e-20
1.305204656e-20
1.155984617e-20
1.026310984e-20
9.131776891e-21
8.141199361e-21
7.271024468e-21
6.504335686e-21
5.826986611e-21
5.227079815e-21
4.694555942e-21
4.220867184e-21
3.798716133e-21
3.421845433e-21
3.084867367e-21
2.783124988e-21
2.512578326e-21
2.26971068e-21
2.051451034e-21
1.855109534e-21
1.678323569e-21
1.519012532e-21
1.375339682e-21
1.245679871e-21
1.128592124e-21
1.022796247e-21
9.271528152e-22
8.406459717e-22
7.623686056e-22
6.91509534e-22
6.273423828e-22
5.692159119e-22
5.165455748e-22
4.688061333e-22
4.255251806e-22
3.862774461e-22
3.506797756e-22
3.18386699e-22
2.890865065e-22
2.624977695e-22
2.383662499e-22
2.164621489e-22
1.965776558e-22
1.785247581e-22
1.621332857e-22
1.472491583e-22
1.337328157e-22
1.214578093e-22
1.103095364e-22
1.001841031e-22
9.098730042e-23
8.263368189e-23
7.504573353e-23
6.815312365e-23
6.189202701e-23
5.62045137e-23
5.103799707e-23
4.634473533e-23
4.208137977e-23
3.820856675e-23
3.469054778e-23
3.149485508e-23
2.8591998e-23
2.595518833e-23
2.356009135e-23
2.138459974e-23
1.940862908e-23
1.761393181e-23
1.598392848e-23
1.450355526e-23
1.315912478e-23
1.19382001e-23
1.082948044e-23
9.822697066e-24
8.908519267e-24
8.078468238e-24
7.324839696e-24
6.640632808e-24
6.019486408e-24
5.455620113e-24
4.943781571e-24
4.479198473e-24
4.05753448e-24
3.674849601e-24
3.327563875e-24
3.01242484e-24
2.726477451e-24
2.467037024e-24
2.231664458e-24
2.018143893e-24
1.824462499e-24
1.648791735e-24
1.489470634e-24
1.344990412e-24
1.21398064e-24
1.095196714e-24
9.875082823e-25
8.898886429e-25
8.014055931e-25
7.212124397e-25
6.485404711e-25
5.826917468e-25
5.230324992e-25
4.689872974e-25
4.200339316e-25
3.756981834e-25
3.355497389e-25
2.991978583e-25
2.662880383e-25
2.364984493e-25
2.095372569e-25
1.851395017e-25
1.630647944e-25
1.430950376e-25
1.250323576e-25
1.086974527e-25
9.392736903e-26
8.057459769e-26
6.850531863e-26
5.759803582e-26
4.774291621e-26
3.884001013e-26
3.079899e-26
2.353787671e-26
1.698236006e-26
1.10650882e-26
5.725172473e-27
9.073961589e-28
0
0
0
0
0
0
0
0
0
0
0
0
0
0
0
0
0
0
0
0
0
0
0
0
0
0
0
0
0
0
0
0
0
0
0
0
0
0
0
0
0
0
0
0
0
0
0
0
0
0
0
0
0
0
0
0
0
0
0
0
0
0
0
0
0
0
0
0
0
0
0
0
0
0
0
0
0
0
0
0
0
0
0
0
0
0
0
0
0
0
0
0
0
0
0
0
0
0
0
0
0
0
0
0
0
0
0
0
0
0
0
0
0
0
0
0
0
0
0
0
0
0
0
0
0
0
0
0
0
0
0
0
0
0
0
0
0
0
0
0
0
0
0
0
0
0
0
0
0
0
0
0
0
0
0
0
0
0
0
0
0
0
0
0
0
0
0
0
0
0
0
0
0
0
0
0
0
0
0
0
0
0
0
0
0
0
0
0
0
0
0
0
0
0
0
0
0
0
0
0
0
0
0
0
0
0
0
0
0
0
0
0
0
0
0
0
0
0
0
0
0
0
0
0
0
0
0
0
0
0
0
0
0
0
0
0
0
0
0
0
0
0
0
0
0
0
0
0
0
0
0
0
0
0
0
0
0
0
0
0
0
0
0
0
0
5.503997689e-25
5.530394677e-25
5.580975674e-25
5.653546196e-25
5.746026995e-25
5.856547516e-25
5.983419427e-25
6.125198665e-25
6.280615245e-25
6.44859736e-25
6.628203405e-25
6.818674846e-25
7.019374635e-25
7.22977469e-25
7.449450611e-25
7.678073299e-25
7.915369601e-25
8.161179766e-25
8.415396247e-25
8.677951491e-25
8.948843862e-25
9.228080917e-25
9.515715156e-25
9.811824419e-25
1.011653101e-24
1.04299519e-24
1.07521928e-24
1.108349344e-24
1.14241482e-24
1.177445349e-24
1.213470929e-24
1.250522497e-24
1.288632455e-24
1.327834018e-24
1.368165109e-24
1.409662915e-24
1.452361875e-24
1.496298458e-24
1.541517452e-24
1.588066697e-24
1.635994465e-24
1.685350765e-24
1.73618376e-24
1.788544648e-24
1.84248044e-24
1.898035167e-24
1.955243751e-24
2.014124388e-24
2.074663282e-24
2.136794191e-24
2.23227372e-24
2.349466557e-24
2.471205962e-24
2.597772603e-24
2.729447146e-24
2.866489192e-24
3.009147268e-24
3.157676497e-24
3.312328489e-24
3.473359266e-24
3.641034759e-24
3.815638005e-24
3.9974797e-24
4.186872192e-24
4.384135889e-24
4.589572237e-24
4.803435763e-24
5.026256813e-24
5.2584549e-24
5.50045749e-24
5.752687547e-24
6.015534309e-24
6.289292424e-24
6.574666072e-24
6.87224733e-24
7.182597783e-24
7.506347465e-24
7.844082073e-24
8.196450915e-24
8.564171088e-24
8.948013168e-24
9.348854782e-24
9.767494282e-24
1.020479489e-23
1.066162284e-23
1.113897746e-23
1.163784358e-23
1.21592968e-23
1.314928412e-23
1.42367105e-23
1.538175247e-23
1.658782648e-23
1.785839926e-23
1.919704002e-23
2.060772599e-23
2.209442083e-23
2.366153814e-23
2.531351712e-23
3.184725461e-23
3.928526277e-23
4.753849246e-23
5.666655621e-23
6.673351213e-23
7.780513394e-23
8.994887982e-23
1.032361911e-22
1.177458394e-22
1.335594919e-22
1.524533392e-22
1.813087849e-22
2.135428177e-22
2.493319539e-22
2.888541397e-22
3.322200363e-22
3.794012449e-22
4.302864153e-22
4.849416675e-22
5.419684345e-22
6.052011309e-22
6.57309654e-22
7.270882829e-22
7.771402865e-22
8.580792374e-22
9.087739213e-22
1.005565201e-21
1.058953628e-21
1.277531644e-21
1.55969531e-21
2.364284847e-21
2.748854657e-21
3.895628469e-21
4.366325515e-21
5.927096257e-21
6.506667203e-21
8.684857998e-21
9.522906795e-21
1.325883838e-20
1.530671949e-20
2.334322133e-20
3.400041168e-20
7.747477244e-20
1.113089333e-19
2.00257891e-19
2.724977063e-19
7.640861042e-19
1.229443083e-18
2.803208734e-18
4.983639194e-18
1.614480865e-17
3.124636962e-17
1.246431989e-16
3.180052437e-16
1.513840052e-15
4.63530118e-15
2.910554779e-14
1.253636258e-13
1.158022597e-12
7.054761109e-12
3.999378126e-11
2.591612643e-10
3.782434721e-09
5.750190314e-08
9.8236062e-08
4.207956134e-08
1.383847862e-08
4.619442139e-09
1.582123173e-09
5.289780681e-10
1.717136133e-10
4.904267881e-11
1.374328019e-11
3.48221151e-12
7.87248119e-13
2.005838012e-13
5.084441885e-14
1.050846293e-14
3.443240625e-15
7.777824141e-16
3.371122371e-16
1.145268375e-16
3.748410494e-17
2.252322001e-17
1.303176316e-17
6.729152834e-18
2.816116478e-18
1.237972918e-18
9.610165615e-19
7.478635287e-19
5.795692234e-19
4.457618667e-19
3.441573395e-19
2.868172317e-19
2.393555522e-19
1.998871257e-19
1.66515682e-19
1.382674457e-19
1.146196211e-19
9.520689333e-20
7.944144065e-20
6.666283031e-20
5.627281656e-20
4.777791941e-20
4.078726048e-20
3.499603928e-20
3.016737065e-20
2.611662537e-20
2.26990429e-20
1.98003054e-20
1.732946758e-20
1.521365263e-20
1.339405872e-20
1.182293054e-20
1.046125025e-20
9.276957018e-21
8.243565199e-21
7.339083966e-21
6.545166556e-21
5.846436397e-21
5.229949617e-21
4.684764487e-21
4.201594347e-21
3.772526703e-21
3.390794751e-21
3.050590728e-21
2.746912842e-21
2.475439192e-21
2.232423526e-21
2.014608735e-21
1.819154796e-21
1.64357854e-21
1.485703119e-21
1.343615471e-21
1.215630377e-21
1.100260035e-21
9.961881508e-22
9.022478773e-22
8.174029169e-22
7.407313098e-22
6.714114787e-22
6.087101823e-22
5.519720841e-22
5.006107012e-22
4.541005187e-22
4.11970114e-22
3.737961401e-22
3.39198048e-22
3.078334495e-22
2.793940309e-22
2.536019477e-22
2.302066328e-22
2.089819706e-22
1.897237867e-22
1.72247616e-22
1.56386714e-22
1.419902838e-22
1.289218907e-22
1.170580466e-22
1.06286939e-22
9.650729391e-23
8.762735415e-23
7.956396177e-23
7.224173275e-23
6.559231417e-23
5.955371473e-23
5.406970245e-23
4.90892599e-23
4.456609363e-23
4.045819014e-23
3.672741557e-23
3.333915301e-23
3.026197475e-23
2.746734587e-23
2.492935547e-23
2.262447383e-23
2.053133178e-23
1.863052115e-23
1.690441414e-23
1.533699897e-23
1.391373123e-23
1.262139886e-23
1.144799973e-23
1.038263087e-23
9.415387085e-24
8.537270093e-24
7.740104847e-24
7.016464665e-24
6.359602383e-24
5.763388133e-24
5.222253252e-24
4.731138485e-24
4.285447833e-24
3.881005913e-24
3.514019575e-24
3.181043106e-24
2.878946463e-24
2.604886094e-24
2.356279158e-24
2.13077957e-24
1.926256333e-24
1.740773893e-24
1.572574152e-24
1.420060435e-24
1.281782795e-24
1.156424389e-24
1.042789249e-24
9.397915479e-25
8.464452392e-25
7.618549745e-25
6.852079841e-25
6.157662323e-25
5.528596717e-25
4.95880289e-25
4.442758302e-25
3.975453888e-25
3.552340031e-25
3.169289827e-25
2.822558041e-25
2.508745843e-25
2.22476961e-25
1.967830548e-25
1.735389813e-25
1.5251463e-25
1.335011048e-25
1.163087719e-25
1.007660622e-25
8.671709824e-26
7.402059028e-26
6.254852865e-26
5.218480012e-26
4.282415847e-26
3.437117313e-26
2.673949694e-26
1.985076678e-26
1.363393008e-26
8.024796743e-27
2.965029894e-27
0
0
0
0
0
0
0
0
0
0
0
0
0
0
0
0
0
0
0
0
0
0
0
0
0
0
0
0
0
0
0
0
0
0
0
0
0
0
0
0
0
0
0
0
0
0
0
0
0
0
0
0
0
0
0
0
0
0
0
0
0
0
0
0
0
0
0
0
0
0
0
0
0
0
0
0
0
0
0
0
0
0
0
0
0
0
0
0
0
0
0
0
0
0
0
0
0
0
0
0
0
0
0
0
0
0
0
0
0
0
0
0
0
0
0
0
0
0
0
0
0
0
0
0
0
0
0
0
0
0
0
0
0
0
0
0
0
0
0
0
0
0
0
0
0
0
0
0
0
0
0
0
0
0
0
0
0
0
0
0
0
0
0
0
0
0
0
0
0
0
0
0
0
0
0
0
0
0
0
0
0
0
0
0
0
0
0
0
0
0
0
0
0
0
0
0
0
0
0
0
0
0
0
0
0
0
0
0
0
0
0
0
0
0
0
0
0
0
0
0
0
0
0
0
0
0
0
0
0
0
0
0
0
0
0
0
0
0
0
0
0
0
0
0
0
0
0
0
0
0
0
0
0
0
0
0
0
0
0
0
0
0
0
0
3.23675558e-23
3.248578065e-23
3.271078555e-23
3.303221231e-23
3.344040002e-23
3.392656509e-23
3.448284566e-23
3.510233379e-23
3.577899251e-23
3.650761887e-23
3.728374276e-23
3.81036309e-23
3.896414058e-23
3.986268565e-23
4.079711888e-23
4.176575494e-23
4.276723031e-23
4.380060272e-23
4.48652319e-23
4.596068463e-23
4.708675624e-23
4.824335237e-23
4.943055737e-23
5.064859428e-23
5.189781851e-23
5.31786933e-23
5.489390958e-23
5.696064284e-23
5.908905254e-23
6.128118535e-23
6.353913346e-23
6.586504761e-23
6.826120854e-23
7.073004604e-23
7.327413776e-23
7.589612489e-23
7.859861115e-23
8.13843992e-23
8.425671225e-23
8.721888562e-23
9.027436866e-23
9.342671838e-23
9.667946643e-23
1.000363072e-22
1.035009119e-22
1.070768677e-22
1.10767638e-22
1.145761112e-22
1.185041881e-22
1.22551424e-22
1.267109787e-22
1.309907641e-22
1.354034923e-22
1.399573724e-22
1.446622424e-22
1.495259882e-22
1.545559014e-22
1.597591683e-22
1.651428888e-22
1.707142517e-22
1.764801243e-22
1.824487149e-22
1.886285983e-22
1.950288737e-22
2.016589212e-22
2.085282648e-22
2.182158117e-22
2.299883526e-22
2.422468883e-22
2.550133546e-22
2.683107737e-22
2.870892955e-22
3.520607629e-22
4.22648941e-22
4.991621275e-22
5.819244667e-22
6.712799406e-22
7.675893292e-22
8.712342727e-22
9.82627963e-22
1.102245835e-21
1.230691344e-21
1.368387928e-21
1.515801388e-21
1.673461185e-21
1.841954562e-21
2.021903901e-21
2.213970336e-21
2.418839742e-21
2.69970308e-21
3.026930339e-21
3.381895075e-21
3.766407173e-21
4.182391471e-21
4.631872096e-21
5.11702706e-21
5.640266647e-21
6.20394179e-21
6.810763543e-21
7.46324298e-21
8.163967702e-21
8.916327987e-21
9.723813525e-21
1.058998192e-20
1.171275112e-20
1.316739852e-20
1.474124048e-20
1.644110974e-20
1.827544066e-20
2.025247208e-20
2.339946208e-20
3.262309937e-20
4.305869629e-20
5.477033282e-20
6.781199114e-20
8.222636312e-20
1.003780147e-19
1.218478782e-19
1.454724098e-19
1.707442799e-19
1.985494101e-19
2.280900479e-19
2.611364834e-19
2.962076055e-19
3.36088511e-19
3.783284566e-19
4.26991691e-19
5.632794347e-19
7.91498275e-19
1.062336695e-18
1.407343067e-18
1.792762535e-18
2.274664201e-18
2.81503717e-18
3.510513865e-18
4.320075029e-18
6.759268489e-18
1.086091888e-17
1.71684221e-17
2.532082125e-17
3.675102927e-17
6.950154134e-17
1.269266486e-16
2.134605527e-16
4.230494151e-16
8.342816851e-16
1.655299402e-15
3.840901326e-15
8.852909911e-15
2.159262098e-14
6.16120866e-14
1.7954196e-13
5.980728222e-13
2.145848878e-12
8.67724745e-12
3.658319714e-11
1.771247322e-10
8.370890851e-10
4.14530999e-09
2.275453376e-08
1.375197043e-07
4.455903581e-07
4.847143899e-07
2.759646489e-07
1.200917679e-07
4.710945679e-08
1.777249081e-08
6.468158052e-09
2.341502683e-09
8.088233466e-10
2.438972793e-10
7.283837043e-11
1.897337482e-11
4.442232725e-12
9.994208366e-13
2.333042078e-13
5.59139456e-14
1.271007703e-14
3.329774308e-15
1.194272763e-15
3.554094911e-16
1.421650559e-16
7.361733731e-17
2.540894732e-17
1.170706862e-17
7.891648543e-18
5.074454817e-18
3.113506913e-18
1.592260304e-18
4.769220185e-19
3.934376571e-19
3.251223442e-19
2.69335958e-19
2.235600202e-19
1.858096251e-19
1.546369161e-19
1.289761549e-19
1.079770919e-19
9.083149431e-20
7.680726168e-20
6.528688885e-20
5.577166998e-20
4.786674082e-20
4.12614916e-20
3.571150804e-20
3.102371445e-20
2.704467658e-20
2.365165814e-20
2.07458538e-20
1.824722563e-20
1.609055533e-20
1.422239463e-20
1.259871803e-20
1.118308098e-20
9.945172368e-21
8.85966955e-21
7.905326638e-21
7.06424595e-21
6.321290485e-21
5.663609871e-21
5.080254899e-21
4.561863427e-21
4.100403144e-21
3.688959995e-21
3.321563748e-21
2.993043497e-21
2.698907572e-21
2.435243401e-21
2.198633712e-21
1.986086217e-21
1.794974377e-21
1.622987341e-21
1.468087512e-21
1.32847452e-21
1.202554422e-21
1.088913448e-21
9.862954239e-22
8.935823659e-22
8.0977774e-22
7.339919856e-22
6.654299545e-22
6.033799999e-22
5.472044467e-22
4.96331282e-22
4.502468688e-22
4.084895521e-22
3.706440348e-22
3.36336416e-22
3.052298166e-22
2.77020496e-22
2.514344212e-22
2.282242124e-22
2.071664285e-22
1.880591488e-22
1.707198151e-22
1.549833036e-22
1.407002023e-22
1.27735265e-22
1.15966028e-22
1.05281568e-22
9.55813857e-23
8.677440285e-23
7.877805953e-23
7.151750042e-23
6.492484329e-23
5.893851757e-23
5.350266827e-23
4.856661789e-23
4.408438004e-23
4.00142199e-23
3.631825711e-23
3.296210574e-23
2.991454963e-23
2.714724739e-23
2.463446585e-23
2.235283838e-23
2.028114613e-23
1.840011949e-23
1.669225817e-23
1.514166813e-23
1.373391362e-23
1.245588313e-23
1.129566736e-23
1.024244901e-23
9.286402387e-24
8.418602359e-24
7.630941873e-24
6.916056742e-24
6.267257837e-24
5.678468937e-24
5.144170834e-24
4.659350138e-24
4.219453111e-24
3.820343462e-24
3.45826429e-24
3.129803075e-24
2.831860521e-24
2.561621595e-24
2.316529718e-24
2.094262962e-24
1.892712624e-24
1.709963704e-24
1.544277262e-24
1.394074138e-24
1.257920452e-24
1.134514236e-24
1.022673402e-24
9.213245933e-25
8.294935454e-25
7.462955579e-25
6.709276413e-25
6.026610522e-25
5.408340149e-25
4.848461749e-25
4.341525077e-25
3.882584405e-25
3.467152035e-25
3.091156862e-25
2.750902636e-25
2.443037814e-25
2.164521027e-25
1.912594399e-25
1.684756057e-25
1.478735746e-25
1.29247646e-25
1.124111615e-25
9.719489642e-26
8.344549011e-26
7.10239697e-26
5.980415026e-26
4.967176006e-26
4.052339413e-26
3.226512436e-26
2.481196755e-26
1.808692062e-26
1.20202288e-26
6.548598192e-27
1.614948497e-27
0
0
0
0
0
0
0
0
0
0
0
0
0
0
0
0
0
0
0
0
0
0
0
0
0
0
0
0
0
0
0
0
0
0
0
0
0
0
0
0
0
0
0
0
0
0
0
0
0
0
0
0
0
0
0
0
0
0
0
0
0
0
0
0
0
0
0
0
0
0
0
0
0
0
0
0
0
0
0
0
0
0
0
0
0
0
0
0
0
0
0
0
0
0
0
0
0
0
0
0
0
0
0
0
0
0
0
0
0
0
0
0
0
0
0
0
0
0
0
0
0
0
0
0
0
0
0
0
0
0
0
0
0
0
0
0
0
0
0
0
0
0
0
0
0
0
0
0
0
0
0
0
0
0
0
0
0
0
0
0
0
0
0
0
0
0
0
0
0
0
0
0
0
0
0
0
0
0
0
0
0
0
0
0
0
0
0
0
0
0
0
0
0
0
0
0
0
0
0
0
0
0
0
0
0
0
0
0
0
0
0
0
0
0
0
0
0
0
0
0
0
0
0
0
0
0
0
0
0
0
0
0
0
0
0
0
0
0
0
0
0
0
0
0
0
0
0
0
0
0
0
0
0
0
0
0
0
0
0
0
0
0
4.536244409e-22
4.552045267e-22
4.581980239e-22
4.624591041e-22
4.678559342e-22
4.742701896e-22
4.815966143e-22
4.897426589e-22
4.986275783e-22
5.081816221e-22
5.183451298e-22
5.290679339e-22
5.403080958e-22
5.520309024e-22
5.642076595e-22
5.768150858e-22
5.898347342e-22
6.0325397e-22
6.170644177e-22
6.312603227e-22
6.458386004e-22
6.607981144e-22
6.761393201e-22
6.918649928e-22
7.079803927e-22
7.244937541e-22
7.455216598e-22
7.70196294e-22
7.955480735e-22
8.215963678e-22
8.483627844e-22
8.758704689e-22
9.041440882e-22
9.332099316e-22
9.63095985e-22
9.938323403e-22
1.0254459e-21
1.057961645e-21
1.091417958e-21
1.125853288e-21
1.161305323e-21
1.197812373e-21
1.235412922e-21
1.274146645e-21
1.314054356e-21
1.355176595e-21
1.397553497e-21
1.44122122e-21
1.486212907e-21
1.532557938e-21
1.580288037e-21
1.629463831e-21
1.757444602e-21
2.094226004e-21
2.448910847e-21
2.822471428e-21
3.215861966e-21
3.630025858e-21
4.065922005e-21
4.524542739e-21
5.072470231e-21
5.666205318e-21
6.300651964e-21
6.977926873e-21
7.700204356e-21
8.469754934e-21
9.288883448e-21
1.016011102e-20
1.108613902e-20
1.206978931e-20
1.311408668e-20
1.422234351e-20
1.539823982e-20
1.664481154e-20
1.796553977e-20
1.93641786e-20
2.084472217e-20
2.241135136e-20
2.406838971e-20
2.582007766e-20
2.767141468e-20
3.01156038e-20
3.285922887e-20
3.578892488e-20
3.89151393e-20
4.224914159e-20
4.580293412e-20
4.958927281e-20
5.362171085e-20
5.791494762e-20
6.248397124e-20
6.734448817e-20
7.251545177e-20
7.801696927e-20
8.386769276e-20
9.038718933e-20
9.949032578e-20
1.092418941e-19
1.19682608e-19
1.308553202e-19
1.759820245e-19
2.289810265e-19
2.883020826e-19
3.544251173e-19
4.277946151e-19
5.089126294e-19
5.986327666e-19
7.176301851e-19
8.509871611e-19
9.996921877e-19
1.164756938e-18
1.347210377e-18
1.547996098e-18
1.768005212e-18
2.008051865e-18
2.26883031e-18
2.618141209e-18
3.016835816e-18
3.447869041e-18
4.450578015e-18
6.128034125e-18
8.020376091e-18
1.016057627e-17
1.25584928e-17
1.526648578e-17
1.856297938e-17
2.2664545e-17
2.734906344e-17
3.277723216e-17
3.896632011e-17
5.544617409e-17
7.809415224e-17
1.053169346e-16
1.435339623e-16
1.920006586e-16
2.527020402e-16
3.58156887e-16
5.928868607e-16
9.445849936e-16
1.418212326e-15
2.26694485e-15
4.195394295e-15
7.256261795e-15
1.291476576e-14
2.583194259e-14
4.728566111e-14
1.054346548e-13
2.273459008e-13
5.178709412e-13
1.277752249e-12
3.328439619e-12
9.047071441e-12
2.702218437e-11
8.442474817e-11
2.864748099e-10
1.019866491e-09
3.850095537e-09
1.499850926e-08
6.106600378e-08
2.558255059e-07
9.192547806e-07
1.909116643e-06
2.130405026e-06
1.545144293e-06
8.608189556e-07
4.053209084e-07
1.672415612e-07
6.431881408e-08
2.3420595e-08
8.424720437e-09
2.988059406e-09
9.983683757e-10
2.918558313e-10
8.582905282e-11
2.124142785e-11
4.646849099e-12
1.079414148e-12
2.41047116e-13
5.421790466e-14
1.800184364e-14
4.995687504e-15
1.293495387e-15
5.772365608e-16
2.019855012e-16
7.918429658e-17
4.538115795e-17
1.946253588e-17
7.061176988e-18
5.08166556e-18
3.51280288e-18
2.262093326e-18
1.260695158e-18
4.581348496e-19
2.383133942e-19
1.99444633e-19
1.674792532e-19
1.411862858e-19
1.195550319e-19
1.017218331e-19
8.696131473e-20
7.468170896e-20
6.441054195e-20
5.577298493e-20
4.847147292e-20
4.226899665e-20
3.697593677e-20
3.243960608e-20
2.853622808e-20
2.516490283e-20
2.22429041e-20
1.970205407e-20
1.748583923e-20
1.554721624e-20
1.384684306e-20
1.23516747e-20
1.103384101e-20
9.86974171e-21
8.839320134e-21
7.92546764e-21
7.113540435e-21
6.390962225e-21
5.746897841e-21
5.171983786e-21
4.658104128e-21
4.198204555e-21
3.786136991e-21
3.41652931e-21
3.084675904e-21
2.786445263e-21
2.518201907e-21
2.276740117e-21
2.059227439e-21
1.863156464e-21
1.68630361e-21
1.526693603e-21
1.382569043e-21
1.252364021e-21
1.134681296e-21
1.0282725e-21
9.320209123e-22
8.449264309e-22
7.66092452e-22
6.947143341e-22
6.300693107e-22
5.71507593e-22
5.184445341e-22
4.703537068e-22
4.267607736e-22
3.87238069e-22
3.513997636e-22
3.188975908e-22
2.894170252e-22
2.626738809e-22
2.384112716e-22
2.163968955e-22
1.964206017e-22
1.782922166e-22
1.618395844e-22
1.469068176e-22
1.3335272e-22
1.210493697e-22
1.098808445e-22
9.974207391e-23
9.053780349e-23
8.218166367e-23
7.459532676e-23
6.770774778e-23
6.145447812e-23
5.57770457e-23
5.062239421e-23
4.5942377e-23
4.16932972e-23
3.783549446e-23
3.433296807e-23
3.115303712e-23
2.826603258e-23
2.564501796e-23
2.326553637e-23
2.110538109e-23
1.914438794e-23
1.736424645e-23
1.574832908e-23
1.428153609e-23
1.295015486e-23
1.174173207e-23
1.064495822e-23
9.649562076e-24
8.746215419e-24
7.926446577e-24
7.182561526e-24
6.507572595e-24
5.895133742e-24
5.339481598e-24
4.835381912e-24
4.378081244e-24
3.963262668e-24
3.587005929e-24
3.245750874e-24
2.9362646e-24
2.655611377e-24
2.401125434e-24
2.170386095e-24
1.961195463e-24
1.771557892e-24
1.599661523e-24
1.443861298e-24
1.302663799e-24
1.174713152e-24
1.05877868e-24
9.537430873e-25
8.585921947e-25
7.724057012e-25
6.943480559e-25
6.236611239e-25
5.596569542e-25
5.017109836e-25
4.492568812e-25
4.017804424e-25
3.588153553e-25
3.199384308e-25
2.847659948e-25
2.529498218e-25
2.241740495e-25
1.981523958e-25
1.746251172e-25
1.533567353e-25
1.341336834e-25
1.167624451e-25
1.010674688e-25
8.688967671e-26
7.408488206e-26
6.252249928e-26
5.208409068e-26
4.266237201e-26
3.416013863e-26
2.648938753e-26
1.957026443e-26
1.333064885e-26
7.705183347e-27
2.634647223e-27
0
0
0
0
0
0
0
0
0
0
0
0
0
0
0
0
0
0
0
0
0
0
0
0
0
0
0
0
0
0
0
0
0
0
0
0
0
0
0
0
0
0
0
0
0
0
0
0
0
0
0
0
0
0
0
0
0
0
0
0
0
0
0
0
0
0
0
0
0
0
0
0
0
0
0
0
0
0
0
0
0
0
0
0
0
0
0
0
0
0
0
0
0
0
0
0
0
0
0
0
0
0
0
0
0
0
0
0
0
0
0
0
0
0
0
0
0
0
0
0
0
0
0
0
0
0
0
0
0
0
0
0
0
0
0
0
0
0
0
0
0
0
0
0
0
0
0
0
0
0
0
0
0
0
0
0
0
0
0
0
0
0
0
0
0
0
0
0
0
0
0
0
0
0
0
0
0
0
0
0
0
0
0
0
0
0
0
0
0
0
0
0
0
0
0
0
0
0
0
0
0
0
0
0
0
0
0
0
0
0
0
0
0
0
0
0
0
0
0
0
0
0
0
0
0
0
0
0
0
0
0
0
0
0
0
0
0
0
0
0
0
0
0
0
0
0
0
0
0
0
0
0
0
0
0
0
0
0
0
0
2.970816389e-21
2.981771118e-21
3.002458111e-21
3.031823132e-21
3.068933843e-21
3.112964875e-21
3.163188632e-21
3.218967857e-21
3.279748186e-21
3.34505103e-21
3.414467305e-21
3.487654289e-21
3.564326647e-21
3.64424823e-21
3.727224032e-21
3.813092308e-21
3.901707402e-21
3.992998978e-21
4.086917205e-21
4.183425498e-21
4.282503631e-21
4.384145487e-21
4.48835554e-21
4.595142869e-21
4.704546283e-21
4.816636293e-21
4.931493598e-21
5.049182246e-21
5.169759825e-21
5.293300785e-21
5.41989043e-21
5.549622185e-21
5.682596463e-21
5.818920155e-21
5.958706114e-21
6.155663449e-21
6.361902348e-21
7.421173637e-21
8.764757196e-21
1.018454182e-20
1.168355577e-20
1.326492366e-20
1.493186691e-20
1.668773626e-20
1.853607048e-20
2.048082604e-20
2.252607208e-20
2.467446442e-20
2.69293185e-20
2.929421115e-20
3.17732461e-20
3.437178398e-20
3.709651245e-20
3.995449166e-20
4.295165309e-20
4.609469483e-20
4.939057391e-20
5.284617662e-20
5.646863409e-20
6.026542232e-20
6.42443056e-20
6.878833661e-20
7.413476267e-20
7.979000711e-20
8.576923889e-20
9.208888954e-20
9.876782464e-20
1.058222075e-19
1.132692568e-19
1.211282634e-19
1.29420022e-19
1.381667723e-19
1.473918301e-19
1.571185617e-19
1.673716028e-19
1.781771816e-19
1.895631194e-19
2.015587265e-19
2.141948898e-19
2.297315006e-19
2.486390485e-19
2.687070023e-19
2.900007895e-19
3.125886703e-19
3.365392357e-19
3.619306918e-19
3.888451753e-19
4.173691475e-19
4.47593971e-19
4.796162184e-19
5.135380492e-19
6.199053606e-19
7.991952583e-19
1.011097145e-18
1.248286685e-18
1.512466274e-18
1.805439922e-18
2.129244985e-18
2.486029344e-18
2.878100385e-18
3.308016638e-18
3.778408384e-18
4.316520009e-18
5.018110135e-18
5.794038789e-18
6.649496748e-18
7.59003752e-18
8.621654855e-18
9.75023394e-18
1.09821842e-17
1.232399085e-17
1.4181936e-17
1.632182495e-17
2.087622454e-17
2.852492635e-17
3.727706028e-17
4.719657351e-17
5.833971296e-17
7.160508983e-17
8.84810413e-17
1.075786526e-16
1.290931819e-16
1.533236442e-16
1.805536829e-16
2.112118447e-16
2.710608286e-16
3.886753469e-16
5.300016708e-16
6.989207786e-16
8.993121077e-16
1.137021012e-15
1.448946774e-15
1.873933925e-15
2.88170591e-15
4.193313899e-15
6.003532718e-15
8.683428155e-15
1.235556038e-14
2.108601651e-14
3.429219542e-14
5.376360185e-14
9.543442866e-14
1.694059099e-13
2.926336473e-13
5.803677765e-13
1.08636605e-12
2.237514846e-12
4.667788136e-12
1.016270582e-11
2.351408922e-11
5.684890873e-11
1.428918145e-10
3.827744448e-10
1.058604219e-09
3.081715598e-09
9.395788711e-09
2.970120892e-08
9.827415224e-08
3.380924013e-07
1.148547254e-06
3.193324976e-06
5.983900686e-06
7.536539405e-06
6.899728107e-06
4.981971551e-06
2.970273686e-06
1.497766129e-06
6.421903221e-07
2.505634839e-07
8.838353406e-08
3.010449628e-08
1.041322789e-08
3.628935413e-09
1.222698834e-09
3.749082375e-10
1.073260777e-10
2.740086424e-11
7.151041851e-12
1.762727326e-12
4.314630249e-13
1.055299432e-13
2.504548683e-14
7.624347917e-15
2.744924875e-15
6.491148987e-16
3.57815714e-16
1.277911924e-16
5.234799108e-17
3.151348297e-17
1.48055035e-17
4.979323746e-18
3.714415215e-18
2.675932198e-18
1.819485079e-18
1.109841783e-18
5.19743516e-19
1.633718347e-19
1.400641622e-19
1.206091919e-19
1.042901073e-19
9.052697254e-20
7.885891703e-20
6.89188239e-20
6.041194127e-20
5.310026395e-20
4.679104897e-20
4.13270829e-20
3.65790716e-20
3.244023036e-20
2.882185316e-20
2.564998259e-20
2.286247907e-20
2.040700738e-20
1.823928821e-20
1.632170518e-20
1.462218287e-20
1.311326028e-20
1.177136169e-20
1.057617408e-20
9.510143927e-21
8.558056343e-21
7.706686526e-21
6.944510703e-21
6.261460307e-21
5.648717559e-21
5.098542671e-21
4.604127133e-21
4.159469816e-21
3.759270631e-21
3.398840222e-21
3.074022644e-21
2.78112854e-21
2.516877791e-21
2.27834995e-21
2.06294116e-21
1.868327073e-21
1.692430313e-21
1.533392145e-21
1.389547733e-21
1.259404459e-21
1.141622885e-21
1.035000045e-21
9.384546243e-22
8.510139621e-22
7.718025168e-22
7.000316634e-22
6.34990639e-22
5.760384848e-22
5.225969122e-22
4.741438904e-22
4.302079843e-22
3.903632628e-22
3.542247581e-22
3.214443986e-22
2.917073672e-22
2.647288305e-22
2.402510173e-22
2.180405709e-22
1.978861927e-22
1.795965078e-22
1.62998149e-22
1.479340306e-22
1.342617927e-22
1.218523961e-22
1.105888597e-22
1.003651155e-22
9.108497814e-23
8.266121243e-23
7.501469132e-23
6.807363397e-23
6.17729182e-23
5.605345504e-23
5.086162805e-23
4.614878048e-23
4.187075414e-23
3.798747069e-23
3.446255249e-23
3.126297938e-23
2.835877653e-23
2.572273336e-23
2.333014684e-23
2.115859011e-23
1.918770187e-23
1.739899576e-23
1.577568714e-23
1.430253646e-23
1.296570643e-23
1.175263306e-23
1.065190833e-23
9.653173818e-24
8.747023966e-24
7.924918424e-24
7.179102765e-24
6.502535684e-24
5.888823917e-24
5.332162368e-24
4.827280244e-24
4.369391814e-24
3.954151886e-24
3.577615315e-24
3.236200338e-24
2.926655047e-24
2.646027075e-24
2.391636267e-24
2.16104952e-24
1.95205806e-24
1.762656892e-24
1.591025972e-24
1.435513453e-24
1.294619874e-24
1.166984371e-24
1.051371881e-24
9.466614938e-25
8.518361398e-25
7.659727993e-25
6.882340061e-25
6.178599293e-25
5.541610456e-25
4.965119356e-25
4.443451738e-25
3.97146159e-25
3.544480292e-25
3.158273586e-25
2.809002105e-25
2.493183443e-25
2.207660445e-25
1.949571042e-25
1.716319542e-25
1.505552414e-25
1.31513766e-25
1.143142114e-25
9.878146768e-26
8.475679065e-26
7.209630656e-26
6.066971247e-26
5.035900453e-26
4.105725798e-26
3.26676155e-26
2.510236569e-26
1.82822202e-26
1.21352809e-26
6.596449592e-27
1.606913181e-27
0
0
0
0
0
0
0
0
0
0
0
0
0
0
0
0
0
0
0
0
0
0
0
0
0
0
0
0
0
0
0
0
0
0
0
0
0
0
0
0
0
0
0
0
0
0
0
0
0
0
0
0
0
0
0
0
0
0
0
0
0
0
0
0
0
0
0
0
0
0
0
0
0
0
0
0
0
0
0
0
0
0
0
0