/*--------------------------------*- C++ -*----------------------------------*\
| =========                 |                                                 |
| \\      /  F ield         | OpenFOAM: The Open Source CFD Toolbox           |
|  \\    /   O peration     | Version:  v2006                                 |
|   \\  /    A nd           | Website:  www.openfoam.com                      |
|    \\/     M anipulation  |                                                 |
\*---------------------------------------------------------------------------*/
FoamFile
{
    version     2.0;
    format      ascii;
    class       volScalarField;
    location    "0.1";
    object      C2H4;
}
// * * * * * * * * * * * * * * * * * * * * * * * * * * * * * * * * * * * * * //

dimensions      [0 0 0 0 0 0 0];


internalField   nonuniform List<scalar> 
72000
(
1.698286667e-21
1.698351518e-21
1.698476369e-21
1.698654851e-21
1.698880859e-21
1.699148748e-21
1.699453327e-21
1.699790136e-21
1.700155111e-21
1.700544839e-21
1.700956286e-21
1.701386948e-21
1.701834714e-21
1.702297788e-21
1.702774669e-21
1.703264162e-21
1.703765251e-21
1.704277109e-21
1.704799114e-21
1.705330737e-21
1.705871634e-21
1.706422952e-21
1.706983269e-21
1.707552155e-21
1.708129477e-21
1.708715137e-21
1.709308988e-21
1.70991116e-21
1.710521876e-21
1.711141326e-21
1.711769697e-21
1.712407181e-21
1.713053982e-21
1.713710294e-21
1.714376386e-21
1.715052488e-21
1.715738748e-21
1.716435319e-21
1.717142492e-21
1.717860594e-21
1.71858993e-21
1.719330803e-21
1.720083461e-21
1.720848169e-21
1.72162507e-21
1.72241429e-21
1.723215768e-21
1.724029065e-21
1.72485323e-21
1.725686688e-21
1.726562414e-21
1.727466835e-21
1.728383219e-21
1.729313521e-21
1.730259452e-21
1.731222214e-21
1.732202609e-21
1.73320148e-21
1.734219394e-21
1.73525702e-21
1.736315048e-21
1.737393567e-21
1.738493308e-21
1.739614623e-21
1.740758332e-21
1.741971362e-21
1.743619882e-21
1.745305035e-21
1.747028541e-21
1.748791577e-21
1.750595056e-21
1.752439438e-21
1.754324779e-21
1.756253751e-21
1.758228481e-21
1.76025019e-21
1.762320554e-21
1.764440846e-21
1.766612839e-21
1.76883824e-21
1.771118965e-21
1.773457604e-21
1.775855976e-21
1.778315687e-21
1.780838433e-21
1.783426322e-21
1.786081329e-21
1.788805675e-21
1.791609198e-21
1.794490817e-21
1.797450222e-21
1.800491191e-21
1.803617249e-21
1.806831761e-21
1.810138309e-21
1.813540803e-21
1.817042904e-21
1.820647736e-21
1.824349791e-21
1.828161292e-21
1.832086583e-21
1.836130468e-21
1.84029804e-21
1.844593108e-21
1.849020259e-21
1.853583568e-21
1.85828789e-21
1.86313722e-21
1.868135627e-21
1.873282551e-21
1.878585836e-21
1.884042433e-21
1.889653084e-21
1.895446068e-21
1.901925638e-21
1.913499142e-21
1.898514008e-21
2.023331142e-21
1.657486273e-21
2.37696655e-21
1.652775032e-21
2.780043272e-21
1.647577434e-21
3.229490312e-21
1.641898992e-21
3.7133173e-21
1.634215871e-21
4.248346474e-21
1.62830952e-21
4.86429607e-21
1.619814699e-21
5.588361914e-21
1.60942882e-21
6.513744244e-21
1.588617518e-21
8.242255424e-21
1.574026807e-21
8.918652221e-21
1.550670631e-21
9.575565422e-21
1.536635497e-21
1.039725489e-20
1.545234367e-21
1.192596468e-20
1.588522509e-21
1.40817372e-20
1.642569046e-21
1.675881417e-20
1.649066765e-21
2.188938312e-20
1.618551442e-21
2.816812078e-20
1.568798615e-21
4.600739873e-20
1.484098089e-21
6.675886407e-20
1.329513755e-21
1.217644966e-21
1.095398973e-21
3.673037489e-18
4.213932157e-20
9.799862939e-08
7.91452317e-05
0.0003619480069
0.0005540803143
0.000631845766
0.0006427707315
0.0006170671365
0.0005718887921
0.0005174061829
0.000459896587
0.0004035867004
0.0003507877969
0.0003031320624
0.000260981296
0.0002244106683
0.0001930970021
0.0001664986781
0.0001439894141
0.0001249813758
0.0001089245629
9.534287141e-05
8.379414992e-05
7.394697191e-05
6.549774104e-05
5.822100086e-05
5.193034457e-05
4.646283947e-05
4.167264135e-05
3.746167255e-05
3.377107453e-05
3.054388805e-05
2.763944198e-05
2.500898702e-05
2.261825486e-05
2.03638801e-05
1.814768979e-05
1.611430879e-05
1.430277832e-05
1.270907106e-05
1.131285728e-05
1.008961739e-05
9.015732202e-06
8.070276736e-06
7.235363361e-06
6.495914454e-06
5.839261265e-06
5.254734663e-06
4.733306167e-06
4.267291238e-06
3.850110201e-06
3.476097275e-06
3.140348264e-06
2.838598203e-06
2.567122394e-06
2.322655738e-06
2.102326438e-06
1.903601072e-06
1.724238725e-06
1.562252451e-06
1.415876663e-06
1.283539406e-06
1.163838639e-06
1.055521853e-06
9.57468493e-07
8.686747232e-07
7.882401794e-07
7.153564111e-07
6.492967649e-07
5.894075061e-07
5.351000044e-07
4.858438388e-07
4.411607011e-07
4.006189943e-07
3.638290374e-07
3.304388001e-07
3.001301035e-07
2.726152303e-07
2.476338961e-07
2.249505405e-07
2.043518997e-07
1.856448314e-07
1.686543615e-07
1.532219297e-07
1.392038116e-07
1.264696988e-07
1.149014205e-07
1.043917903e-07
9.484356722e-08
8.616851713e-08
7.828656579e-08
7.11250335e-08
6.461794314e-08
5.870539452e-08
5.333299845e-08
4.845136433e-08
4.401563649e-08
3.998507405e-08
3.632267033e-08
3.299480824e-08
2.997094748e-08
2.722334141e-08
2.472677996e-08
2.245835651e-08
2.039725667e-08
1.852456622e-08
1.682309716e-08
1.527722959e-08
1.387276836e-08
1.259681267e-08
1.143763787e-08
1.038458814e-08
9.427978768e-09
8.559007728e-09
7.769675074e-09
7.052709727e-09
6.401503251e-09
5.810049341e-09
5.272888983e-09
4.785060658e-09
4.342054948e-09
3.939773522e-09
3.574491518e-09
3.242823742e-09
2.941693587e-09
2.668305142e-09
2.420117404e-09
2.194821193e-09
1.990318129e-09
1.804701312e-09
1.63623796e-09
1.483353471e-09
1.344617171e-09
1.218729099e-09
1.104508142e-09
1.000881146e-09
9.068731135e-10
8.215983319e-10
7.442521306e-10
6.741035429e-10
6.104885382e-10
5.528039484e-10
5.005019647e-10
4.530850443e-10
4.101012453e-10
3.711402146e-10
3.358292201e-10
3.03829853e-10
2.748348519e-10
2.485651958e-10
2.247675377e-10
2.032119647e-10
1.836896814e-10
1.660112242e-10
1.500045444e-10
1.355135501e-10
1.223965301e-10
1.105249864e-10
9.978224729e-11
9.00624587e-11
8.126958186e-11
7.331648151e-11
6.612420697e-11
5.9620993e-11
5.374188611e-11
4.84279583e-11
4.362570256e-11
3.928675966e-11
3.536710831e-11
3.182697452e-11
2.863025666e-11
2.574422978e-11
2.313923256e-11
2.078845507e-11
1.866758308e-11
1.675453181e-11
1.502929815e-11
1.347386841e-11
1.20718909e-11
1.080854808e-11
9.670424614e-12
8.645376106e-12
7.722395061e-12
6.891549459e-12
6.14389759e-12
5.471288195e-12
4.866349488e-12
4.322459928e-12
3.833602934e-12
3.394322618e-12
2.999769732e-12
2.645516469e-12
2.327557137e-12
2.042254893e-12
1.786354439e-12
1.556903492e-12
1.351211298e-12
1.166937269e-12
1.001879129e-12
8.540977259e-13
7.218088697e-13
6.035432561e-13
4.977719376e-13
4.032770118e-13
3.18829397e-13
2.433840629e-13
1.761073205e-13
1.160754059e-13
6.258664653e-14
1.487754284e-14
0
0
0
0
0
0
0
0
0
0
0
0
0
0
0
0
0
0
0
0
0
0
0
0
0
0
0
0
0
0
0
0
0
0
0
0
0
0
0
0
0
0
0
0
0
0
0
0
0
0
0
0
0
0
0
0
0
0
0
0
0
0
0
0
0
0
0
0
0
0
0
0
0
0
0
0
0
0
0
0
0
0
0
0
0
0
0
0
0
0
0
0
0
0
0
0
0
0
0
0
0
0
0
0
0
0
0
0
0
0
0
0
0
0
0
0
0
0
0
0
0
0
0
0
0
0
0
0
0
0
0
0
0
0
0
0
0
0
0
0
0
0
0
0
0
0
0
0
0
0
0
0
0
0
0
0
0
0
0
0
0
0
0
0
0
0
0
0
0
0
0
0
0
0
0
0
0
0
0
0
0
0
0
0
0
0
0
0
0
0
0
0
0
0
0
0
0
0
0
0
0
0
0
0
0
0
0
0
0
0
0
0
0
0
0
0
0
0
0
0
0
0
0
0
0
0
0
0
0
0
5.77555762e-20
5.795091612e-20
5.83239609e-20
5.885712258e-20
5.953377928e-20
6.033896642e-20
6.125917197e-20
6.228278831e-20
6.339961358e-20
6.460099821e-20
6.587935654e-20
6.722851083e-20
6.86432626e-20
7.011925306e-20
7.165293738e-20
7.324146885e-20
7.488245746e-20
7.657433447e-20
7.831591659e-20
8.010630774e-20
8.194504968e-20
8.383176663e-20
8.57663504e-20
8.774889465e-20
8.977981667e-20
9.185952299e-20
9.398843125e-20
9.616767902e-20
9.839867582e-20
1.006828782e-19
1.030217815e-19
1.054169439e-19
1.078700093e-19
1.103826621e-19
1.129568722e-19
1.155945042e-19
1.182971661e-19
1.210665546e-19
1.239049335e-19
1.268147854e-19
1.297985806e-19
1.328588403e-19
1.359979428e-19
1.392183863e-19
1.425223656e-19
1.459117994e-19
1.493878865e-19
1.529505941e-19
1.565976055e-19
1.603228918e-19
1.645490445e-19
1.691240896e-19
1.738271395e-19
1.786706705e-19
1.836658943e-19
1.888220962e-19
1.941473091e-19
1.996493e-19
2.053354845e-19
2.112132993e-19
2.172903512e-19
2.235743496e-19
2.300738459e-19
2.367973432e-19
2.437534142e-19
2.50949385e-19
2.583910118e-19
2.66097159e-19
2.740787463e-19
2.823474758e-19
2.909146228e-19
2.997893878e-19
3.089761902e-19
3.184987929e-19
3.283746542e-19
3.386194602e-19
3.49250707e-19
3.602843077e-19
3.717382696e-19
3.836329399e-19
3.959906419e-19
4.088368979e-19
4.221928455e-19
4.360810412e-19
4.505244055e-19
4.655500001e-19
4.811842617e-19
4.974559576e-19
5.180129677e-19
5.398634078e-19
5.627118762e-19
5.866163479e-19
6.116368469e-19
6.378344986e-19
6.652768001e-19
6.940305421e-19
7.241700577e-19
7.557668783e-19
8.948595571e-19
1.048652939e-18
1.21468846e-18
1.393836882e-18
1.587032147e-18
1.795216022e-18
2.01934487e-18
2.260429067e-18
2.519589301e-18
2.797989021e-18
3.104943378e-18
3.474165832e-18
3.875094344e-18
4.309249544e-18
4.778328164e-18
5.28321867e-18
5.823171459e-18
6.397046573e-18
7.007235384e-18
7.637442541e-18
8.338573383e-18
8.909017248e-18
9.685653338e-18
1.023239058e-17
1.112926291e-17
1.16802688e-17
1.274185972e-17
1.331726876e-17
1.56126188e-17
1.848433576e-17
2.601736675e-17
2.936707004e-17
3.895930861e-17
4.275254699e-17
5.483992696e-17
5.915557651e-17
7.477816107e-17
8.026236061e-17
1.045366014e-16
1.165336479e-16
1.648478972e-16
2.260056898e-16
4.258559275e-16
5.598809388e-16
9.081538415e-16
1.154584534e-15
2.596311489e-15
3.766983847e-15
7.292711413e-15
1.117209754e-14
2.982930279e-14
4.874645925e-14
1.523400336e-13
3.18008609e-13
1.150702844e-12
2.711895966e-12
1.236325621e-11
3.861631883e-11
2.50755646e-10
1.094358912e-09
4.749175107e-09
2.547887042e-08
4.580780503e-07
2.00665385e-05
0.0001851673396
0.0004154993856
0.0005652275837
0.0006319087389
0.0006433652878
0.0006213220555
0.00057982663
0.0005280591213
0.0004720889379
0.0004161231377
0.0003631039385
0.0003145488695
0.0002711963414
0.0002333848841
0.0002008016201
0.0001730506682
0.0001495270309
0.000129655268
0.0001128798337
9.867052265e-05
8.661631645e-05
7.634890556e-05
6.756000794e-05
5.999233377e-05
5.346283781e-05
4.78497047e-05
4.291063758e-05
3.854456415e-05
3.467966716e-05
3.123089065e-05
2.811035762e-05
2.527413123e-05
2.265749466e-05
2.023620438e-05
1.801572949e-05
1.602119655e-05
1.425471284e-05
1.270004485e-05
1.133380424e-05
1.013186547e-05
9.072106209e-06
8.135242291e-06
7.30482559e-06
6.566932354e-06
5.909776348e-06
5.32334571e-06
4.799094166e-06
4.329687174e-06
3.90879681e-06
3.530936329e-06
3.191327436e-06
2.885792097e-06
2.610664037e-06
2.362715775e-06
2.139098002e-06
1.937288883e-06
1.755051272e-06
1.590396492e-06
1.441553416e-06
1.306942002e-06
1.185150507e-06
1.074915789e-06
9.75106217e-07
8.847068005e-07
8.02806191e-07
7.285853001e-07
6.613072983e-07
6.003088094e-07
5.449921375e-07
4.948183884e-07
4.49301372e-07
4.080021922e-07
3.705244269e-07
3.365098417e-07
3.056345591e-07
2.77605639e-07
2.521580179e-07
2.290517687e-07
2.080696432e-07
1.890148675e-07
1.717091597e-07
1.559909495e-07
1.417137756e-07
1.287448421e-07
1.169637186e-07
1.062611671e-07
9.653808458e-08
8.77045473e-08
7.967894841e-08
7.238721835e-08
6.576211975e-08
5.974260994e-08
5.427326418e-08
4.930375324e-08
4.478837091e-08
4.068560544e-08
3.695775167e-08
3.357055958e-08
3.049291542e-08
2.769655292e-08
2.515579119e-08
2.284729697e-08
2.074986932e-08
1.884424375e-08
1.711291489e-08
1.553997519e-08
1.411096885e-08
1.281275891e-08
1.163340664e-08
1.056206221e-08
9.588865104e-09
8.704853931e-09
7.901884253e-09
7.172554074e-09
6.510136276e-09
5.908516953e-09
5.362139582e-09
4.865954175e-09
4.415371148e-09
4.0062195e-09
3.634708452e-09
3.297393092e-09
2.991142608e-09
2.713111937e-09
2.460715568e-09
2.231603906e-09
2.023641947e-09
1.834889526e-09
1.663583764e-09
1.508122782e-09
1.367051065e-09
1.239046195e-09
1.122906711e-09
1.017540926e-09
9.219571188e-10
8.352543499e-10
7.566141746e-10
6.852931213e-10
6.20615793e-10
5.619687498e-10
5.087948793e-10
4.605881597e-10
4.168889628e-10
3.772799758e-10
3.413821946e-10
3.088514494e-10
2.793753065e-10
2.526700286e-10
2.284779981e-10
2.065654587e-10
1.867200478e-10
1.687491716e-10
1.52477863e-10
1.377474243e-10
1.244138279e-10
1.123463606e-10
1.014264301e-10
9.154638495e-11
8.260857285e-11
7.452450188e-11
6.721382065e-11
6.060357005e-11
5.462777808e-11
4.922647825e-11
4.434532046e-11
3.993507052e-11
3.595106373e-11
3.235281556e-11
2.91036137e-11
2.617025302e-11
2.352258776e-11
2.113327964e-11
1.897764791e-11
1.703324433e-11
1.527978384e-11
1.369890729e-11
1.227401245e-11
1.099002687e-11
9.833316999e-12
8.791500577e-12
7.853431118e-12
7.009053102e-12
6.249170136e-12
5.565594841e-12
4.950829836e-12
4.398065178e-12
3.901252094e-12
3.454847641e-12
3.053876074e-12
2.693883433e-12
2.370742614e-12
2.080805869e-12
1.820711147e-12
1.58753323e-12
1.378521345e-12
1.191272372e-12
1.023552211e-12
8.733617124e-13
7.38995209e-13
6.188036325e-13
5.113086097e-13
4.153043272e-13
3.295186621e-13
2.528576784e-13
1.845124422e-13
1.235129033e-13
6.916668481e-14
2.069944718e-14
0
0
0
0
0
0
0
0
0
0
0
0
0
0
0
0
0
0
0
0
0
0
0
0
0
0
0
0
0
0
0
0
0
0
0
0
0
0
0
0
0
0
0
0
0
0
0
0
0
0
0
0
0
0
0
0
0
0
0
0
0
0
0
0
0
0
0
0
0
0
0
0
0
0
0
0
0
0
0
0
0
0
0
0
0
0
0
0
0
0
0
0
0
0
0
0
0
0
0
0
0
0
0
0
0
0
0
0
0
0
0
0
0
0
0
0
0
0
0
0
0
0
0
0
0
0
0
0
0
0
0
0
0
0
0
0
0
0
0
0
0
0
0
0
0
0
0
0
0
0
0
0
0
0
0
0
0
0
0
0
0
0
0
0
0
0
0
0
0
0
0
0
0
0
0
0
0
0
0
0
0
0
0
0
0
0
0
0
0
0
0
0
0
0
0
0
0
0
0
0
0
0
0
0
0
0
0
0
0
0
0
0
0
0
0
0
0
0
0
0
0
0
0
0
0
0
0
0
0
0
5.516561853e-19
5.531861848e-19
5.560923527e-19
5.602337359e-19
5.654793238e-19
5.717103004e-19
5.788205321e-19
5.867167999e-19
5.953177449e-19
6.045532431e-19
6.143631031e-19
6.246969099e-19
6.355122141e-19
6.467738526e-19
6.584524989e-19
6.705246782e-19
6.829712591e-19
6.957784653e-19
7.089363399e-19
7.224375179e-19
7.362772998e-19
7.504523563e-19
7.649613834e-19
7.798047827e-19
7.94984745e-19
8.105048129e-19
8.274457116e-19
8.455922621e-19
8.641756855e-19
8.832086616e-19
9.027041605e-19
9.226756967e-19
9.431378558e-19
9.641064722e-19
9.855986487e-19
1.007631379e-18
1.030219176e-18
1.05337782e-18
1.077128029e-18
1.101491911e-18
1.126491881e-18
1.152150521e-18
1.178489817e-18
1.205532408e-18
1.233300213e-18
1.261813572e-18
1.291089835e-18
1.321139145e-18
1.351959925e-18
1.383524307e-18
1.415733408e-18
1.448657604e-18
1.482417299e-18
1.517079707e-18
1.552726076e-18
1.589414552e-18
1.627195067e-18
1.666114626e-18
1.706218738e-18
1.747553621e-18
1.790165768e-18
1.834102497e-18
1.879415446e-18
1.926160761e-18
1.974396175e-18
2.02417955e-18
2.080311219e-18
2.141490877e-18
2.20481969e-18
2.270391036e-18
2.338302154e-18
2.442002955e-18
2.849821195e-18
3.28054549e-18
3.735330652e-18
4.215385889e-18
4.721994419e-18
5.256498038e-18
5.82031886e-18
6.415019775e-18
7.042481385e-18
7.705279609e-18
8.404793942e-18
9.142603411e-18
9.920622124e-18
1.074101703e-17
1.160608509e-17
1.251824945e-17
1.347997739e-17
1.457129015e-17
1.57579136e-17
1.701920917e-17
1.835999299e-17
1.978530019e-17
2.130029391e-17
2.291063142e-17
2.462275323e-17
2.644224056e-17
2.837605627e-17
3.043012189e-17
3.261051825e-17
3.492628838e-17
3.738650442e-17
4.000019619e-17
4.29412563e-17
4.627998579e-17
4.984252663e-17
5.364121855e-17
5.769184122e-17
6.20097347e-17
6.921304525e-17
9.133396739e-17
1.155455358e-16
1.419504126e-16
1.706342658e-16
2.016685144e-16
2.364670451e-16
2.747764727e-16
3.158920067e-16
3.591113849e-16
4.057825715e-16
4.547114329e-16
5.084495058e-16
5.648341358e-16
6.277332845e-16
6.937077635e-16
7.682423472e-16
9.808073581e-16
1.330341662e-15
1.712751145e-15
2.164287397e-15
2.650770937e-15
3.229169119e-15
3.857718162e-15
4.627535789e-15
5.493899094e-15
8.118112975e-15
1.201572676e-14
1.728262583e-14
2.365114688e-14
3.205307708e-14
5.333280662e-14
8.773846023e-14
1.324786919e-13
2.286093351e-13
3.985994082e-13
6.783108185e-13
1.34437757e-12
2.638244962e-12
5.343947608e-12
1.235546275e-11
2.911447356e-11
7.60892006e-11
2.148694714e-10
6.814757347e-10
2.28521815e-09
9.008983241e-09
3.72066978e-08
1.75349808e-07
1.093815938e-06
9.959469414e-06
7.417673977e-05
0.0002423256292
0.0004279111695
0.000559208441
0.0006286838
0.0006502325844
0.0006388055121
0.0006056697537
0.0005595763092
0.0005067660683
0.0004518049363
0.0003981435374
0.000347759604
0.00030192903
0.0002612105664
0.0002256487753
0.000194949827
0.0001687027679
0.0001463365244
0.000127359859
0.0001112565788
9.75558622e-05
8.589733674e-05
7.590557586e-05
6.725680089e-05
5.97602514e-05
5.323404453e-05
4.747849002e-05
4.239451259e-05
3.786914399e-05
3.38094005e-05
3.018825307e-05
2.694886334e-05
2.40401236e-05
2.14279202e-05
1.90919508e-05
1.701835793e-05
1.518628626e-05
1.35698964e-05
1.214281648e-05
1.088071494e-05
9.762165264e-06
8.76868489e-06
7.884460596e-06
7.095984683e-06
6.391687294e-06
5.761616085e-06
5.197174503e-06
4.690904669e-06
4.236310306e-06
3.827709675e-06
3.460118206e-06
3.129149561e-06
2.830933297e-06
2.562045874e-06
2.319452342e-06
2.100457101e-06
1.902661526e-06
1.723927836e-06
1.562347843e-06
1.416215985e-06
1.284005909e-06
1.164350048e-06
1.056021814e-06
9.579199947e-07
8.690550471e-07
7.885370366e-07
7.15564992e-07
6.494175055e-07
5.894444039e-07
5.350593559e-07
4.857333002e-07
4.409886097e-07
4.003938704e-07
3.635592442e-07
3.301323097e-07
2.997943467e-07
2.72257008e-07
2.472593378e-07
2.245650937e-07
2.039603461e-07
1.852513144e-07
1.682624267e-07
1.528345707e-07
1.38823519e-07
1.260985103e-07
1.145409684e-07
1.040433501e-07
9.450810015e-08
8.584671198e-08
7.797887643e-08
7.0831713e-08
6.433907465e-08
5.844091897e-08
5.308273874e-08
4.821504741e-08
4.379291179e-08
3.977553022e-08
3.612584951e-08
3.281021825e-08
2.979807244e-08
2.706165059e-08
2.457573515e-08
2.231741854e-08
2.026589042e-08
1.840224489e-08
1.670930565e-08
1.517146722e-08
1.377455082e-08
1.25056737e-08
1.135313029e-08
1.030628457e-08
9.355472066e-09
8.491911045e-09
7.707621768e-09
6.995353237e-09
6.348516583e-09
5.761124583e-09
5.227736699e-09
4.743409189e-09
4.303649816e-09
3.904376519e-09
3.54188011e-09
3.2127902e-09
2.914044264e-09
2.642859626e-09
2.396707831e-09
2.173291593e-09
1.970523562e-09
1.786507302e-09
1.619519775e-09
1.467995596e-09
1.330512603e-09
1.205778839e-09
1.092620553e-09
9.899715746e-10
8.968633589e-10
8.124161676e-10
7.358308919e-10
6.663817089e-10
6.034093942e-10
5.463152679e-10
4.945555912e-10
4.476366071e-10
4.051099366e-10
3.665684567e-10
3.316424433e-10
2.999963084e-10
2.713252578e-10
2.453526461e-10
2.218274113e-10
2.005215067e-10
1.812280775e-10
1.63759302e-10
1.479447414e-10
1.336297388e-10
1.206740011e-10
1.089501149e-10
9.834257125e-11
8.874653519e-11
8.006695516e-11
7.221759543e-11
6.51201865e-11
5.870383471e-11
5.290419128e-11
4.766291972e-11
4.292716015e-11
3.864901927e-11
3.4784982e-11
3.129565499e-11
2.814541093e-11
2.530185825e-11
2.273570612e-11
2.042041316e-11
1.833193525e-11
1.644844143e-11
1.475027516e-11
1.321958054e-11
1.184017455e-11
1.059747107e-11
9.478138771e-12
8.470210955e-12
7.562879611e-12
6.746341069e-12
6.011743991e-12
5.351017987e-12
4.756953396e-12
4.222950149e-12
3.74313522e-12
3.312119322e-12
2.925091452e-12
2.57768282e-12
2.2659184e-12
1.986249846e-12
1.735490412e-12
1.510728928e-12
1.309322338e-12
1.128938906e-12
9.674046002e-13
8.228610859e-13
6.935709795e-13
5.779134942e-13
4.745907071e-13
3.822957505e-13
2.998416841e-13
2.262525484e-13
1.605890048e-13
1.020947973e-13
4.995076405e-14
3.479989684e-15
0
0
0
0
0
0
0
0
0
0
0
0
0
0
0
0
0
0
0
0
0
0
0
0
0
0
0
0
0
0
0
0
0
0
0
0
0
0
0
0
0
0
0
0
0
0
0
0
0
0
0
0
0
0
0
0
0
0
0
0
0
0
0
0
0
0
0
0
0
0
0
0
0
0
0
0
0
0
0
0
0
0
0
0
0
0
0
0
0
0
0
0
0
0
0
0
0
0
0
0
0
0
0
0
0
0
0
0
0
0
0
0
0
0
0
0
0
0
0
0
0
0
0
0
0
0
0
0
0
0
0
0
0
0
0
0
0
0
0
0
0
0
0
0
0
0
0
0
0
0
0
0
0
0
0
0
0
0
0
0
0
0
0
0
0
0
0
0
0
0
0
0
0
0
0
0
0
0
0
0
0
0
0
0
0
0
0
0
0
0
0
0
0
0
0
0
0
0
0
0
0
0
0
0
0
0
0
0
0
0
0
0
0
0
0
0
0
0
0
0
0
0
0
0
0
0
0
0
0
2.284837132e-18
2.290531053e-18
2.301301774e-18
2.31660191e-18
2.335936367e-18
2.35886144e-18
2.38498325e-18
2.413955955e-18
2.445478218e-18
2.4792899e-18
2.515168636e-18
2.552927452e-18
2.592409948e-18
2.633486037e-18
2.676047459e-18
2.720005211e-18
2.76528776e-18
2.81184474e-18
2.859640611e-18
2.908648768e-18
2.95885117e-18
3.010235996e-18
3.062796412e-18
3.11653294e-18
3.171455582e-18
3.227584778e-18
3.288086441e-18
3.352316039e-18
3.41802022e-18
3.485234763e-18
3.554000426e-18
3.624361756e-18
3.69636721e-18
3.770069792e-18
3.845528716e-18
3.922816281e-18
4.001965516e-18
4.083006636e-18
4.166023054e-18
4.251097185e-18
4.33830498e-18
4.427721413e-18
4.519420541e-18
4.613477885e-18
4.70997048e-18
4.808973395e-18
4.910555142e-18
5.014766182e-18
5.121644852e-18
5.231215937e-18
5.34351208e-18
5.458663958e-18
5.78768202e-18
6.676972376e-18
7.600633025e-18
8.560573313e-18
9.558600559e-18
1.059644296e-17
1.167582465e-17
1.279851351e-17
1.40033363e-17
1.526732732e-17
1.658900994e-17
1.797122526e-17
1.941684203e-17
2.092882293e-17
2.251003886e-17
2.416380132e-17
2.589372129e-17
2.770350252e-17
2.959713816e-17
3.157908471e-17
3.365439938e-17
3.582658899e-17
3.809997171e-17
4.047928341e-17
4.296958443e-17
4.557616134e-17
4.830443956e-17
5.115959599e-17
5.414803763e-17
5.748589467e-17
6.105282498e-17
6.48054619e-17
6.875355797e-17
7.290772354e-17
7.727924389e-17
8.188004474e-17
8.672273819e-17
9.18210318e-17
9.718916339e-17
1.028419803e-16
1.087986531e-16
1.150789705e-16
1.216993142e-16
1.287655581e-16
1.368483754e-16
1.454003919e-16
1.544498696e-16
1.640262881e-16
2.098619254e-16
2.619406925e-16
3.18353925e-16
3.794200618e-16
4.454055892e-16
5.166279953e-16
5.93508426e-16
6.812749701e-16
7.765652494e-16
8.798778591e-16
9.917233387e-16
1.112628636e-15
1.243048812e-15
1.383421952e-15
1.534164757e-15
1.695652708e-15
1.879324761e-15
2.07878983e-15
2.291315561e-15
2.835976916e-15
3.745071149e-15
4.736250706e-15
5.823491504e-15
7.009467999e-15
8.315134471e-15
9.77571198e-15
1.143828871e-14
1.327472751e-14
1.533268531e-14
1.76129118e-14
2.403147868e-14
3.258474761e-14
4.243808111e-14
5.428512296e-14
6.83883201e-14
8.511461738e-14
1.140142909e-13
1.738168971e-13
2.514473848e-13
3.484635944e-13
4.988249462e-13
8.295145515e-13
1.27932454e-12
2.012704463e-12
3.528279194e-12
5.696940361e-12
1.089096434e-11
2.012622144e-11
3.906040641e-11
8.214195013e-11
1.810702141e-10
4.171502209e-10
1.054786247e-09
2.793029032e-09
8.100668134e-09
2.524462727e-08
8.51115534e-08
3.102061088e-07
1.278700935e-06
6.217765285e-06
3.144779997e-05
0.0001152611258
0.0002633650239
0.0004222226439
0.0005475546499
0.0006265001113
0.0006633151524
0.000666916277
0.0006464563237
0.0006094084166
0.0005621339478
0.0005097940471
0.0004562033092
0.0004039765005
0.0003550819662
0.0003105001096
0.0002706737936
0.0002356032199
0.0002051010706
0.0001788380246
0.0001562122574
0.0001368104454
0.0001200738259
0.00010564677
9.315783674e-05
8.228414189e-05
7.280288185e-05
6.447258102e-05
5.717454941e-05
5.077076829e-05
4.513073097e-05
4.014791855e-05
3.574183075e-05
3.183670739e-05
2.837096493e-05
2.52959866e-05
2.25708696e-05
2.01590834e-05
1.802551493e-05
1.613666871e-05
1.446201223e-05
1.29747765e-05
1.165176716e-05
1.047293553e-05
9.420967173e-06
8.480913844e-06
7.639819565e-06
6.886403186e-06
6.210819651e-06
5.604450208e-06
5.05973195e-06
4.570002113e-06
4.129383697e-06
3.732681014e-06
3.375291565e-06
3.053131168e-06
2.762569217e-06
2.500374383e-06
2.26366627e-06
2.049874262e-06
1.856701388e-06
1.682092976e-06
1.524209305e-06
1.381401446e-06
1.252190207e-06
1.13524758e-06
1.02938035e-06
9.335156572e-07
8.466881886e-07
7.680288597e-07
6.967547732e-07
6.321602696e-07
5.736089729e-07
5.205267225e-07
4.723952326e-07
4.287464785e-07
3.891576433e-07
3.53246607e-07
3.206679067e-07
2.911091181e-07
2.642876063e-07
2.399476151e-07
2.178576404e-07
1.978080803e-07
1.796091161e-07
1.63088806e-07
1.480913689e-07
1.344756358e-07
1.221136585e-07
1.108894471e-07
1.006978383e-07
9.144346895e-08
8.303985062e-08
7.540853296e-08
6.847834787e-08
6.21847253e-08
5.646907619e-08
5.127823143e-08
4.656393674e-08
4.2282394e-08
3.839384642e-08
3.486220265e-08
3.165469665e-08
2.874157879e-08
2.609583704e-08
2.369294321e-08
2.151062352e-08
1.952865027e-08
1.772865323e-08
1.609394817e-08
1.460938182e-08
1.326119056e-08
1.203687304e-08
1.092507375e-08
9.915477897e-09
8.998715821e-09
8.166276258e-09
7.410427522e-09
6.724146048e-09
6.101051516e-09
5.535347802e-09
5.021769554e-09
4.555533526e-09
4.132294485e-09
3.748105006e-09
3.399379241e-09
3.08285966e-09
2.795587051e-09
2.534873332e-09
2.298276615e-09
2.083578732e-09
1.888764819e-09
1.712004673e-09
1.55163583e-09
1.406148296e-09
1.274170532e-09
1.154456861e-09
1.045875864e-09
9.474000018e-10
8.580960773e-10
7.771166088e-10
7.03691953e-10
6.37123225e-10
5.767757963e-10
5.220734401e-10
4.724929232e-10
4.275592179e-10
3.868409958e-10
3.49946761e-10
3.16521032e-10
2.862411169e-10
2.588142126e-10
2.339744215e-10
2.11480498e-10
1.911135286e-10
1.726747178e-10
1.559838605e-10
1.40877276e-10
1.272065579e-10
1.148369966e-10
1.036464931e-10
9.352419401e-11
8.436954416e-11
7.609143222e-11
6.860717258e-11
6.184181128e-11
5.57273593e-11
5.020222729e-11
4.521052416e-11
4.070161135e-11
3.662959e-11
3.295290418e-11
2.963384781e-11
2.663826994e-11
2.393522712e-11
2.149671362e-11
1.929729396e-11
1.73140279e-11
1.552611841e-11
1.391471434e-11
1.246278085e-11
1.115483879e-11
9.976912012e-12
8.91638171e-12
7.961836952e-12
7.102942933e-12
6.330285054e-12
5.635478907e-12
5.01084356e-12
4.449456744e-12
3.945085109e-12
3.492111077e-12
3.085410928e-12
2.720397788e-12
2.392887453e-12
2.099155588e-12
1.835843621e-12
1.599828497e-12
1.388417291e-12
1.199075517e-12
1.029591785e-12
8.779519444e-13
7.422933942e-13
6.210591027e-13
5.127145849e-13
4.159351187e-13
3.295517055e-13
2.524565134e-13
1.837264161e-13
1.224221376e-13
6.780285601e-14
1.915453951e-14
0
0
0
0
0
0
0
0
0
0
0
0
0
0
0
0
0
0
0
0
0
0
0
0
0
0
0
0
0
0
0
0
0
0
0
0
0
0
0
0
0
0
0
0
0
0
0
0
0
0
0
0
0
0
0
0
0
0
0
0
0
0
0
0
0
0
0
0
0
0
0
0
0
0
0
0
0
0
0
0
0
0
0
0
0
0
0
0
0
0
0
0
0
0
0
0
0
0
0
0
0
0
0
0
0
0
0
0
0
0
0
0
0
0
0
0
0
0
0
0
0
0
0
0
0
0
0
0
0
0
0
0
0
0
0
0
0
0
0
0
0
0
0
0
0
0
0
0
0
0
0
0
0
0
0
0
0
0
0
0
0
0
0
0
0
0
0
0
0
0
0
0
0
0
0
0
0
0
0
0
0
0
0
0
0
0
0
0
0
0
0
0
0
0
0
0
0
0
0
0
0
0
0
0
0
0
0
0
0
0
0
0
0
0
0
0
0
0
0
0
0
0
0
0
0
0
0
0
6.119090269e-18
6.133600911e-18
6.160967081e-18
6.199741017e-18
6.248637614e-18
6.306518871e-18
6.372382673e-18
6.445352464e-18
6.524666435e-18
6.609666982e-18
6.699792084e-18
6.794572241e-18
6.893616872e-18
6.996600882e-18
7.103253439e-18
7.213346554e-18
7.326670739e-18
7.443123046e-18
7.562625031e-18
7.68511275e-18
7.810541172e-18
7.938881078e-18
8.070113581e-18
8.204219405e-18
8.341225365e-18
8.481205623e-18
8.624239489e-18
8.770384125e-18
8.919688851e-18
9.072222546e-18
9.228066803e-18
9.387312876e-18
9.55006037e-18
9.716416571e-18
9.886494817e-18
1.007738863e-17
1.027400791e-17
1.161459244e-17
1.330013136e-17
1.504519122e-17
1.685194916e-17
1.872261214e-17
2.065942196e-17
2.266469347e-17
2.47408899e-17
2.68909163e-17
2.911770823e-17
3.142230922e-17
3.380654879e-17
3.627251308e-17
3.882283846e-17
4.146153542e-17
4.419400207e-17
4.702587471e-17
4.996132626e-17
5.300525648e-17
5.616268998e-17
5.943838702e-17
6.283721719e-17
6.636425195e-17
7.002463855e-17
7.391567707e-17
7.809938584e-17
8.245951282e-17
8.700423926e-17
9.174261773e-17
9.668577442e-17
1.018414306e-16
1.072180274e-16
1.128256712e-16
1.186754428e-16
1.24779283e-16
1.31149596e-16
1.377982838e-16
1.447379086e-16
1.519819546e-16
1.595447751e-16
1.674414767e-16
1.756879433e-16
1.846845755e-16
1.945243095e-16
2.048371171e-16
2.156490578e-16
2.26987185e-16
2.388772279e-16
2.513501209e-16
2.644378424e-16
2.781737201e-16
2.925927854e-16
3.077319975e-16
3.236307097e-16
3.795626201e-16
4.709572991e-16
5.706142626e-16
6.778461195e-16
7.931193446e-16
9.169238107e-16
1.049844883e-15
1.19248811e-15
1.345503458e-15
1.509625256e-15
1.685589743e-15
1.876863157e-15
2.094469129e-15
2.329044255e-15
2.581715629e-15
2.853696935e-15
3.146304499e-15
3.4608101e-15
3.798639719e-15
4.161194662e-15
4.583029648e-15
5.045589178e-15
6.158874609e-15
8.041321242e-15
1.010941865e-14
1.237379915e-14
1.48433952e-14
1.758403248e-14
2.070215801e-14
2.411811054e-14
2.785754399e-14
3.196014563e-14
3.646155065e-14
4.141669958e-14
5.133963974e-14
6.958017566e-14
9.031181018e-14
1.139228119e-13
1.407799195e-13
1.71454286e-13
2.078858895e-13
2.522810446e-13
3.663763702e-13
5.061203031e-13
6.796751602e-13
9.044226033e-13
1.199107243e-12
1.881692222e-12
2.790815044e-12
3.996660631e-12
6.405407917e-12
1.02640479e-11
1.598185208e-11
2.830462588e-11
4.725758241e-11
8.739560147e-11
1.625593738e-10
3.121405526e-10
6.355260894e-10
1.355670351e-09
3.037461961e-09
7.155906624e-09
1.750820285e-08
4.526287016e-08
1.236300872e-07
3.568945186e-07
1.111028536e-06
3.814720333e-06
1.419709475e-05
4.902901899e-05
0.0001312617657
0.0002598509968
0.0004038885463
0.0005312962833
0.0006251228797
0.0006815479215
0.0007042967339
0.0006995535584
0.0006745020195
0.000635403115
0.0005875968849
0.0005355148298
0.0004823981673
0.0004307259097
0.0003820689227
0.0003373345373
0.0002971517063
0.0002614528773
0.0002299314246
0.0002022820725
0.0001781118163
0.0001569039006
0.0001383142983
0.0001220548612
0.0001078430532
9.54152095e-05
8.452707566e-05
7.49727887e-05
6.65790858e-05
5.918639437e-05
5.266166398e-05
4.689936157e-05
4.180395801e-05
3.729142058e-05
3.329445948e-05
2.975284636e-05
2.661219305e-05
2.382488373e-05
2.134877869e-05
1.914596833e-05
1.718383715e-05
1.543415781e-05
1.387219655e-05
1.247628513e-05
1.122755093e-05
1.010948745e-05
9.107559708e-06
8.208985352e-06
7.402494458e-06
6.678160493e-06
6.0271788e-06
5.44175674e-06
4.914984122e-06
4.440724449e-06
4.013522114e-06
3.62851801e-06
3.281383686e-06
2.968257493e-06
2.685691541e-06
2.430604138e-06
2.200238459e-06
1.992126749e-06
1.804057808e-06
1.634048964e-06
1.480321237e-06
1.341277262e-06
1.215481938e-06
1.101645059e-06
9.986060495e-07
9.053204299e-07
8.208476654e-07
7.44340419e-07
6.750349662e-07
6.122426034e-07
5.553420709e-07