/*--------------------------------*- C++ -*----------------------------------*\
| =========                 |                                                 |
| \\      /  F ield         | OpenFOAM: The Open Source CFD Toolbox           |
|  \\    /   O peration     | Version:  v2006                                 |
|   \\  /    A nd           | Website:  www.openfoam.com                      |
|    \\/     M anipulation  |                                                 |
\*---------------------------------------------------------------------------*/
FoamFile
{
    version     2.0;
    format      ascii;
    class       volScalarField;
    location    "0.1";
    object      C2H5;
}
// * * * * * * * * * * * * * * * * * * * * * * * * * * * * * * * * * * * * * //

dimensions      [0 0 0 0 0 0 0];


internalField   nonuniform List<scalar> 
72000
(
2.846194589e-23
2.846544609e-23
2.847224124e-23
2.848202403e-23
2.84944742e-23
2.850928281e-23
2.852615696e-23
2.854483833e-23
2.856509168e-23
2.858671585e-23
2.860953026e-23
2.863338592e-23
2.865815579e-23
2.868373107e-23
2.871002224e-23
2.873695577e-23
2.876446932e-23
2.87925157e-23
2.882105708e-23
2.885006217e-23
2.887951124e-23
2.890941851e-23
2.893974619e-23
2.897048016e-23
2.900161583e-23
2.903314675e-23
2.906506792e-23
2.909738849e-23
2.913012092e-23
2.916327921e-23
2.919687619e-23
2.923092457e-23
2.926543663e-23
2.930042267e-23
2.933589866e-23
2.937188019e-23
2.940838045e-23
2.944541277e-23
2.94829969e-23
2.95211514e-23
2.955989402e-23
2.959924349e-23
2.9639216e-23
2.967983092e-23
2.972110323e-23
2.976304857e-23
2.980567842e-23
2.984899816e-23
2.989299945e-23
2.993766012e-23
2.998370235e-23
3.003084847e-23
3.007875777e-23
3.012748878e-23
3.017709526e-23
3.022761801e-23
3.027908814e-23
3.033154107e-23
3.03850037e-23
3.043950394e-23
3.049507293e-23
3.055173028e-23
3.060951494e-23
3.066845349e-23
3.072858239e-23
3.079320689e-23
3.088807276e-23
3.098500668e-23
3.108409842e-23
3.118541875e-23
3.128902729e-23
3.139498067e-23
3.150332097e-23
3.161414926e-23
3.172755794e-23
3.184361411e-23
3.196241624e-23
3.208402689e-23
3.220853323e-23
3.233602141e-23
3.246657488e-23
3.260031843e-23
3.273735023e-23
3.287777801e-23
3.302170596e-23
3.316925306e-23
3.332052249e-23
3.347562012e-23
3.36347219e-23
3.37979422e-23
3.396536852e-23
3.413717902e-23
3.431353636e-23
3.449457858e-23
3.468048121e-23
3.487139805e-23
3.506750141e-23
3.526894423e-23
3.547567737e-23
3.56880819e-23
3.59063299e-23
3.613060247e-23
3.636107757e-23
3.659788687e-23
3.684117815e-23
3.709107253e-23
3.734771251e-23
3.761117298e-23
3.788146229e-23
3.815834337e-23
3.844197798e-23
3.873202278e-23
3.902807005e-23
3.933020596e-23
3.968086846e-23
4.021840185e-23
4.003997907e-23
4.362259952e-23
3.388599817e-23
5.365028088e-23
3.398080111e-23
6.508341703e-23
3.40157034e-23
7.787848994e-23
3.401836591e-23
9.174150974e-23
3.395963676e-23
1.071659909e-22
3.394824736e-23
1.250015295e-22
3.386237673e-23
1.460452983e-22
3.372378751e-23
1.730070592e-22
3.33079389e-23
2.235280078e-22
3.329301657e-23
2.474101289e-22
3.336574035e-23
2.734296371e-22
3.398902193e-23
3.063775931e-22
3.563124314e-23
3.752584836e-22
3.878766431e-23
4.754639221e-22
4.272855038e-23
6.029132302e-22
4.649317359e-23
8.820966585e-22
5.081946382e-23
1.295882e-21
5.718066026e-23
2.518242746e-21
6.617714066e-23
4.563633032e-21
7.678379612e-23
8.023004251e-23
8.085365469e-23
4.576995035e-19
4.965802789e-21
1.982607336e-08
2.604184228e-06
6.126239952e-06
5.158813384e-06
3.243099391e-06
1.814870631e-06
9.468308998e-07
4.598651368e-07
2.072911801e-07
8.846691872e-08
3.392311012e-08
1.31472403e-08
4.271818802e-09
1.46092801e-09
5.214656398e-10
1.678916817e-10
4.298994299e-11
1.121802042e-11
4.440879406e-12
2.059385009e-12
8.706849853e-13
4.742346145e-13
2.013053747e-13
1.213665016e-13
7.890467101e-14
4.790995063e-14
2.899075381e-14
2.211306428e-14
1.680164529e-14
1.272084008e-14
9.598467473e-15
7.097404581e-15
5.088182034e-15
3.940245983e-15
3.280551379e-15
2.648483933e-15
2.127956157e-15
1.715446429e-15
1.391555393e-15
1.136873248e-15
9.35449915e-16
7.749699254e-16
6.461218075e-16
5.418931134e-16
4.569826216e-16
3.873533699e-16
3.299047466e-16
2.822346264e-16
2.424665401e-16
2.091232631e-16
1.810335431e-16
1.572626462e-16
1.370600724e-16
1.198198588e-16
1.050501802e-16
9.234988101e-17
8.139023297e-17
7.190065882e-17
6.365749767e-17
5.647510996e-17
5.019880116e-17
4.469916594e-17
3.986754736e-17
3.561237623e-17
3.185620758e-17
2.853331329e-17
2.558771887e-17
2.297159723e-17
2.064394996e-17
1.856952094e-17
1.671789857e-17
1.506277158e-17
1.358131028e-17
1.225365034e-17
1.106246102e-17
9.992582756e-18
9.030722208e-18
8.165194745e-18
7.385706498e-18
6.683169222e-18
6.049542715e-18
5.477700152e-18
4.961312787e-18
4.494750905e-18
4.072998525e-18
3.691579728e-18
3.346494848e-18
3.034165067e-18
2.751384192e-18
2.495276564e-18
2.263260236e-18
2.053014686e-18
1.862452437e-18
1.689694064e-18
1.533046129e-18
1.390981686e-18
1.262122987e-18
1.145226135e-18
1.039167459e-18
9.429313583e-19
8.555994755e-19
7.763410232e-19
7.044041258e-19
6.391080834e-19
5.798364235e-19
5.260306713e-19
4.771847503e-19
4.32839952e-19
3.925804032e-19
3.560289879e-19
3.228436702e-19
2.92714176e-19
2.653590017e-19
2.405227079e-19
2.179734758e-19
1.975009014e-19
1.789139962e-19
1.62039379e-19
1.467196408e-19
1.328118619e-19
1.201862716e-19
1.087250294e-19
9.832112609e-20
8.887738102e-20
8.030554021e-20
7.252544991e-20
6.546431294e-20
5.905601437e-20
5.324050467e-20
4.796324402e-20
4.317469536e-20
3.882986772e-20
3.488789762e-20
3.131167133e-20
2.806748002e-20
2.512470839e-20
2.245555252e-20
2.003476048e-20
1.783939941e-20
1.584864248e-20
1.404357628e-20
1.240702658e-20
1.092339829e-20
9.578529532e-21
8.359562813e-21
7.254822794e-21
6.253710153e-21
5.346602406e-21
4.524763382e-21
3.780262262e-21
3.105901377e-21
2.495146138e-21
1.942066766e-21
1.441280188e-21
9.879022612e-22
5.774998812e-22
2.060522595e-22
0
0
0
0
0
0
0
0
0
0
0
0
0
0
0
0
0
0
0
0
0
0
0
0
0
0
0
0
0
0
0
0
0
0
0
0
0
0
0
0
0
0
0
0
0
0
0
0
0
0
0
0
0
0
0
0
0
0
0
0
0
0
0
0
0
0
0
0
0
0
0
0
0
0
0
0
0
0
0
0
0
0
0
0
0
0
0
0
0
0
0
0
0
0
0
0
0
0
0
0
0
0
0
0
0
0
0
0
0
0
0
0
0
0
0
0
0
0
0
0
0
0
0
0
0
0
0
0
0
0
0
0
0
0
0
0
0
0
0
0
0
0
0
0
0
0
0
0
0
0
0
0
0
0
0
0
0
0
0
0
0
0
0
0
0
0
0
0
0
0
0
0
0
0
0
0
0
0
0
0
0
0
0
0
0
0
0
0
0
0
0
0
0
0
0
0
0
0
0
0
0
0
0
0
0
0
0
0
0
0
0
0
0
0
0
0
0
0
0
0
0
0
0
0
0
0
0
0
0
0
0
0
0
0
0
0
0
0
0
0
0
0
0
0
0
0
0
0
0
0
0
0
0
0
0
0
0
0
0
0
0
0
0
0
0
0
0
0
0
0
0
0
0
0
0
0
0
0
0
0
0
0
2.585811436e-21
2.596076954e-21
2.615699848e-21
2.643776683e-21
2.679453834e-21
2.721963498e-21
2.770612803e-21
2.824807511e-21
2.884025421e-21
2.94782448e-21
3.015816876e-21
3.087687819e-21
3.163172645e-21
3.242050157e-21
3.324141128e-21
3.409302997e-21
3.497416488e-21
3.58840572e-21
3.682215031e-21
3.778803937e-21
3.878155681e-21
3.980257604e-21
4.085112043e-21
4.192731761e-21
4.303146671e-21
4.416385702e-21
4.532477019e-21
4.651490685e-21
4.773513049e-21
4.898632543e-21
5.026939517e-21
5.158527777e-21
5.293496037e-21
5.431945473e-21
5.573993307e-21
5.71975198e-21
5.86932117e-21
6.022806168e-21
6.180343041e-21
6.342079581e-21
6.508163649e-21
6.678746982e-21
6.853973889e-21
7.033996626e-21
7.218951332e-21
7.408960376e-21
7.604108699e-21
7.804415925e-21
8.009779434e-21
8.219897343e-21
8.473560588e-21
8.75670823e-21
9.048727262e-21
9.350363875e-21
9.662309465e-21
9.985156647e-21
1.031943571e-20
1.066567023e-20
1.102436611e-20
1.139603345e-20
1.178119702e-20
1.218039842e-20
1.259423596e-20
1.302330716e-20
1.34682185e-20
1.392950858e-20
1.440761396e-20
1.490374125e-20
1.541867107e-20
1.595322407e-20
1.650819926e-20
1.708428096e-20
1.768187695e-20
1.830253376e-20
1.894744253e-20
1.961769533e-20
2.031451268e-20
2.103901437e-20
2.179245758e-20
2.257625066e-20
2.339192704e-20
2.424123717e-20
2.512568322e-20
2.604687628e-20
2.70064458e-20
2.80062982e-20
2.904830251e-20
3.013449521e-20
3.163773103e-20
3.325022892e-20
3.49404031e-20
3.671280208e-20
3.857210125e-20
4.052308145e-20
4.257103908e-20
4.472122984e-20
4.697950358e-20
4.935158462e-20
6.028505348e-20
7.247644692e-20
8.573839044e-20
1.001478486e-19
1.157874264e-19
1.32740938e-19
1.510938098e-19
1.70936352e-19
1.923684942e-19
2.15493993e-19
2.413698485e-19
2.739193096e-19
3.095263679e-19
3.483422264e-19
3.905304591e-19
4.361820686e-19
4.852400601e-19
5.375988783e-19
5.934397341e-19
6.512868828e-19
7.15613533e-19
7.681385628e-19
8.393650106e-19
8.897614872e-19
9.721446844e-19
1.023021561e-18
1.120829994e-18
1.17409682e-18
1.396013582e-18
1.683406323e-18
2.446782636e-18
2.79025373e-18
3.781451208e-18
4.176263775e-18
5.444264191e-18
5.90058032e-18
7.565431049e-18
8.161063663e-18
1.080367596e-17
1.214072102e-17
1.758942525e-17
2.47421173e-17
4.895125497e-17
6.565551612e-17
1.092858185e-16
1.409495962e-16
3.355788829e-16
4.987455426e-16
9.997315808e-16
1.577980151e-15
4.443692757e-15
7.486675575e-15
2.494678182e-14
5.458074563e-14
2.124868601e-13
5.310323708e-13
2.651417758e-12
8.969709757e-12
6.488432505e-11
3.059447185e-10
1.388871827e-09
7.261807533e-09
8.825876831e-08
1.496702876e-06
7.731180855e-06
1.105769458e-05
9.536531434e-06
6.752756752e-06
4.326461125e-06
2.577642322e-06
1.437480375e-06
7.415715876e-07
3.588695667e-07
1.616178285e-07
6.671140417e-08
2.650716832e-08
1.030729978e-08
3.457796222e-09
1.312061854e-09
3.877731727e-10
1.646886783e-10
5.309122155e-11
1.461232961e-11
7.957402969e-12
4.114610232e-12
1.770930571e-12
5.125538667e-13
8.04651319e-14
5.969374008e-14
4.415761935e-14
3.228320489e-14
2.318144535e-14
1.666074379e-14
1.367309841e-14
1.122398736e-14
9.209190202e-15
7.525151552e-15
6.118331919e-15
4.958455469e-15
4.022142645e-15
3.275226028e-15
2.681056233e-15
2.207264722e-15
1.827615368e-15
1.521613905e-15
1.273470347e-15
1.071048402e-15
9.04990165e-16
7.680374406e-16
6.545220496e-16
5.599870902e-16
4.809049174e-16
4.144661164e-16
3.584203651e-16
3.109557156e-16
2.706060245e-16
2.361795149e-16
2.067032589e-16
1.81379741e-16
1.5955269e-16
1.406800361e-16
1.243124223e-16
1.100760352e-16
9.765883905e-17
8.67994912e-17
7.727838504e-17
6.891038739e-17
6.153892878e-17
5.503118031e-17
4.927410478e-17
4.417121444e-17
3.963990118e-17
3.560923156e-17
3.201812073e-17
2.881381602e-17
2.595063494e-17
2.338891066e-17
2.109411022e-17
1.90360938e-17
1.718849149e-17
1.55281773e-17
1.403482421e-17
1.269052662e-17
1.14794793e-17
1.038770333e-17
9.402811988e-18
8.513809817e-18
7.710920022e-18
6.985435635e-18
6.329590878e-18
5.736449798e-18
5.19980942e-18
4.71411555e-18
4.274389221e-18
3.876162372e-18
3.51542145e-18
3.188557862e-18
2.892324333e-18
2.623796445e-18
2.380338582e-18
2.159573802e-18
1.959357123e-18
1.777751764e-18
1.613008003e-18
1.463544346e-18
1.327930693e-18
1.20487333e-18
1.093201468e-18
9.918552004e-19
8.998746896e-19
8.163904725e-19
7.406147382e-19
6.718334888e-19
6.09399477e-19
5.527258512e-19
5.012804203e-19
4.545804808e-19
4.121881492e-19
3.737061483e-19
3.387739946e-19
3.070645551e-19
2.782809313e-19
2.521536413e-19
2.284380701e-19
2.069121556e-19
1.873743017e-19
1.696414767e-19
1.535475007e-19
1.389414854e-19
1.256864213e-19
1.136579012e-19
1.027429547e-19
9.283899736e-20
8.385287363e-20
7.569998929e-20
6.830352511e-20
6.159372289e-20
5.550723338e-20
4.998653112e-20
4.497937877e-20
4.043834126e-20
3.632034514e-20
3.258627757e-20
2.920062391e-20
2.613113863e-20
2.334854334e-20
2.082625431e-20
1.854013763e-20
1.646828227e-20
1.459079639e-20
1.288962345e-20
1.134837163e-20
9.952161675e-21
8.687490079e-21
7.542098027e-21
6.504862824e-21
5.565687687e-21
4.715411905e-21
3.945722884e-21
3.249077905e-21
2.618633928e-21
2.048181932e-21
1.532089476e-21
1.065249066e-21
6.43026744e-22
2.612183897e-22
0
0
0
0
0
0
0
0
0
0
0
0
0
0
0
0
0
0
0
0
0
0
0
0
0
0
0
0
0
0
0
0
0
0
0
0
0
0
0
0
0
0
0
0
0
0
0
0
0
0
0
0
0
0
0
0
0
0
0
0
0
0
0
0
0
0
0
0
0
0
0
0
0
0
0
0
0
0
0
0
0
0
0
0
0
0
0
0
0
0
0
0
0
0
0
0
0
0
0
0
0
0
0
0
0
0
0
0
0
0
0
0
0
0
0
0
0
0
0
0
0
0
0
0
0
0
0
0
0
0
0
0
0
0
0
0
0
0
0
0
0
0
0
0
0
0
0
0
0
0
0
0
0
0
0
0
0
0
0
0
0
0
0
0
0
0
0
0
0
0
0
0
0
0
0
0
0
0
0
0
0
0
0
0
0
0
0
0
0
0
0
0
0
0
0
0
0
0
0
0
0
0
0
0
0
0
0
0
0
0
0
0
0
0
0
0
0
0
0
0
0
0
0
0
0
0
0
0
0
0
0
0
0
0
0
0
0
0
0
0
0
0
0
0
0
0
0
0
0
0
0
0
0
0
0
0
0
0
0
0
0
0
0
0
0
0
0
0
0
0
0
0
0
0
0
0
4.083030334e-20
4.095423689e-20
4.11897805e-20
4.152568365e-20
4.195148086e-20
4.245767525e-20
4.303577957e-20
4.367833906e-20
4.437884538e-20
4.513168932e-20
4.593205513e-20
4.677591281e-20
4.765986948e-20
4.858112016e-20
4.953732856e-20
5.052663514e-20
5.154752773e-20
5.259893015e-20
5.368007761e-20
5.479041728e-20
5.59296191e-20
5.709746533e-20
5.829390912e-20
5.951904392e-20
6.077310643e-20
6.205644398e-20
6.350678328e-20
6.509633509e-20
6.672665781e-20
6.839898788e-20
7.011458978e-20
7.187477514e-20
7.368095112e-20
7.553463584e-20
7.743745934e-20
7.939105785e-20
8.13969004e-20
8.345657849e-20
8.557208733e-20
8.774553467e-20
8.997907152e-20
9.22748819e-20
9.463510635e-20
9.7061961e-20
9.955761102e-20
1.021241031e-19
1.047632661e-19
1.074763478e-19
1.102636398e-19
1.131232615e-19
1.160474536e-19
1.19042367e-19
1.221183552e-19
1.252814281e-19
1.285388329e-19
1.318959309e-19
1.353574335e-19
1.389278426e-19
1.426115467e-19
1.464129981e-19
1.503366013e-19
1.543870889e-19
1.585695472e-19
1.628894599e-19
1.673524714e-19
1.719642638e-19
1.77356748e-19
1.833556132e-19
1.895754838e-19
1.960260797e-19
2.027175476e-19
2.130466479e-19
2.543888148e-19
2.983062795e-19
3.449321173e-19
3.944058441e-19
4.46875507e-19
5.024960717e-19
5.614317016e-19
6.238620521e-19
6.90000635e-19
7.6013407e-19
8.344280677e-19
9.130699998e-19
9.962827643e-19
1.084317189e-18
1.177439161e-18
1.275929715e-18
1.380076537e-18
1.501397359e-18
1.634828013e-18
1.777271628e-18
1.929311768e-18
2.09156123e-18
2.264652544e-18
2.449275564e-18
2.646209972e-18
2.856152943e-18
3.079955999e-18
3.318360456e-18
3.572128373e-18
3.842355019e-18
4.130146572e-18
4.436611101e-18
4.788272966e-18
5.195680637e-18
5.63173391e-18
6.098029354e-18
6.596589758e-18
7.12938447e-18
8.033502619e-18
1.086838492e-17
1.399094315e-17
1.741561022e-17
2.1154485e-17
2.521756646e-17
2.984159814e-17
3.498523588e-17
4.053104532e-17
4.638041276e-17
5.271926889e-17
5.938224893e-17
6.672539148e-17
7.44477159e-17
8.309332586e-17
9.217963854e-17
1.024831065e-16
1.329341692e-16
1.835038202e-16
2.393936826e-16
3.060750411e-16
3.78347942e-16
4.649680503e-16
5.596159659e-16
6.765134804e-16
8.088821337e-16
1.222839708e-15
1.850202815e-15
2.714424812e-15
3.772158464e-15
5.183595396e-15
8.912064347e-15
1.506059005e-14
2.323085513e-14
4.143234739e-14
7.448477513e-14
1.30623122e-13
2.697468628e-13
5.502623046e-13
1.160119493e-12
2.814838873e-12
6.952562309e-12
1.9059222e-11
5.638075966e-11
1.860188701e-10
6.389699402e-10
2.518557841e-09
9.96555817e-09
4.136171394e-08
1.938876148e-07
1.085718765e-06
5.180107494e-06
1.239288539e-05
1.617080154e-05
1.529647167e-05
1.224873879e-05
8.8799804e-06
5.974678949e-06
3.763020353e-06
2.217906014e-06
1.209583741e-06
6.23099892e-07
2.95976119e-07
1.309313261e-07
5.471831175e-08
2.200436609e-08
8.578454131e-09
3.108207362e-09
1.075948345e-09
4.539826711e-10
1.457670607e-10
6.018449493e-11
2.978273399e-11
8.680825971e-12
3.20267285e-12
2.058898504e-12
1.245872371e-12
7.154843316e-13
3.120078239e-13
2.390072466e-14
1.947320186e-14
1.587949833e-14
1.297058489e-14
1.060635592e-14
8.676817153e-15
7.101462641e-15
5.820535251e-15
4.786059188e-15
3.953124877e-15
3.281698754e-15
2.738436794e-15
2.296685121e-15
1.935530476e-15
1.63866177e-15
1.393350959e-15
1.189628039e-15
1.019638996e-15
8.771585131e-16
7.572231238e-16
6.558527633e-16
5.698388259e-16
4.965812527e-16
4.339635123e-16
3.802550436e-16
3.340349499e-16
2.941319572e-16
2.595768722e-16
2.295648096e-16
2.034249445e-16
1.805962656e-16
1.606080127e-16
1.430638568e-16
1.276290549e-16
1.140199798e-16
1.019955667e-16
9.135029964e-17
8.19084419e-17
7.351927797e-17
6.605317738e-17
5.939833051e-17
5.345803313e-17
4.814842059e-17
4.339657269e-17
3.913892598e-17
3.53199362e-17
3.189095333e-17
2.880926867e-17
2.603730756e-17
2.354194339e-17
2.129391302e-17
1.926731716e-17
1.74391928e-17
1.578914521e-17
1.429903187e-17
1.29526891e-17
1.173569577e-17
1.063516818e-17
9.639581632e-18
8.738615153e-18
7.923015392e-18
7.184477874e-18
6.515542534e-18
5.909501929e-18
5.360320338e-18
4.862562351e-18
4.411329668e-18
4.00220519e-18
3.631203245e-18
3.294725483e-18
2.989521539e-18
2.71265397e-18
2.461466963e-18
2.233558358e-18
2.02675459e-18
1.839088288e-18
1.668778133e-18
1.5142108e-18
1.373924724e-18
1.246595506e-18
1.131022765e-18
1.026118316e-18
9.308954789e-19
8.444594812e-19
7.659987544e-19
6.947770992e-19
6.301265998e-19
5.714412201e-19
5.181710139e-19
4.698168834e-19
4.259258423e-19
3.86086722e-19
3.499262878e-19
3.171057162e-19
2.873174085e-19
2.602820986e-19
2.357462336e-19
2.134795988e-19
1.93273162e-19
1.749371224e-19
1.582991354e-19
1.432027067e-19
1.295057319e-19
1.17079174e-19
1.058058589e-19
9.557938822e-20
8.630314508e-20
7.788939877e-20
7.025848614e-20
6.33380722e-20
5.706247589e-20
5.137206021e-20
4.621267583e-20
4.153515977e-20
3.729487505e-20
3.345129683e-20
2.99676341e-20
2.681048738e-20
2.394953611e-20
2.135725795e-20
1.900866892e-20
1.688109252e-20
1.495394809e-20
1.320855442e-20
1.162796005e-20
1.019678035e-20
8.901055173e-21
7.728117552e-21
6.666475277e-21
5.705699929e-21
4.836332313e-21
4.049790968e-21
3.338292579e-21
2.694777423e-21
2.112841919e-21
1.586680371e-21
1.111027225e-21
6.811083885e-22
2.925961019e-22
0
0
0
0
0
0
0
0
0
0
0
0
0
0
0
0
0
0
0
0
0
0
0
0
0
0
0
0
0
0
0
0
0
0
0
0
0
0
0
0
0
0
0
0
0
0
0
0
0
0
0
0
0
0
0
0
0
0
0
0
0
0
0
0
0
0
0
0
0
0
0
0
0
0
0
0
0
0
0
0
0
0
0
0
0
0
0
0
0
0
0
0
0
0
0
0
0
0
0
0
0
0
0
0
0
0
0
0
0
0
0
0
0
0
0
0
0
0
0
0
0
0
0
0
0
0
0
0
0
0
0
0
0
0
0
0
0
0
0
0
0
0
0
0
0
0
0
0
0
0
0
0
0
0
0
0
0
0
0
0
0
0
0
0
0
0
0
0
0
0
0
0
0
0
0
0
0
0
0
0
0
0
0
0
0
0
0
0
0
0
0
0
0
0
0
0
0
0
0
0
0
0
0
0
0
0
0
0
0
0
0
0
0
0
0
0
0
0
0
0
0
0
0
0
0
0
0
0
0
0
0
0
0
0
0
0
0
0
0
0
0
0
0
0
0
0
0
0
0
0
0
0
0
0
0
0
0
0
0
0
0
0
0
0
0
0
0
0
0
0
0
0
2.200402618e-19
2.206349631e-19
2.21760344e-19
2.233598096e-19
2.253821804e-19
2.277815748e-19
2.305172444e-19
2.335533991e-19
2.368588455e-19
2.404066509e-19
2.441737904e-19
2.48140904e-19
2.522917998e-19
2.56613027e-19
2.610934098e-19
2.657237898e-19
2.704968318e-19
2.754074051e-19
2.804519414e-19
2.856278186e-19
2.909333364e-19
2.963674651e-19
3.019297151e-19
3.076203915e-19
3.13440776e-19
3.193932486e-19
3.259564965e-19
3.330319006e-19
3.402771877e-19
3.47696676e-19
3.552952537e-19
3.630782322e-19
3.710513551e-19
3.792208588e-19
3.875936191e-19
3.961777604e-19
4.049778667e-19
4.139981568e-19
4.232482463e-19
4.327376706e-19
4.424753676e-19
4.524702334e-19
4.627310986e-19
4.732669966e-19
4.840871653e-19
4.952006575e-19
5.066159441e-19
5.183397022e-19
5.303773817e-19
5.427330343e-19
5.554115334e-19
5.684279774e-19
6.06899907e-19
7.122381532e-19
8.219473899e-19
9.362693156e-19
1.055434712e-18
1.179666075e-18
1.309186434e-18
1.444225019e-18
1.591037876e-18
1.745835223e-18
1.908311989e-18
2.078851385e-18
2.25784206e-18
2.445686492e-18
2.642779183e-18
2.849569368e-18
3.066544892e-18
3.294208316e-18
3.533100693e-18
3.783823116e-18
4.04705427e-18
4.323285859e-18
4.613112153e-18
4.917182151e-18
5.236188579e-18
5.570855529e-18
5.921927586e-18
6.290120356e-18
6.676308495e-18
7.11657503e-18
7.590466081e-18
8.090453981e-18
8.617931562e-18
9.17441106e-18
9.761501442e-18
1.038090529e-17
1.103442521e-17
1.172401933e-17
1.245171315e-17
1.321962143e-17
1.403043235e-17
1.488693786e-17
1.579151299e-17
1.676235633e-17
1.790041877e-17
1.910745019e-17
2.038764586e-17
2.174539098e-17
2.841376782e-17
3.603697824e-17
4.43401171e-17
5.337353808e-17
6.318032853e-17
7.381122352e-17
8.533529228e-17
9.871204368e-17
1.133110306e-16
1.292140028e-16
1.465046817e-16
1.652692495e-16
1.855831034e-16
2.075185798e-16
2.31143973e-16
2.565202269e-16
2.858356721e-16
3.178611349e-16
3.520673576e-16
4.419007636e-16
5.933521116e-16
7.593415717e-16
9.422824511e-16
1.14268759e-15
1.364216477e-15
1.61397285e-15
1.900730965e-15
2.218942314e-15
2.577207106e-15
2.975816529e-15
4.134292243e-15
5.691400146e-15
7.496435592e-15
9.692373074e-15
1.232721449e-14
1.547480937e-14
2.103550848e-14
3.280832844e-14
4.827358911e-14
6.778738253e-14
9.85255205e-14
1.682451309e-13
2.638797565e-13
4.226562153e-13
7.588917815e-13
1.242218071e-12
2.433531465e-12
4.566782495e-12
8.968028991e-12
1.911893312e-11
4.238305571e-11
9.740898879e-11
2.439333875e-10
6.280197908e-10
1.744529516e-09
5.136122266e-09
1.588088955e-08
5.112874353e-08
1.747983828e-07
6.417617576e-07
2.330762833e-06
6.596803613e-06
1.247302561e-05
1.673561038e-05
1.789170856e-05
1.652010041e-05
1.38356822e-05
1.073570458e-05
7.792461058e-06
5.289966198e-06
3.358571216e-06
1.987296171e-06
1.082321899e-06
5.587289661e-07
2.652504719e-07
1.177575026e-07
5.085121888e-08
2.086754362e-08
8.082697873e-09
3.491739439e-09
1.383326255e-09
4.622950092e-10
2.229647438e-10
7.993723925e-11
3.153931723e-11
1.727268981e-11
6.591133843e-12
1.736904806e-12
1.217079138e-12
8.127498693e-13
4.96994359e-13
2.498945875e-13
5.687043442e-14
1.121333901e-14
9.24889693e-15
7.651167367e-15
6.352423541e-15
5.297273622e-15
4.438735087e-15
3.73769622e-15
3.162520911e-15
2.68814823e-15
2.29485336e-15
1.96710541e-15
1.692638199e-15
1.461722588e-15
1.266594953e-15
1.101021294e-15
9.5996957e-16
8.393561033e-16
7.358507917e-16
6.467235872e-16
5.697274624e-16
5.030049623e-16
4.450144088e-16
3.944712641e-16
3.503011676e-16
3.116024373e-16
2.776155976e-16
2.47698811e-16
2.213078461e-16
1.979797517e-16
1.773194916e-16
1.589889349e-16
1.426978011e-16
1.281961661e-16
1.152682425e-16
1.037272081e-16
9.341088584e-17
8.417813255e-17
7.590580828e-17
6.848622167e-17
6.182497496e-17
5.583914256e-17
5.045572062e-17
4.561031378e-17
4.12460101e-17
3.731241974e-17
3.376485055e-17
3.056359918e-17
2.767333961e-17
2.506259545e-17
2.270328103e-17
2.05703045e-17
1.864122142e-17
1.68959328e-17
1.531642102e-17
1.388651812e-17
1.259170307e-17
1.141892218e-17
1.035643197e-17
9.393659591e-18
8.521079671e-18
7.730104996e-18
7.012989552e-18
6.362742201e-18
5.773050061e-18
5.238209796e-18
4.753066662e-18
4.312959789e-18
3.913673301e-18
3.551392504e-18
3.222664625e-18
2.924363511e-18
2.653658023e-18
2.407983509e-18
2.185016208e-18
1.982650165e-18
1.798976457e-18
1.632264437e-18
1.480944849e-18
1.343594525e-18
1.218922655e-18
1.105758298e-18
1.003039137e-18
9.098013051e-19
8.251701738e-19
7.483520279e-19
6.786265139e-19
6.153398267e-19
5.578985129e-19
5.057638753e-19
4.584468939e-19
4.155036266e-19
3.765310361e-19
3.411632122e-19
3.090679383e-19
2.799435837e-19
2.535162827e-19
2.295373734e-19
2.077810763e-19
1.88042387e-19
1.70135165e-19
1.538903929e-19
1.391546079e-19
1.257884662e-19
1.136654477e-19
1.02670675e-19
9.269984536e-20
8.365825728e-20
7.545993038e-20
6.802679987e-20
6.128799457e-20
5.517917224e-20
4.964192166e-20
4.462321625e-20
4.007492052e-20
3.595333944e-20
3.221881146e-20
2.883533658e-20
2.577023979e-20
2.299386756e-20
2.04793058e-20
1.820213152e-20
1.614018261e-20
1.427334689e-20
1.258337887e-20
1.105372172e-20
9.66935623e-21
8.416656144e-21
7.283262718e-21
6.257964292e-21
5.330591833e-21
4.491924523e-21
3.733599402e-21
3.048033631e-21
2.428351444e-21
1.868320053e-21
1.362288182e-21
9.051337206e-22
4.922140805e-22
1.193226114e-22
0
0
0
0
0
0
0
0
0
0
0
0
0
0
0
0
0
0
0
0
0
0
0
0
0
0
0
0
0
0
0
0
0
0
0
0
0
0
0
0
0
0
0
0
0
0
0
0
0
0
0
0
0
0
0
0
0
0
0
0
0
0
0
0
0
0
0
0
0
0
0
0
0
0
0
0
0
0
0
0
0
0
0
0
0
0
0
0
0
0
0
0
0
0
0
0
0
0
0
0
0
0
0
0
0
0
0
0
0
0
0
0
0
0
0
0
0
0
0
0
0
0
0
0
0
0
0
0
0
0
0
0
0
0
0
0
0
0
0
0
0
0
0
0
0
0
0
0
0
0
0
0
0
0
0
0
0
0
0
0
0
0
0
0
0
0
0
0
0
0
0
0
0
0
0
0
0
0
0
0
0
0
0
0
0
0
0
0
0
0
0
0
0
0
0
0
0
0
0
0
0
0
0
0
0
0
0
0
0
0
0
0
0
0
0
0
0
0
0
0
0
0
0
0
0
0
0
0
0
0
0
0
0
0
0
0
0
0
0
0
0
0
0
0
0
0
0
0
0
0
0
0
0
0
0
0
0
0
0
0
0
0
0
0
0
0
0
0
6.907988039e-19
6.92578911e-19
6.959370214e-19
7.00696876e-19
7.067021431e-19
7.138143979e-19
7.219117203e-19
7.308874397e-19
7.406488322e-19
7.511158566e-19
7.62220104e-19
7.739043946e-19
7.86121153e-19
7.988308279e-19
8.120005292e-19
8.256026534e-19
8.396119384e-19
8.540160171e-19
8.688055971e-19
8.839732433e-19
8.995139124e-19
9.154245752e-19
9.31703566e-19
9.48349339e-19
9.653658306e-19
9.827626472e-19
1.000550244e-18
1.018736362e-18
1.037327761e-18
1.056333671e-18
1.07576493e-18
1.095633585e-18
1.115952737e-18
1.136736449e-18
1.157999577e-18
1.182514398e-18
1.207826926e-18
1.385215624e-18
1.609054387e-18
1.841493694e-18
2.082853844e-18
2.333460806e-18
2.593646825e-18
2.863755547e-18
3.144152061e-18
3.435261965e-18
3.737516996e-18
4.051098568e-18
4.376293782e-18
4.713425318e-18
5.062891294e-18
5.425276865e-18
5.801357408e-18
6.19194436e-18
6.597654916e-18
7.019207595e-18
7.457341289e-18
7.912762854e-18
8.386197404e-18
8.878401241e-18
9.390145957e-18
9.938398583e-18
1.053392501e-17
1.115609004e-17
1.180614482e-17
1.248546755e-17
1.319572878e-17
1.393814191e-17
1.471402561e-17
1.552493531e-17
1.637257022e-17
1.725875842e-17
1.818540276e-17
1.915434661e-17
2.016753515e-17
2.122705256e-17
2.233511568e-17
2.349405823e-17
2.470633528e-17
2.604321066e-17
2.75209259e-17
2.907288641e-17
3.070320258e-17
3.241614606e-17
3.421582455e-17
3.610712427e-17
3.809511228e-17
4.01850801e-17
4.238259574e-17
4.469353609e-17
4.712415079e-17
5.595409532e-17
7.05099721e-17
8.648850755e-17
1.037656864e-16
1.224227965e-16
1.425453394e-16
1.642345232e-16
1.875953795e-16
2.127406627e-16
2.39797357e-16
2.688933463e-16
3.00642198e-16
3.370073791e-16
3.76325616e-16
4.187946601e-16
4.646272795e-16
5.140540779e-16
5.672984901e-16
6.246100286e-16
6.86234899e-16
7.579325537e-16
8.366431265e-16
1.032957243e-15
1.369149005e-15
1.739861153e-15
2.147082526e-15
2.59249392e-15
3.087165784e-15
3.649145475e-15
4.265871117e-15
4.942045737e-15
5.684930897e-15
6.501077483e-15
7.400562912e-15
9.26710598e-15
1.274129667e-14
1.669520301e-14
2.120340762e-14
2.633670579e-14
3.220488448e-14
3.912214167e-14
4.746136822e-14
7.025107555e-14
9.81848626e-14
1.325607433e-13
1.763120238e-13
2.339189723e-13
3.729085663e-13
5.545237509e-13
7.907737921e-13
1.273833122e-12
2.038446661e-12
3.139186797e-12
5.549867622e-12
9.079663077e-12
1.665862688e-11
3.033486386e-11
5.613560177e-11
1.093734433e-10
2.21657713e-10
4.719437884e-10
1.032739475e-09
2.322800633e-09
5.454634944e-09
1.338396125e-08
3.422442202e-08
9.212181436e-08
2.630815601e-07
7.791606015e-07
2.148787673e-06
4.850589278e-06
8.432771481e-06
1.174232415e-05
1.391313146e-05
1.471388016e-05
1.433452831e-05
1.309704469e-05
1.12411128e-05
9.089410105e-06
6.881552051e-06
4.851606613e-06
3.17455989e-06
1.928393045e-06
1.084911001e-06
5.691805288e-07
2.800738073e-07
1.329721462e-07
6.018795319e-08
2.634677887e-08
1.114734167e-08
4.404538854e-09
1.786442401e-09
7.997824995e-10
2.443432308e-10
1.341521281e-10
4.758454263e-11
1.895333436e-11
1.092511232e-11
4.660111657e-12
1.122331978e-12
8.168895696e-13
5.713634716e-13
3.733047332e-13
2.129485819e-13
8.276973238e-14
7.16390391e-15
6.05927421e-15
5.149583097e-15
4.396796832e-15
3.770435474e-15
3.246467804e-15
2.805919717e-15
2.433709865e-15
2.117785445e-15
1.848483598e-15
1.618004724e-15
1.420004955e-15
1.249302231e-15
1.101639911e-15
9.735083589e-16
8.619930487e-16
7.646672641e-16
6.795013624e-16
6.047908854e-16
5.390990428e-16
4.812097679e-16
4.300907505e-16
3.848624218e-16
3.447729942e-16
3.091778203e-16
2.77522439e-16
2.493286311e-16
2.241827102e-16
2.017258608e-16
1.81646055e-16
1.636712623e-16
1.475637682e-16
1.33115354e-16
1.201432421e-16
1.084866584e-16
9.80038957e-17
8.856981683e-17
8.007371901e-17
7.241749701e-17
6.551407602e-17
5.928605117e-17
5.366451404e-17
4.858803681e-17
4.400179064e-17
3.9856778e-17
3.610916465e-17
3.271969201e-17
2.965316602e-17
2.687800665e-17
2.43658525e-17
2.209121231e-17
2.003115682e-17
1.81650477e-17
1.647429534e-17
1.494214616e-17
1.355349244e-17
1.229470348e-17
1.115347516e-17
1.011869582e-17
9.180326276e-18
8.32929309e-18
7.557392205e-18
6.857203461e-18
6.222013426e-18
5.645746324e-18
5.122901968e-18
4.648499999e-18
4.218029629e-18
3.827404567e-18
3.472922265e-18
3.151227283e-18
2.859278217e-18
2.59431787e-18
2.353846323e-18
2.135596657e-18
1.937512893e-18
1.757730262e-18
1.594557158e-18
1.446458948e-18
1.312043269e-18
1.190046738e-18
1.079322929e-18
9.788314495e-19
8.876281066e-19
8.048559416e-19
7.297371415e-19
6.615656952e-19
5.997007399e-19
5.435605281e-19
4.926169623e-19
4.463906273e-19
4.044462998e-19
3.663888636e-19
3.318596095e-19
3.005328756e-19
2.721130001e-19
2.46331561e-19
2.229448548e-19
2.017316334e-19
1.824910264e-19
1.650406692e-19
1.492149988e-19
1.348637071e-19
1.218503372e-19
1.100510118e-19
9.935326903e-20
8.965502e-20
8.086359025e-20
7.289485489e-20
6.56724515e-20
5.91270664e-20
5.319578617e-20
4.782150858e-20
4.295240786e-20
3.854144873e-20
3.454594588e-20
3.092716259e-20
2.764994876e-20
2.468240862e-20
2.19956021e-20
1.956327216e-20
1.736159602e-20
1.536896284e-20
1.356576808e-20
1.193422973e-20
1.045821843e-20
9.123105439e-21
7.91562493e-21
6.823746304e-21
5.836561347e-21
4.944180189e-21
4.137635887e-21
3.408799244e-21
2.750302766e-21
2.155468137e-21
1.618243763e-21
1.133145162e-21
6.952027291e-22
2.999142869e-22
0
0
0
0
0
0
0
0
0
0
0
0
0
0
0
0
0
0
0
0
0
0
0
0
0
0
0
0
0
0
0
0
0
0
0
0
0
0
0
0
0
0
0
0
0
0
0
0
0
0
0
0
0
0
0
0
0
0
0
0
0
0
0
0
0
0
0
0
0
0
0
0
0
0
0
0
0
0
0
0
0
0
0
0
0
0
0
0
0
0
0
0
0
0
0
0
0
0
0
0
0
0
0
0
0
0
0
0
0
0
0
0
0
0
0
0
0
0
0
0
0
0
0
0
0
0
0
0
0
0
0
0
0
0
0
0
0
0
0
0
0
0
0
0
0
0
0
0
0
0
0
0
0
0
0
0
0
0
0
0
0
0
0
0
0
0
0
0
0
0
0
0
0
0
0
0
0
0
0
0
0
0
0
0
0
0
0
0
0
0
0
0
0
0
0
0
0
0
0
0
0
0
0
0
0
0
0
0
0
0
0
0
0
0
0
0
0
0
0
0
0
0
0
0
0
0
0
0
0
0
0
0
0
0
0
0
0
0
0
0
0
0
0
0
0
0
0
0
0
0
0
0
0
0
0
0
0
0
0
0
0
0
0
0
0
1.66534324e-18
1.669323747e-18
1.676814168e-18
1.687405919e-18
1.700740712e-18
1.71650444e-18
1.734422583e-18
1.754256275e-18
1.775798646e-18
1.798871003e-18
1.823317966e-18
1.849014227e-18
1.875856862e-18
1.903759139e-18
1.932649594e-18
1.962470457e-18
1.995711725e-18
2.030458726e-18
2.066135351e-18
2.102723194e-18
2.14021087e-18
2.178592663e-18
2.21786746e-18
2.427275957e-18