/*--------------------------------*- C++ -*----------------------------------*\
| =========                 |                                                 |
| \\      /  F ield         | OpenFOAM: The Open Source CFD Toolbox           |
|  \\    /   O peration     | Version:  v2006                                 |
|   \\  /    A nd           | Website:  www.openfoam.com                      |
|    \\/     M anipulation  |                                                 |
\*---------------------------------------------------------------------------*/
FoamFile
{
    version     2.0;
    format      ascii;
    class       volScalarField;
    location    "0.1";
    object      C2H6;
}
// * * * * * * * * * * * * * * * * * * * * * * * * * * * * * * * * * * * * * //

dimensions      [0 0 0 0 0 0 0];


internalField   nonuniform List<scalar> 
72000
(
1.198834059e-20
1.198886845e-20
1.198988535e-20
1.199133989e-20
1.199318251e-20
1.199536724e-20
1.199785169e-20
1.200059939e-20
1.200357707e-20
1.20067568e-20
1.201011369e-20
1.20136272e-20
1.201728002e-20
1.202105741e-20
1.202494705e-20
1.202893912e-20
1.203302527e-20
1.203719877e-20
1.204145447e-20
1.204578809e-20
1.205019678e-20
1.205468938e-20
1.205925474e-20
1.206388948e-20
1.206859255e-20
1.207336317e-20
1.207820016e-20
1.208310462e-20
1.208807838e-20
1.209312305e-20
1.209824018e-20
1.210343137e-20
1.210869832e-20
1.211404261e-20
1.211946646e-20
1.212497179e-20
1.213055988e-20
1.213623206e-20
1.214199073e-20
1.214783859e-20
1.215377816e-20
1.215981194e-20
1.2165942e-20
1.217217057e-20
1.217849892e-20
1.218492817e-20
1.219145803e-20
1.219808526e-20
1.220480259e-20
1.221159792e-20
1.221872811e-20
1.222608772e-20
1.223354671e-20
1.224112053e-20
1.224882269e-20
1.225666275e-20
1.226464715e-20
1.227278264e-20
1.228107384e-20
1.228952614e-20
1.229814512e-20
1.230693171e-20
1.231589187e-20
1.232502861e-20
1.233434854e-20
1.234427109e-20
1.235806964e-20
1.237217628e-20
1.238660537e-20
1.240136692e-20
1.241646877e-20
1.243191537e-20
1.24477079e-20
1.246386801e-20
1.248041314e-20
1.249735362e-20
1.251470362e-20
1.253247378e-20
1.255067886e-20
1.256933311e-20
1.258845231e-20
1.260805796e-20
1.262816536e-20
1.264878838e-20
1.266994152e-20
1.269164258e-20
1.271390815e-20
1.273675671e-20
1.276026503e-20
1.2784427e-20
1.280924182e-20
1.283474086e-20
1.286095332e-20
1.288790687e-20
1.291563138e-20
1.294415889e-20
1.297351986e-20
1.300374043e-20
1.303477858e-20
1.306673252e-20
1.309963792e-20
1.313353408e-20
1.316846249e-20
1.320445425e-20
1.32415466e-20
1.327977256e-20
1.33191714e-20
1.33597749e-20
1.340161443e-20
1.344468277e-20
1.34890422e-20
1.353466512e-20
1.358155172e-20
1.362991847e-20
1.368453876e-20
1.378116209e-20
1.366546096e-20
1.466785037e-20
1.174262542e-20
1.750810533e-20
1.170766941e-20
2.074798155e-20
1.166817518e-20
2.4363418e-20
1.162453794e-20
2.825909964e-20
1.156467819e-20
3.257083874e-20
1.151901136e-20
3.753805676e-20
1.145245367e-20
4.338053718e-20
1.137061508e-20
5.085064408e-20
1.120491476e-20
6.481117286e-20
1.109149651e-20
7.040834491e-20
1.091038143e-20
7.593637501e-20
1.080693421e-20
8.286417256e-20
1.088094958e-20
9.608449344e-20
1.121900173e-20
1.148599624e-19
1.164106994e-20
1.382569591e-19
1.171643817e-20
1.837817017e-19
1.152794413e-20
2.414820075e-19
1.122249001e-20
4.073358381e-19
1.070537184e-20
6.198180044e-19
9.75745016e-21
9.049145253e-21
8.219694585e-21
4.684532342e-17
4.029433874e-19
2.026932431e-06
0.0001564107864
0.0004517852275
0.0006684294298
0.0007837349976
0.0008241369859
0.0008141504057
0.0007719653011
0.0007107921329
0.0006401219087
0.0005671668168
0.0004963107701
0.0004309764509
0.0003722867125
0.0003208625831
0.0002765457738
0.0002387334527
0.0002066272789
0.0001794514252
0.0001564584937
0.0001369957753
0.0001204269281
0.0001062966341
9.416185065e-05
8.370863806e-05
7.467121614e-05
6.681352042e-05
5.992451518e-05
5.386878073e-05
4.856155286e-05
4.392081349e-05
3.974429132e-05
3.596183559e-05
3.252328065e-05
2.928045792e-05
2.60930148e-05
2.31687222e-05
2.056363578e-05
1.827190589e-05
1.626425548e-05
1.450539449e-05
1.296133669e-05
1.160197688e-05
1.040158234e-05
9.338464517e-06
8.3944012e-06
7.554047281e-06
6.80441807e-06
6.134462275e-06
5.534717959e-06
4.99703775e-06
4.514369689e-06
4.080581201e-06
3.690316721e-06
3.338881644e-06
3.022146959e-06
2.736470246e-06
2.478629698e-06
2.24576869e-06
2.035348889e-06
1.845110371e-06
1.673037511e-06
1.517329682e-06
1.376375968e-06
1.248733263e-06
1.133107222e-06
1.028335641e-06
9.333739098e-07
8.472822508e-07
7.692144801e-07
6.984080959e-07
6.341755133e-07
5.758962985e-07
5.230102744e-07
4.750113895e-07
4.314422551e-07
3.918892726e-07
3.559782792e-07
3.233706534e-07
2.937598262e-07
2.668681535e-07
2.424441082e-07
2.202597585e-07
2.001084992e-07
1.818030114e-07
1.651734233e-07
1.50065654e-07
1.363399185e-07
1.238693799e-07
1.125389308e-07
1.022440935e-07
9.289002543e-08
8.439061953e-08
7.66676909e-08
6.965024005e-08
6.327378656e-08
5.747976499e-08
5.221497784e-08
4.743110014e-08
4.308422986e-08
3.913448086e-08
3.554561334e-08
3.22846987e-08
2.932181597e-08
2.662977566e-08
2.418386978e-08
2.196164444e-08
1.994269388e-08
1.810847299e-08
1.644212737e-08
1.492833907e-08
1.355318612e-08
1.230401546e-08
1.116932699e-08
1.013866839e-08
9.202539882e-09
8.352307274e-09
7.58012311e-09
6.878855091e-09
6.242020824e-09
5.66372886e-09
5.138624616e-09
4.661841793e-09
4.228957689e-09
3.835953111e-09
3.4791753e-09
3.155304747e-09
2.861324973e-09
2.594494758e-09
2.352323179e-09
2.132546702e-09
1.93310869e-09
1.752140413e-09
1.587943986e-09
1.438976717e-09
1.303837021e-09
1.181251656e-09
1.070063885e-09
9.692229195e-10
8.77774196e-10
7.948506408e-10
7.196647615e-10
6.515013246e-10
5.897106488e-10
5.337028383e-10
4.829420786e-10
4.369418958e-10
3.952605916e-10
3.574970639e-10
3.232871182e-10
2.923002466e-10
2.64236299e-10
2.38822915e-10
2.158127686e-10
1.949814724e-10
1.761253117e-10
1.590595663e-10
1.436165165e-10
1.296439934e-10
1.170039381e-10
1.055710904e-10
9.523195609e-11
8.588337009e-11
7.743195952e-11
6.979301331e-11
6.288961323e-11
5.665224127e-11
5.101761522e-11
4.59285586e-11
4.133317406e-11
3.718441832e-11
3.343965217e-11
3.006033546e-11
2.701151562e-11
2.426144499e-11
2.178136837e-11
1.954539049e-11
1.753000524e-11
1.57139119e-11
1.407782546e-11
1.260428792e-11
1.127747562e-11
1.008311093e-11
9.008339886e-12
8.041444758e-12
7.171828337e-12
6.389971955e-12
5.68722657e-12
5.055749139e-12
4.488568753e-12
3.979320297e-12
3.522245457e-12
3.112116135e-12
2.744252738e-12
2.414411264e-12
2.118723637e-12
1.853825239e-12
1.616550196e-12
1.404110922e-12
1.21394257e-12
1.043933061e-12
8.918844057e-13
7.56045887e-13
6.346506054e-13
5.261962977e-13
4.294845935e-13
3.431874909e-13
2.662963615e-13
1.977135887e-13
1.366568128e-13
8.228212548e-14
3.387459369e-14
0
0
0
0
0
0
0
0
0
0
0
0
0
0
0
0
0
0
0
0
0
0
0
0
0
0
0
0
0
0
0
0
0
0
0
0
0
0
0
0
0
0
0
0
0
0
0
0
0
0
0
0
0
0
0
0
0
0
0
0
0
0
0
0
0
0
0
0
0
0
0
0
0
0
0
0
0
0
0
0
0
0
0
0
0
0
0
0
0
0
0
0
0
0
0
0
0
0
0
0
0
0
0
0
0
0
0
0
0
0
0
0
0
0
0
0
0
0
0
0
0
0
0
0
0
0
0
0
0
0
0
0
0
0
0
0
0
0
0
0
0
0
0
0
0
0
0
0
0
0
0
0
0
0
0
0
0
0
0
0
0
0
0
0
0
0
0
0
0
0
0
0
0
0
0
0
0
0
0
0
0
0
0
0
0
0
0
0
0
0
0
0
0
0
0
0
0
0
0
0
0
0
0
0
0
0
0
0
0
0
0
0
0
0
0
0
0
0
0
0
0
0
0
0
0
0
0
5.213281729e-19
5.232148348e-19
5.26818394e-19
5.319697869e-19
5.385093947e-19
5.462936452e-19
5.551929804e-19
5.650961889e-19
5.75905562e-19
5.875383083e-19
5.999218251e-19
6.129970434e-19
6.26714282e-19
6.410319164e-19
6.559161371e-19
6.713398512e-19
6.872803387e-19
7.037228128e-19
7.206561984e-19
7.380721883e-19
7.559667217e-19
7.743365221e-19
7.931809207e-19
8.125011988e-19
8.323017796e-19
8.525869714e-19
8.73361159e-19
8.946358111e-19
9.16425091e-19
9.387436206e-19
9.616064056e-19
9.850290741e-19
1.009028108e-18
1.033620397e-18
1.058825646e-18
1.084662562e-18
1.111147384e-18
1.138297244e-18
1.166134831e-18
1.194684981e-18
1.223972441e-18
1.2540225e-18
1.284859063e-18
1.316507266e-18
1.348989291e-18
1.382324662e-18
1.416525906e-18
1.451593536e-18
1.487505748e-18
1.524204421e-18
1.566446548e-18
1.61251932e-18
1.659923785e-18
1.70878507e-18
1.759216463e-18
1.811312618e-18
1.865156145e-18
1.920827359e-18
1.978403205e-18
2.037960976e-18
2.099579851e-18
2.16334045e-18
2.229332078e-18
2.297643665e-18
2.36836504e-18
2.441573803e-18
2.517331555e-18
2.595830803e-18
2.677186248e-18
2.761520226e-18
2.848950977e-18
2.939576302e-18
3.033446401e-18
3.130804882e-18
3.23183297e-18
3.336694409e-18
3.445571889e-18
3.558632045e-18
3.676063018e-18
3.798076901e-18
3.924905934e-18
4.056815482e-18
4.194027451e-18
4.336778928e-18
4.485310595e-18
4.639905858e-18
4.800841918e-18
4.968420481e-18
5.185541859e-18
5.416948897e-18
5.659112173e-18
5.912658394e-18
6.178235199e-18
6.456503006e-18
6.748191691e-18
7.054024269e-18
7.374805333e-18
7.711313124e-18
9.316195658e-18
1.109760825e-17
1.302685402e-17
1.511451129e-17
1.737192968e-17
1.981058311e-17
2.244214468e-17
2.527894724e-17
2.833465103e-17
3.162344834e-17
3.526925138e-17
3.972616147e-17
4.458186552e-17
4.985582121e-17
5.556948667e-17
6.173446471e-17
6.834230788e-17
7.537916524e-17
8.287295052e-17
9.062413861e-17
9.925055512e-17
1.062799135e-16
1.158411964e-16
1.225852123e-16
1.336386067e-16
1.404426755e-16
1.535452678e-16
1.60659963e-16
1.904966178e-16
2.292421244e-16
3.314181336e-16
3.770912675e-16
5.084095706e-16
5.605305879e-16
7.272614397e-16
7.870183993e-16
1.004174927e-15
1.081025852e-15
1.421862537e-15
1.592067985e-15
2.293351859e-15
3.219084799e-15
6.308869115e-15
8.412718285e-15
1.391161476e-14
1.785638811e-14
4.233015641e-14
6.265423701e-14
1.24800943e-13
1.957863241e-13
5.510263965e-13
9.202277715e-13
3.05593793e-12
6.630850939e-12
2.552414739e-11
6.239379291e-11
3.026693063e-10
9.777626174e-10
6.640863708e-09
2.864902533e-08
1.175712429e-07
5.446670256e-07
5.626093937e-06
6.55157054e-05
0.0002715088706
0.00050962159
0.0006863627702
0.0007875942551
0.0008264916136
0.0008198350412
0.0007820283526
0.0007245860546
0.0006563334908
0.0005841399997
0.000513326051
0.0004469260564
0.0003866615312
0.0003335811929
0.0002875010208
0.0002480777536
0.000214539285
0.0001861432396
0.0001621363456
0.000141767667
0.0001244784227
0.000109746624
9.712105038e-05
8.623982697e-05
7.68501393e-05
6.877894063e-05
6.167765364e-05
5.54007177e-05
4.98439274e-05
4.488240941e-05
4.039408776e-05
3.631545002e-05
3.255328248e-05
2.907252308e-05
2.588084638e-05
2.30142541e-05
2.047567955e-05
1.824171102e-05
1.627866992e-05
1.455183367e-05
1.30293721e-05
1.16835446e-05
1.049069448e-05
9.430798934e-06
8.486911395e-06
7.644638453e-06
6.891695157e-06
6.217539551e-06
5.613077409e-06
5.07042414e-06
4.582713785e-06
4.143943355e-06
3.748845512e-06
3.392783623e-06
3.07166456e-06
2.781865806e-06
2.52017393e-06
2.283732513e-06
2.069997705e-06
1.876700182e-06
1.701812396e-06
1.543520263e-06
1.400198611e-06
1.270389807e-06
1.152785082e-06
1.046208178e-06
9.496009821e-07
8.620108727e-07
7.825795563e-07
7.105331859e-07
6.451736033e-07
5.858705676e-07
5.320548329e-07
4.832119914e-07
4.388769732e-07
3.986291336e-07
3.620878585e-07
3.289086292e-07
2.987794928e-07
2.714178964e-07
2.465678406e-07
2.239973229e-07
2.034960362e-07
1.848732961e-07
1.679561739e-07
1.525878124e-07
1.386259073e-07
1.259413352e-07
1.144169147e-07
1.039462875e-07
9.443290578e-08
8.578911664e-08
7.793533411e-08
7.079928887e-08
6.431534996e-08
5.842390921e-08
5.307082446e-08
4.820691482e-08
4.378750283e-08
3.977199981e-08
3.612352946e-08
3.28085865e-08
2.979672753e-08
2.706028972e-08
2.457413623e-08
2.23154246e-08
2.026339694e-08
1.839918917e-08
1.670565778e-08
1.516722288e-08
1.376972512e-08
1.250029629e-08
1.134724128e-08
1.029993107e-08
9.348705738e-09
8.484785903e-09
7.700192567e-09
6.987674086e-09
6.34063994e-09
5.75310068e-09
5.219612835e-09
4.73522959e-09
4.295455168e-09
3.896204111e-09
3.533763679e-09
3.20475989e-09
2.906126918e-09
2.635078712e-09
2.389083804e-09
2.165841917e-09
1.963262952e-09
1.779447927e-09
1.612671558e-09
1.461366193e-09
1.324107729e-09
1.199602422e-09
1.086674993e-09
9.842578197e-10
8.913810357e-10
8.071637442e-10
7.308059338e-10
6.615809586e-10
5.988287935e-10
5.419501779e-10
4.904008628e-10
4.4368662e-10
4.01358795e-10
3.630099408e-10
3.282701182e-10
2.968036528e-10
2.683055916e-10
2.424993693e-10
2.191337328e-10
1.979807914e-10
1.788337214e-10
1.615048181e-10
1.458237821e-10
1.316360258e-10
1.188013199e-10
1.071925896e-10
9.669445007e-11
8.720213135e-11
7.862089758e-11
7.086463646e-11
6.385530094e-11
5.752219051e-11
5.180116643e-11
4.663409266e-11
4.196825011e-11
3.775595613e-11
3.395392121e-11
3.052288737e-11
2.742741303e-11
2.46352623e-11
2.211730577e-11
1.984717962e-11
1.780104308e-11
1.5957252e-11
1.429622858e-11
1.280019172e-11
1.145313508e-11
1.024061901e-11
9.149437337e-12
8.167833139e-12
7.285040111e-12
6.491279036e-12
5.777864014e-12
5.136835316e-12
4.561047807e-12
4.044105721e-12
3.580082409e-12
3.163739773e-12
2.790249809e-12
2.45541208e-12
2.155276367e-12
1.886391889e-12
1.645550401e-12
1.429881094e-12
1.236934837e-12
1.064343487e-12
9.099840497e-13
7.721252244e-13
6.489400288e-13
5.388575028e-13
4.407163656e-13
3.531233717e-13
2.750844623e-13
2.054875073e-13
1.435156544e-13
8.834566869e-14
3.923097185e-14
0
0
0
0
0
0
0
0
0
0
0
0
0
0
0
0
0
0
0
0
0
0
0
0
0
0
0
0
0
0
0
0
0
0
0
0
0
0
0
0
0
0
0
0
0
0
0
0
0
0
0
0
0
0
0
0
0
0
0
0
0
0
0
0
0
0
0
0
0
0
0
0
0
0
0
0
0
0
0
0
0
0
0
0
0
0
0
0
0
0
0
0
0
0
0
0
0
0
0
0
0
0
0
0
0
0
0
0
0
0
0
0
0
0
0
0
0
0
0
0
0
0
0
0
0
0
0
0
0
0
0
0
0
0
0
0
0
0
0
0
0
0
0
0
0
0
0
0
0
0
0
0
0
0
0
0
0
0
0
0
0
0
0
0
0
0
0
0
0
0
0
0
0
0
0
0
0
0
0
0
0
0
0
0
0
0
0
0
0
0
0
0
0
0
0
0
0
0
0
0
0
0
0
0
0
0
0
0
0
0
0
0
0
0
0
0
0
0
0
0
0
0
0
0
0
0
0
5.794164605e-18
5.810850072e-18
5.842548973e-18
5.887731225e-18
5.944974696e-18
6.012989663e-18
6.090624079e-18
6.176866193e-18
6.270832977e-18
6.371763417e-18
6.479004293e-18
6.592008674e-18
6.710316098e-18
6.833545395e-18
6.961378823e-18
7.093562504e-18
7.229889715e-18
7.3702122e-18
7.514423413e-18
7.662445136e-18
7.814228472e-18
7.969739508e-18
8.128966679e-18
8.291917115e-18
8.458617418e-18
8.629108992e-18
8.817505583e-18
9.020982631e-18
9.229479262e-18
9.443143532e-18
9.66212689e-18
9.886586894e-18
1.011669321e-17
1.035262963e-17
1.05945942e-17
1.084278449e-17
1.10973723e-17
1.135854422e-17
1.162654104e-17
1.190161881e-17
1.218403778e-17
1.247406086e-17
1.277194469e-17
1.307795406e-17
1.339234622e-17
1.371536157e-17
1.40472088e-17
1.438801784e-17
1.473778994e-17
1.509623661e-17
1.546228601e-17
1.583672865e-17
1.622090956e-17
1.661558981e-17
1.702168859e-17
1.743987153e-17
1.787071502e-17
1.831476461e-17
1.877254989e-17
1.924460854e-17
1.97314784e-17
2.02337174e-17
2.075193108e-17
2.128677581e-17
2.183892684e-17
2.240906202e-17
2.306192799e-17
2.377982722e-17
2.452346308e-17
2.529395995e-17
2.609248991e-17
2.735338081e-17
3.256876982e-17
3.809302315e-17
4.394191716e-17
5.013198249e-17
5.668075987e-17
6.360660377e-17
7.092896493e-17
7.86691783e-17
8.685276894e-17
9.551438001e-17
1.046732274e-16
1.143511802e-16
1.245745262e-16
1.353729385e-16
1.467778749e-16
1.588225475e-16
1.715408549e-16
1.861628648e-16
2.021561311e-16
2.191964187e-16
2.373514746e-16
2.566922856e-16
2.772918883e-16
2.992301316e-16
3.225975898e-16
3.474740021e-16
3.739577831e-16
4.021336695e-16
4.320887343e-16
4.639501872e-16
4.978460967e-16
5.339043651e-16
5.74899328e-16
6.219442494e-16
6.722315106e-16
7.259411856e-16
7.833022671e-16
8.445376327e-16
9.503275319e-16
1.288352533e-15
1.659795455e-15
2.066325408e-15
2.509342574e-15
2.990013686e-15
3.532924291e-15
4.133902359e-15
4.780777295e-15
5.462296637e-15
6.199874057e-15
6.974479977e-15
7.826952692e-15
8.722729995e-15
9.72403561e-15
1.077564384e-14
1.196613695e-14
1.556758468e-14
2.156174062e-14
2.814723709e-14
3.595735443e-14
4.439936317e-14
5.447387945e-14
6.545397202e-14
7.895380823e-14
9.41940499e-14
1.428066873e-13
2.158355954e-13
3.151463497e-13
4.358768619e-13
5.959160521e-13
1.019515891e-12
1.712978128e-12
2.616297712e-12
4.615598323e-12
8.208679613e-12
1.411625498e-11
2.86427951e-11
5.70826272e-11
1.165392649e-10
2.717526215e-10
6.399204091e-10
1.645639526e-09
4.521431496e-09
1.362745667e-08
4.216069354e-08
1.475642146e-07
5.176712275e-07
1.894047121e-06
7.70089045e-06
3.472710274e-05
0.0001315867979
0.0003142785844
0.0005133487374
0.0006742330952
0.0007793520475
0.0008310939384
0.0008390296465
0.0008135447276
0.0007651114542
0.0007024148705
0.0006326651792
0.0005617651502
0.0004933493533
0.0004299986668
0.0003730362911
0.000322883439
0.0002793378629
0.0002419725632
0.0002100337296
0.0001828991914
0.000159804068
0.0001401341177
0.0001233948948
0.0001090422201
9.661734741e-05
8.584825227e-05
7.646266067e-05
6.818771599e-05
6.087994837e-05
5.437489961e-05
4.854062062e-05
4.333767073e-05
3.86840195e-05
3.450598857e-05
3.075437523e-05
2.73998761e-05
2.442249005e-05
2.179217847e-05
1.947175646e-05
1.742328889e-05
1.561178547e-05
1.400644084e-05
1.258068807e-05
1.131180169e-05
1.018037312e-05
9.169781024e-06
8.265730031e-06
7.45587397e-06
6.729503392e-06
6.07729078e-06
5.491079013e-06
4.963712553e-06
4.488895178e-06
4.061071611e-06
3.675328351e-06
3.327309877e-06
3.013147881e-06
2.729400395e-06
2.472999895e-06
2.241208402e-06
2.031578765e-06
1.841921029e-06
1.670273112e-06
1.514875241e-06
1.374147554e-06
1.246670421e-06
1.131167134e-06
1.026488631e-06
9.316000025e-07
8.45568542e-07
7.675531338e-07
6.967948252e-07
6.326084521e-07
5.743751476e-07
5.215356887e-07
4.735845287e-07
4.300644664e-07
3.90561872e-07
3.547024087e-07
3.221471916e-07
2.925893427e-07
2.657508883e-07
2.413799743e-07
2.192483577e-07
1.991491475e-07
1.80894769e-07
1.643151274e-07
1.492559536e-07
1.355773065e-07
1.231522246e-07
1.118655054e-07
1.016126026e-07
9.229862885e-08
8.383745359e-08
7.615088638e-08
6.916793881e-08
6.282415411e-08
5.706100209e-08
5.182532966e-08
4.706886353e-08
4.274775922e-08
3.882219245e-08
3.525598815e-08
3.201628493e-08
2.907322982e-08
2.639970182e-08
2.397106103e-08
2.176492086e-08
1.976094137e-08
1.79406418e-08
1.628723002e-08
1.47854482e-08
1.342143225e-08
1.218258436e-08
1.105745718e-08
1.00356488e-08
9.107707132e-09
8.265043167e-09
7.499852141e-09
6.805041962e-09
6.174168239e-09
5.601374991e-09
5.081341149e-09
4.609231663e-09
4.180653126e-09
3.791613594e-09
3.438485815e-09
3.117974162e-09
2.827084174e-09
2.563095263e-09
2.3235356e-09
2.106159513e-09
1.908926795e-09
1.729984025e-09
1.56764736e-09
1.420387288e-09
1.286814345e-09
1.165666471e-09
1.055797272e-09
9.561654916e-10
8.658254108e-10
7.839181688e-10
7.096637216e-10
6.423537284e-10
5.81344947e-10
5.260533207e-10
4.759484444e-10
4.305488849e-10
3.894173847e-10
3.521570688e-10
3.18407764e-10
2.878423144e-10
2.601639662e-10
2.351032701e-10
2.124157144e-10
1.91879428e-10
1.732931463e-10
1.564740816e-10
1.412565243e-10
1.274900779e-10
1.150383812e-10
1.037777202e-10
9.359580879e-11
8.439094295e-11
7.607080756e-11
6.855171279e-11
6.175782573e-11
5.562043859e-11
5.007712426e-11
4.507136882e-11
4.055206144e-11
3.647273285e-11
3.279136238e-11
2.946987369e-11
2.647377301e-11
2.377174138e-11
2.133557971e-11
1.913967191e-11
1.716080173e-11
1.537804406e-11
1.377227343e-11
1.232632248e-11
1.102468618e-11
9.853300208e-12
8.79946651e-12
7.851607144e-12
6.999379309e-12
6.233314409e-12
5.544987218e-12
4.926666166e-12
4.371449513e-12
3.873069817e-12
3.425824431e-12
3.024622976e-12
2.664893885e-12
2.342460784e-12
2.053531887e-12
1.794762218e-12
1.563032775e-12
1.355677844e-12
1.170204976e-12
1.004288784e-12
8.560676898e-13
7.236667277e-13
6.053829484e-13
4.998164449e-13
4.056195977e-13
3.217077721e-13
2.469055434e-13
1.802417949e-13
1.208882932e-13
6.805020486e-14
2.105426587e-14
0
0
0
0
0
0
0
0
0
0
0
0
0
0
0
0
0
0
0
0
0
0
0
0
0
0
0
0
0
0
0
0
0
0
0
0
0
0
0
0
0
0
0
0
0
0
0
0
0
0
0
0
0
0
0
0
0
0
0
0
0
0
0
0
0
0
0
0
0
0
0
0
0
0
0
0
0
0
0
0
0
0
0
0
0
0
0
0
0
0
0
0
0
0
0
0
0
0
0
0
0
0
0
0
0
0
0
0
0
0
0
0
0
0
0
0
0
0
0
0
0
0
0
0
0
0
0
0
0
0
0
0
0
0
0
0
0
0
0
0
0
0
0
0
0
0
0
0
0
0
0
0
0
0
0
0
0
0
0
0
0
0
0
0
0
0
0
0
0
0
0
0
0
0
0
0
0
0
0
0
0
0
0
0
0
0
0
0
0
0
0
0
0
0
0
0
0
0
0
0
0
0
0
0
0
0
0
0
0
0
0
0
0
0
0
0
0
0
0
0
0
0
0
0
0
0
2.652104828e-17
2.658978486e-17
2.671983001e-17
2.690460518e-17
2.71381613e-17
2.741516656e-17
2.773088729e-17
2.808116675e-17
2.846238288e-17
2.887140871e-17
2.930557123e-17
2.976262304e-17
3.02406844e-17
3.073819271e-17
3.125384855e-17
3.178658512e-17
3.233554637e-17
3.290013148e-17
3.347991921e-17
3.407459683e-17
3.468395627e-17
3.530786556e-17
3.594625382e-17
3.659914032e-17
3.726665815e-17
3.794906692e-17
3.869264174e-17
3.948790049e-17
4.030182145e-17
4.113486776e-17
4.198756532e-17
4.286048732e-17
4.375425543e-17
4.466954735e-17
4.560711542e-17
4.656786445e-17
4.755225251e-17
4.856070015e-17
4.959426341e-17
5.06539876e-17
5.174084384e-17
5.285579453e-17
5.399979262e-17
5.517381133e-17
5.637884466e-17
5.761586389e-17
5.888576626e-17
6.018923523e-17
6.15268096e-17
6.289886502e-17
6.430587231e-17
6.574948804e-17
7.019086328e-17
8.250216101e-17
9.530902312e-17
1.086389417e-16
1.225180598e-16
1.369714839e-16
1.520243263e-16
1.677023702e-16
1.846208871e-16
2.02415658e-16
2.210609732e-16
2.405990311e-16
2.61072552e-16
2.825257211e-16
3.050016028e-16
3.285495623e-16
3.532233228e-16
3.79078106e-16
4.061734034e-16
4.345754539e-16
4.643592291e-16
4.955779268e-16
5.282964116e-16
5.625856666e-16
5.985214976e-16
6.361831278e-16
6.756519525e-16
7.170059506e-16
7.60340975e-16
8.091090903e-16
8.613790877e-16
9.164493463e-16
9.744681704e-16
1.035596749e-15
1.100006557e-15
1.167878915e-15
1.239405685e-15
1.314795332e-15
1.394264045e-15
1.478037408e-15
1.566404536e-15
1.659664704e-15
1.758068859e-15
1.863233913e-15
1.983881758e-15
2.111651153e-15
2.246972857e-15
2.390296536e-15
3.132289424e-15
3.978192279e-15
4.896572503e-15
5.892777869e-15
6.97131694e-15
8.137541707e-15
9.398446063e-15
1.083597647e-14
1.239876136e-14
1.409513446e-14
1.593363304e-14
1.792306986e-14
2.007107728e-14
2.238500664e-14
2.48718519e-14
2.753791816e-14
3.054058929e-14
3.379333819e-14
3.725920568e-14
4.674847312e-14
6.283823996e-14
8.038413571e-14
9.963167969e-14
1.206285151e-13
1.437431472e-13
1.694331664e-13
1.984509342e-13
2.304456994e-13
2.66228184e-13
3.058082215e-13
4.251226678e-13
5.849543565e-13
7.686936707e-13
9.852852308e-13
1.241408741e-12
1.543346969e-12
2.083104026e-12
3.221624633e-12
4.663896956e-12
6.44508136e-12
9.159688872e-12
1.536319037e-11
2.347220974e-11
3.647406371e-11
6.348692602e-11
1.000348804e-10
1.878720991e-10
3.353097239e-10
6.215397886e-10
1.245999104e-09
2.570788255e-09
5.454919466e-09
1.252772579e-08
2.924241875e-08
7.329034306e-08
1.947472598e-07
5.419182219e-07
1.573030689e-06
4.847794818e-06
1.587001524e-05
5.141005754e-05
0.0001403689597
0.0002887608244
0.0004624259747
0.0006225752072
0.0007461213951
0.0008252535706
0.0008607899852
0.0008590638464
0.0008278703159
0.000775972811
0.0007118922497
0.0006423434907
0.0005721557548
0.0005050449255
0.0004429827835
0.0003870106029
0.0003373879701
0.0002940446553
0.0002565149407
0.0002241359865
0.0001963456551
0.0001723493118
0.0001516467651
0.0001337045112
0.0001180849139
0.0001044688659
9.250652134e-05
8.202695741e-05
7.28333042e-05
6.473748605e-05
5.758607945e-05
5.126314258e-05
4.565906014e-05
4.068589316e-05
3.627394843e-05
3.236439284e-05
2.890470251e-05
2.584440235e-05
2.313535504e-05
2.073369168e-05
1.860095874e-05
1.670384459e-05
1.501356137e-05
1.350525214e-05
1.215746054e-05
1.095159279e-05
9.871461036e-06
8.902939933e-06
8.033664981e-06
7.252787474e-06
6.550750795e-06
5.919126041e-06
5.350461985e-06
4.838158522e-06
4.376359156e-06
3.959858057e-06
3.584022113e-06
3.244721552e-06
2.938270877e-06
2.66137702e-06
2.411094374e-06
2.184785548e-06
1.980086725e-06
1.794877453e-06
1.627254038e-06
1.475506037e-06
1.338095555e-06
1.213638875e-06
1.100890231e-06
9.987274092e-07
9.061389174e-07
8.222125799e-07
7.461254046e-07
6.771344927e-07
6.145689913e-07
5.578228486e-07
5.063483478e-07
4.596503162e-07
4.172809378e-07
3.788350956e-07
3.439462e-07
3.122824229e-07
2.835433304e-07
2.574568443e-07
2.337765105e-07
2.122790386e-07
1.927620826e-07
1.750422464e-07
1.589532741e-07
1.443444281e-07
1.310790179e-07
1.190330734e-07
1.08094146e-07
9.816022492e-08
8.913875687e-08
8.094576136e-08
7.350502658e-08
6.674738549e-08
6.06100583e-08
5.503605789e-08
4.99736511e-08
4.537587112e-08
4.12000748e-08
3.740754302e-08
3.396311689e-08
3.083486895e-08
2.799380462e-08
2.541359171e-08
2.307031478e-08
2.094225284e-08
1.900967681e-08
1.725466693e-08
1.566094594e-08
1.42137283e-08
1.289958325e-08
1.170631046e-08
1.062282705e-08
9.639065187e-09
8.745879059e-09
7.934960261e-09
7.198761205e-09
6.530425372e-09
5.923724096e-09
5.372998942e-09
4.873109773e-09
4.419387076e-09
4.007588953e-09
3.633862155e-09
3.294706343e-09
2.98694186e-09
2.707680482e-09
2.45429868e-09
2.224413371e-09
2.015860036e-09
1.826672618e-09
1.655065481e-09
1.49941677e-09
1.35825354e-09
1.23023808e-09
1.11415555e-09
1.008902686e-09
9.134776551e-10
8.269707339e-10
7.485559152e-10
6.774831566e-10
6.130715165e-10
5.547026954e-10
5.018154921e-10
4.539003314e-10
4.104946403e-10
3.711786921e-10
3.355713268e-10
3.033267234e-10
2.741310737e-10
2.476994071e-10
2.237734033e-10
2.021184282e-10
1.825217438e-10
1.64790246e-10
1.487489077e-10
1.342388224e-10
1.211158455e-10
1.092493704e-10
9.852086847e-11
8.88228944e-11
8.005798681e-11
7.213785844e-11
6.498239008e-11
5.851899209e-11
5.268186912e-11
4.741145154e-11
4.265368817e-11
3.835962412e-11
3.448490241e-11
3.098937735e-11
2.783658731e-11
2.499364807e-11
2.243074747e-11
2.012086272e-11
1.803957475e-11
1.616469429e-11
1.447618675e-11
1.295596345e-11
1.158766714e-11
1.035648314e-11
9.248915531e-12
8.252945803e-12
7.357563346e-12
6.552845201e-12
5.82985607e-12
5.180543421e-12
4.597562406e-12
4.074337947e-12
3.604871973e-12
3.183825897e-12
2.806385438e-12
2.468073475e-12
2.165030089e-12
1.893621948e-12
1.650679247e-12
1.433314805e-12
1.238858447e-12
1.065078634e-12
9.097754638e-13
7.71050025e-13
6.47226747e-13
5.36717453e-13
4.381991044e-13
3.503249627e-13
2.720332995e-13
2.023005362e-13
1.402436134e-13
8.50400633e-14
3.594263581e-14
0
0
0
0
0
0
0
0
0
0
0
0
0
0
0
0
0
0
0
0
0
0
0
0
0
0
0
0
0
0
0
0
0
0
0
0
0
0
0
0
0
0
0
0
0
0
0
0
0
0
0
0
0
0
0
0
0
0
0
0
0
0
0
0
0
0
0
0
0
0
0
0
0
0
0
0
0
0
0
0
0
0
0
0
0
0
0
0
0
0
0
0
0
0
0
0
0
0
0
0
0
0
0
0
0
0
0
0
0
0
0
0
0
0
0
0
0
0
0
0
0
0
0
0
0
0
0
0
0
0
0
0
0
0
0
0
0
0
0
0
0
0
0
0
0
0
0
0
0
0
0
0
0
0
0
0
0
0
0
0
0
0
0
0
0
0
0
0
0
0
0
0
0
0
0
0
0
0
0
0
0
0
0
0
0
0
0
0
0
0
0
0
0
0
0
0
0
0
0
0
0
0
0
0
0
0
0
0
0
0
0
0
0
0
0
0
0
0
0
0
0
0
0
0
0
7.63228749e-17
7.65108464e-17
7.686539157e-17
7.736781757e-17
7.800153811e-17
7.875186674e-17
7.960587013e-17
8.055223459e-17
8.158112694e-17
8.268405918e-17
8.385377709e-17
8.508421943e-17
8.637034365e-17
8.770795485e-17
8.909356106e-17
9.052422643e-17
9.19972577e-17
9.351133427e-17
9.506545589e-17
9.665881349e-17
9.82908461e-17
9.996120082e-17
1.016696628e-16
1.034160192e-16
1.052006472e-16
1.070245315e-16
1.08888733e-16
1.107940258e-16
1.127410814e-16
1.147308282e-16
1.167643611e-16
1.188429019e-16
1.209677814e-16
1.231404313e-16
1.253623638e-16
1.278625706e-16
1.304389149e-16
1.49926689e-16
1.745298375e-16
2.000300704e-16
2.264604149e-16
2.538543955e-16
2.822461089e-16
3.116707847e-16
3.421658954e-16
3.737754747e-16
4.065440781e-16
4.404884815e-16
4.756370613e-16
5.12022019e-16
5.49683718e-16
5.886828593e-16
6.291007286e-16
6.710222694e-16
7.145109471e-16
7.596410706e-16
8.064889156e-16
8.551269767e-16
9.056294846e-16
9.580737833e-16
1.012538492e-15
1.070396581e-15
1.132530231e-15
1.197317035e-15
1.264880422e-15
1.33535687e-15
1.408913778e-15
1.485668146e-15
1.565747765e-15
1.649305288e-15
1.73650799e-15
1.827536089e-15
1.922576862e-15
2.021810279e-15
2.125426295e-15
2.233628751e-15
2.346634608e-15
2.464672229e-15
2.587981754e-15
2.721420499e-15
2.866166082e-15
3.017832719e-15
3.17680167e-15
3.343468724e-15
3.518209463e-15
3.701476399e-15
3.893737033e-15
4.095478412e-15
4.307212389e-15
4.529478978e-15
4.76285338e-15
5.661503044e-15
7.142588045e-15
8.745623547e-15
1.046666002e-14
1.231290095e-14
1.429190229e-14
1.641276302e-14
1.868487313e-14
2.111831067e-14
2.372448832e-14
2.651481666e-14
2.952698695e-14
3.287172816e-14
3.646468253e-14
4.032218854e-14
4.446186926e-14
4.89028597e-14
5.366359785e-14
5.876489714e-14
6.422707471e-14
7.029352378e-14
7.685163734e-14
9.442206856e-14
1.248273985e-13
1.579846087e-13
1.94052005e-13
2.331608086e-13
2.757922165e-13
3.227128224e-13
3.736487797e-13
4.289405685e-13
4.891161656e-13
5.546385672e-13
6.262274205e-13
7.806104382e-13
1.066095625e-12
1.384739356e-12
1.741535757e-12
2.14106031e-12
2.590553543e-12
3.102072639e-12
3.691918636e-12
5.420084111e-12
7.483056927e-12
9.917346598e-12
1.283971712e-11
1.660629816e-11
2.592834389e-11
3.735631376e-11
5.139539694e-11
7.992836072e-11
1.228994884e-10
1.80541992e-10
3.051022148e-10
4.720922387e-10
8.229391336e-10
1.412462554e-09
2.443494804e-09
4.439499516e-09
8.370789557e-09
1.659302245e-08
3.365663521e-08
7.005215067e-08
1.52231612e-07
3.462844181e-07
8.21865744e-07
2.057517724e-06
5.481803468e-06
1.536854089e-05
4.223842944e-05
0.0001035458389
0.0002096527236
0.0003520215581
0.0005077072176
0.0006531037683
0.0007705571795
0.0008507260273
0.0008902057107
0.0008930253409
0.0008653102023
0.0008153823165
0.0007519872841
0.0006824020495
0.000612193709
0.0005447623112
0.000482049921
0.0004252304879
0.0003744655803
0.0003295211767
0.0002900231152
0.0002553975433
0.0002249904711
0.0001983292688
0.0001750101707
0.0001546235102
0.0001367983497
0.0001211806846
0.0001074771072
9.543955702e-05
8.483807821e-05
7.548126188e-05
6.721865333e-05
5.99129703e-05
5.344351179e-05
4.771363601e-05
4.263675503e-05
3.813473565e-05
3.413951175e-05
3.059058408e-05
2.743354015e-05
2.462157394e-05
2.211418412e-05
1.987588878e-05
1.787560879e-05
1.608627839e-05
1.4484228e-05
1.304861745e-05
1.176112122e-05
1.060558342e-05
9.567774981e-06
8.63507584e-06
7.796317127e-06
7.041595257e-06
6.362115889e-06
5.750060791e-06
5.198466809e-06
4.70113142e-06
4.252521171e-06
3.847695617e-06
3.482239137e-06
3.152201674e-06
2.854047423e-06
2.584608221e-06