/*--------------------------------*- C++ -*----------------------------------*\
| =========                 |                                                 |
| \\      /  F ield         | OpenFOAM: The Open Source CFD Toolbox           |
|  \\    /   O peration     | Version:  v2006                                 |
|   \\  /    A nd           | Website:  www.openfoam.com                      |
|    \\/     M anipulation  |                                                 |
\*---------------------------------------------------------------------------*/
FoamFile
{
    version     2.0;
    format      ascii;
    class       volScalarField;
    location    "0.1";
    object      CH;
}
// * * * * * * * * * * * * * * * * * * * * * * * * * * * * * * * * * * * * * //

dimensions      [0 0 0 0 0 0 0];


internalField   nonuniform List<scalar> 
72000
(
2.670880082e-28
2.67311316e-28
2.677467301e-28
2.683758598e-28
2.691785821e-28
2.701350431e-28
2.712261323e-28
2.724347816e-28
2.737454523e-28
2.75144741e-28
2.766205676e-28
2.781629648e-28
2.797633873e-28
2.814144995e-28
2.831103029e-28
2.848458086e-28
2.866167884e-28
2.884201416e-28
2.902533177e-28
2.921142256e-28
2.9400157e-28
2.959146622e-28
2.978523933e-28
2.998141703e-28
3.017997819e-28
3.038087791e-28
3.058409422e-28
3.078969256e-28
3.099775372e-28
3.120837965e-28
3.142166136e-28
3.163768773e-28
3.185654153e-28
3.207828745e-28
3.230303269e-28
3.2530887e-28
3.276195226e-28
3.299632998e-28
3.323415997e-28
3.34755638e-28
3.372065873e-28
3.396957245e-28
3.422241736e-28
3.447933421e-28
3.474044259e-28
3.500587215e-28
3.527574506e-28
3.555019291e-28
3.58293064e-28
3.611315381e-28
3.640280917e-28
3.669802065e-28
3.699849373e-28
3.730444484e-28
3.761608781e-28
3.793360268e-28
3.825714694e-28
3.858691331e-28
3.892306076e-28
3.926574e-28
3.961512947e-28
3.997140345e-28
4.033480895e-28
4.070554082e-28
4.108380569e-28
4.163429526e-28
4.364466547e-28
4.569825113e-28
4.779683351e-28
4.994194481e-28
5.213493136e-28
5.437736352e-28
5.667060972e-28
5.901615069e-28
6.141556512e-28
6.387022677e-28
6.638224167e-28
6.895279432e-28
7.158353948e-28
7.427614301e-28
7.703203232e-28
7.985353811e-28
8.274265057e-28
8.570183287e-28
8.873336585e-28
9.183972947e-28
9.502296965e-28
9.828504402e-28
1.016247925e-27
1.050468302e-27
1.08554314e-27
1.121505121e-27
1.158383529e-27
1.196200506e-27
1.23498923e-27
1.274773206e-27
1.315583939e-27
1.357450293e-27
1.400395244e-27
1.444458927e-27
1.489667812e-27
1.536048089e-27
1.583622789e-27
1.632408588e-27
1.682421996e-27
1.733674177e-27
1.786177883e-27
1.839929261e-27
1.894901509e-27
1.951018526e-27
2.008277894e-27
2.066585658e-27
2.125798772e-27
2.185741494e-27
2.317468763e-27
2.581275221e-27
2.78398088e-27
3.300040133e-27
2.591474685e-27
4.632282477e-27
2.814336476e-27
6.153630127e-27
2.986807243e-27
7.898388622e-27
3.137882106e-27
9.869719561e-27
3.276636304e-27
1.214821605e-26
3.418892189e-27
1.48528913e-26
3.550285677e-27
1.811325141e-26
3.675542729e-27
2.234996386e-26
3.780991996e-27
3.042982524e-26
4.146593462e-27
3.789619499e-26
4.833873337e-27
4.81048798e-26
5.858101041e-27
6.12948865e-26
8.915644058e-27
1.301087401e-25
1.630493008e-26
2.444305941e-25
2.553067425e-26
4.166164149e-25
5.298737166e-26
1.336888655e-24
1.161405935e-25
4.695033841e-24
3.891575127e-25
2.583584262e-23
1.918451325e-24
2.117711627e-22
1.612321067e-23
5.223317484e-23
1.552363636e-22
4.076467785e-19
3.32231353e-20
3.551471276e-11
1.080171944e-11
1.418003263e-13
3.567985642e-15
1.829445153e-16
1.128816085e-17
8.236174808e-19
4.766599285e-20
2.376520125e-21
1.192101169e-22
1.845138835e-24
1.060426098e-25
2.18457802e-27
1.405611965e-29
1.13064964e-30
9.085945722e-32
4.077710649e-33
5.028432857e-35
1.095672684e-35
2.893072726e-36
5.340833769e-37
2.481767541e-37
5.652103035e-38
2.340221063e-38
1.344268166e-38
6.407258999e-39
2.549622403e-39
1.849524659e-39
1.320994202e-39
9.247925912e-40
6.289510587e-40
3.99411576e-40
2.213510676e-40
1.415422348e-40
1.156708173e-40
9.121261412e-41
7.136006516e-41
5.587896843e-41
4.393734288e-41
3.47267996e-41
2.759249911e-41
2.203416691e-41
1.767706645e-41
1.424148768e-41
1.15178625e-41
9.348080314e-42
7.611897059e-42
6.217138154e-42
5.092617702e-42
4.182984114e-42
3.444933991e-42
2.844404785e-42
2.354471637e-42
1.953758324e-42
1.625226836e-42
1.355248367e-42
1.132885687e-42
9.49335407e-43
7.97492256e-43
6.7160694e-43
5.670163353e-43
4.79929884e-43
4.072598587e-43
3.464860419e-43
2.955475019e-43
2.527558051e-43
2.167252337e-43
1.863165441e-43
1.605915348e-43
1.387762694e-43
1.20231249e-43
1.044271751e-43
9.092522325e-44
7.936095904e-44
6.943120549e-44
6.088330266e-44
5.350631197e-44
4.712380244e-44
4.158792699e-44
3.677455082e-44
3.257924074e-44
2.891395796e-44
2.570432818e-44
2.28873849e-44
2.040970173e-44
1.822584432e-44
1.629708564e-44
1.459033822e-44
1.307726561e-44
1.173354168e-44
1.053823239e-44
9.473278895e-45
8.523064677e-45
7.674052466e-45
6.914479115e-45
6.234098808e-45
5.623966419e-45
5.076254438e-45
4.584098041e-45
4.141463554e-45
3.743036663e-45
3.384127125e-45
3.06058738e-45
2.768742938e-45
2.505332591e-45
2.267457042e-45
2.052534585e-45
1.858262847e-45
1.682585615e-45
1.523664064e-45
1.379851705e-45
1.249672535e-45
1.131801946e-45
1.025049976e-45
9.28346608e-46
8.407288589e-46
7.613293583e-46
6.893662761e-46
6.241344079e-46
5.649972562e-46
5.113800178e-46
4.627633127e-46
4.18677631e-46
3.786983416e-46
3.424412677e-46
3.095586842e-46
2.797357638e-46
2.526873889e-46
2.281552648e-46
2.059053455e-46
1.857255043e-46
1.674234553e-46
1.508248589e-46
1.357716255e-46
1.221203757e-46
1.097410584e-46
9.851570611e-47
8.833729367e-47
7.910871955e-47
7.074187633e-47
6.315681515e-47
5.628099217e-47
5.004857681e-47
4.439982233e-47
3.92805156e-47
3.464144993e-47
3.043797424e-47
2.66295688e-47
2.317945824e-47
2.005426751e-47
1.72237175e-47
1.466032405e-47
1.233915391e-47
1.023757583e-47
8.335061243e-48
6.612979601e-48
5.054437706e-48
3.64410325e-48
2.368068311e-48
1.213716679e-48
1.69604094e-49
0
0
0
0
0
0
0
0
0
0
0
0
0
0
0
0
0
0
0
0
0
0
0
0
0
0
0
0
0
0
0
0
0
0
0
0
0
0
0
0
0
0
0
0
0
0
0
0
0
0
0
0
0
0
0
0
0
0
0
0
0
0
0
0
0
0
0
0
0
0
0
0
0
0
0
0
0
0
0
0
0
0
0
0
0
0
0
0
0
0
0
0
0
0
0
0
0
0
0
0
0
0
0
0
0
0
0
0
0
0
0
0
0
0
0
0
0
0
0
0
0
0
0
0
0
0
0
0
0
0
0
0
0
0
0
0
0
0
0
0
0
0
0
0
0
0
0
0
0
0
0
0
0
0
0
0
0
0
0
0
0
0
0
0
0
0
0
0
0
0
0
0
0
0
0
0
0
0
0
0
0
0
0
0
0
0
0
0
0
0
0
0
0
0
0
0
0
0
0
0
0
0
0
0
0
0
0
0
0
0
0
0
0
0
0
0
0
0
0
0
0
0
0
0
0
0
0
0
0
0
0
0
0
0
0
0
0
0
0
0
0
0
0
0
0
0
0
0
0
0
0
0
0
0
0
0
0
0
0
0
0
0
0
0
0
0
0
0
0
0
0
0
0
0
0
0
0
0
3.166349658e-24
3.183292261e-24
3.215814927e-24
3.262563185e-24
3.322244982e-24
3.393693554e-24
3.475853111e-24
3.567820329e-24
3.668799078e-24
3.778117911e-24
3.895185948e-24
4.019528955e-24
4.150748304e-24
4.288515242e-24
4.432566424e-24
4.582701126e-24
4.738753285e-24
4.900630737e-24
5.068275284e-24
5.241655198e-24
5.420783531e-24
5.605678787e-24
5.79639153e-24
5.992987659e-24
6.19556133e-24
6.404201889e-24
6.618986669e-24
6.840091191e-24
7.067731728e-24
7.302123717e-24
7.543483752e-24
7.792034226e-24
8.048007464e-24
8.311641481e-24
8.583206389e-24
8.862969982e-24
9.151185411e-24
9.448121245e-24
9.754099547e-24
1.006946107e-23
1.039455098e-23
1.072972864e-23
1.107534189e-23
1.143176214e-23
1.179933419e-23
1.217838704e-23
1.25691957e-23
1.297193201e-23
1.338656733e-23
1.381274332e-23
1.471877186e-23
1.59314591e-23
1.71960638e-23
1.851522917e-23
1.989175051e-23
2.132833952e-23
2.282769311e-23
2.439263807e-23
2.602598763e-23
2.773061525e-23
2.950951951e-23
3.13659433e-23
3.330343871e-23
3.532558421e-23
3.743606766e-23
3.963844558e-23
4.193575893e-23
4.433354344e-23
4.683667293e-23
4.945003335e-23
5.217849175e-23
5.502666804e-23
5.799836521e-23
6.110108342e-23
6.434143064e-23
6.772577462e-23
7.126128063e-23
7.495463799e-23
7.881322132e-23
8.28451198e-23
8.705896521e-23
9.146458532e-23
9.607117153e-23
1.008887062e-22
1.059271584e-22
1.11197963e-22
1.167124048e-22
1.224828289e-22
1.38120439e-22
1.555942804e-22
1.740290414e-22
1.934818634e-22
2.140102768e-22
2.356736711e-22
2.585384616e-22
2.826708915e-22
3.081447854e-22
3.350353438e-22
4.09245273e-22
4.938968621e-22
5.882830737e-22
6.931117416e-22
8.091435003e-22
9.371620645e-22
1.077971116e-21
1.232423434e-21
1.401460758e-21
1.586054657e-21
1.82423579e-21
2.263324646e-21
2.756237551e-21
3.305754868e-21
3.914567841e-21
4.584353513e-21
5.314709154e-21
6.103628563e-21
6.950806298e-21
7.835112258e-21
8.80964822e-21
9.615166268e-21
1.068122979e-20
1.145124317e-20
1.268423439e-20
1.346237884e-20
1.493822507e-20
1.575780435e-20
1.851082513e-20
2.153166004e-20
3.096834099e-20
3.571387502e-20
5.000385786e-20
5.593109428e-20
7.584065583e-20
8.333533478e-20
1.11826853e-19
1.232759349e-19
1.738557531e-19
2.027532224e-19
3.022923935e-19
4.125662865e-19
9.209895196e-19
1.333549256e-18
2.374895265e-18
3.267139173e-18
8.343572057e-18
1.311646713e-17
2.906611059e-17
5.111437545e-17
1.4150786e-16
2.722678576e-16
8.911032536e-16
2.035516949e-15
7.581967378e-15
2.000454634e-14
8.85917403e-14
2.871973383e-13
1.551100123e-12
5.999564977e-12
2.087680599e-11
7.261873391e-11
2.817109303e-10
3.37159049e-10
4.52358118e-11
2.876123019e-12
2.229585596e-13
2.281336865e-14
2.604075373e-15
2.682805328e-16
2.62242921e-17
1.563314268e-18
9.389074133e-20
4.04870261e-21
1.092344892e-22
6.476762223e-24
1.732354864e-25
1.461224165e-27
1.59840625e-28
6.810266403e-31
1.345121282e-31
2.031458212e-32
1.541636574e-34
6.28557123e-35
2.683684906e-35
8.08369515e-36
1.540195797e-36
7.024188245e-39
4.863622655e-39
3.278242632e-39
2.09700045e-39
1.218757627e-39
6.381993743e-40
5.169613434e-40
4.183468255e-40
3.378933359e-40
2.71302371e-40
2.162633207e-40
1.714024289e-40
1.356521073e-40
1.075430591e-40
8.553881591e-41
6.829911821e-41
5.474689083e-41
4.404697389e-41
3.556051846e-41
2.880011723e-41
2.339287097e-41
1.905197297e-41
1.555547821e-41
1.273058576e-41
1.044197994e-41
8.583138293e-42
7.069803248e-42
5.835045729e-42
4.825497617e-42
3.998457528e-42
3.319652728e-42
2.761497859e-42
2.301733144e-42
1.922353797e-42
1.608765088e-42
1.349112586e-42
1.133749537e-42
9.54811862e-43
8.058780399e-43
6.816961956e-43
5.779645577e-43
4.911544507e-43
4.18367278e-43
3.572187436e-43
3.057449563e-43
2.623261476e-43
2.256246011e-43
1.945340712e-43
1.681385127e-43
1.456783495e-43
1.265228858e-43
1.101477015e-43
9.611611632e-44
8.406397061e-44
7.368711782e-44
6.473113246e-44
5.698283421e-44
5.026329821e-44
4.442208721e-44
3.93324858e-44
3.488755876e-44
3.099688785e-44
2.758386682e-44
2.458345748e-44
2.194032507e-44
1.960728813e-44
1.754402748e-44
1.571600991e-44
1.409358976e-44
1.265125787e-44
1.136701285e-44
1.022183412e-44
9.199239236e-45
8.284911758e-45
7.466387741e-45
6.732791138e-45
6.074610123e-45
5.483507633e-45
4.952160518e-45
4.47412289e-45
4.043709533e-45
3.655896418e-45
3.306235508e-45
2.990781719e-45
2.706030096e-45
2.448861688e-45
2.216496798e-45
2.006454513e-45
1.816517593e-45
1.644701908e-45
1.489229823e-45
1.348506947e-45
1.221101748e-45
1.10572769e-45
1.001227507e-45
9.065593579e-46
8.207846083e-46
7.430569932e-46
6.72613059e-46
6.08763624e-46
5.508862402e-46
4.984184363e-46
4.508517043e-46
4.077261501e-46
3.686256684e-46
3.33173661e-46
3.010291703e-46
2.718834209e-46
2.454567164e-46
2.214956452e-46
1.997705473e-46
1.800732675e-46
1.622151063e-46
1.460249754e-46
1.313477351e-46
1.180426872e-46
1.05982225e-46
9.505061039e-47
8.514285325e-47
7.616370567e-47
6.802676714e-47
6.065364871e-47
5.397322991e-47
4.792099132e-47
4.243839014e-47
3.747231007e-47
3.297457008e-47
2.8901442e-47
2.521326918e-47
2.187405917e-47
1.885116869e-47
1.611498408e-47
1.363864018e-47
1.139776934e-47
9.370264286e-48
7.536074552e-48
5.877024135e-48
4.376621985e-48
3.019906178e-48
1.793327706e-48
6.845888737e-49
0
0
0
0
0
0
0
0
0
0
0
0
0
0
0
0
0
0
0
0
0
0
0
0
0
0
0
0
0
0
0
0
0
0
0
0
0
0
0
0
0
0
0
0
0
0
0
0
0
0
0
0
0
0
0
0
0
0
0
0
0
0
0
0
0
0
0
0
0
0
0
0
0
0
0
0
0
0
0
0
0
0
0
0
0
0
0
0
0
0
0
0
0
0
0
0
0
0
0
0
0
0
0
0
0
0
0
0
0
0
0
0
0
0
0
0
0
0
0
0
0
0
0
0
0
0
0
0
0
0
0
0
0
0
0
0
0
0
0
0
0
0
0
0
0
0
0
0
0
0
0
0
0
0
0
0
0
0
0
0
0
0
0
0
0
0
0
0
0
0
0
0
0
0
0
0
0
0
0
0
0
0
0
0
0
0
0
0
0
0
0
0
0
0
0
0
0
0
0
0
0
0
0
0
0
0
0
0
0
0
0
0
0
0
0
0
0
0
0
0
0
0
0
0
0
0
0
0
0
0
0
0
0
0
0
0
0
0
0
0
0
0
0
0
0
0
0
0
0
0
0
0
0
0
0
0
0
0
0
0
0
0
0
0
0
0
0
0
0
0
0
0
0
0
6.709203147e-22
6.73619137e-22
6.787596826e-22
6.86110102e-22
6.954533034e-22
7.065913285e-22
7.19346586e-22
7.335628392e-22
7.49103353e-22
7.658502041e-22
7.837019723e-22
8.025739997e-22
8.223949676e-22
8.431063095e-22
8.646594446e-22
8.870165205e-22
9.101469401e-22
9.340298305e-22
9.586513079e-22
9.840023079e-22
1.010079234e-21
1.036881067e-21
1.0644111e-21
1.09267585e-21
1.121684756e-21
1.151449733e-21
1.200086732e-21
1.263818121e-21
1.329567675e-21
1.397405082e-21
1.46740152e-21
1.539629828e-21
1.61416686e-21
1.691094042e-21
1.770497269e-21
1.852465379e-21
1.93708955e-21
2.024467746e-21
2.114708588e-21
2.207923293e-21
2.304227568e-21
2.403741553e-21
2.506585098e-21
2.612884167e-21
2.722764743e-21
2.836351537e-21
2.953768603e-21
3.07512609e-21
3.200509317e-21
3.329942217e-21
3.463280432e-21
3.60075976e-21
3.742747323e-21
3.889496375e-21
4.041309364e-21
4.198439346e-21
4.361126171e-21
4.529609603e-21
4.704127784e-21
4.88492139e-21
5.072215884e-21
5.266295531e-21
5.467453459e-21
5.675998445e-21
5.892248878e-21
6.116529104e-21
6.502596457e-21
7.006202598e-21
7.531505706e-21
8.079491979e-21
8.651198706e-21
9.34443905e-21
1.097302645e-20
1.275316308e-20
1.469325111e-20
1.680212744e-20
1.908917589e-20
2.156422647e-20
2.423766152e-20
2.712066602e-20
3.022592312e-20
3.356908994e-20
3.716217958e-20
4.101826465e-20
4.51518771e-20
4.957905507e-20
5.43167758e-20
5.938313035e-20
6.479700715e-20
7.337186496e-20
8.371666323e-20
9.497047797e-20
1.071919654e-19
1.204438224e-19
1.347924609e-19
1.503088494e-19
1.670708121e-19
1.851570283e-19
2.046562012e-19
2.256521211e-19
2.482311143e-19
2.725026577e-19
2.985801703e-19
3.265799289e-19
3.662507823e-19
4.211642715e-19
4.806678405e-19
5.450223432e-19
6.145491667e-19
6.89561054e-19
7.890120471e-19
1.004261303e-18
1.247384194e-18
1.519782233e-18
1.822594094e-18
2.156640806e-18
2.608557047e-18
3.157038475e-18
3.758131564e-18
4.397645168e-18
5.099660396e-18
5.842801997e-18
6.674596833e-18
7.555312871e-18
8.559314979e-18
9.620797417e-18
1.08479489e-17
1.325214537e-17
1.698070962e-17
2.160571546e-17
2.764509191e-17
3.43596916e-17
4.282028187e-17
5.228330824e-17
6.45690967e-17
7.887990994e-17
1.10745534e-16
1.635232153e-16
2.455951191e-16
3.500945508e-16
4.954542016e-16
8.309280221e-16
1.375008387e-15
2.177254809e-15
3.81946869e-15
6.647548221e-15
1.193697134e-14
2.31058284e-14
4.531315095e-14
9.242359634e-14
2.078262593e-13
4.731887541e-13
1.182313181e-12
3.060805094e-12
8.579634341e-12
2.439527335e-11
7.388081318e-11
2.083201847e-10
5.449853472e-10
1.216524468e-09
1.867944179e-09
1.132932492e-09
2.55270849e-10
4.02748485e-11
6.240606752e-12
1.024153702e-12
1.730400956e-13
2.643937017e-14
3.913023398e-15
4.933045961e-16
3.790629337e-17
3.154637697e-18
1.744227621e-19
6.757988505e-21
2.229798906e-22
7.319350953e-24
1.737741562e-25
2.418169328e-27
1.699040248e-28
4.273468145e-30
4.284059784e-31
8.037590434e-33
3.275975333e-33
4.988352823e-34
8.077250785e-36
4.21411743e-36
1.870327414e-36
1.03636124e-36
4.229881751e-37
8.907882702e-40
7.143626521e-40
5.725854321e-40
4.589796898e-40
3.676425463e-40
2.939767303e-40
2.346070261e-40
1.870243612e-40
1.492208917e-40
1.193374875e-40
9.573322422e-41
7.70526316e-41
6.222048571e-41
5.039986716e-41
4.094367962e-41
3.335171382e-41
2.723611617e-41
2.229471267e-41
1.829085803e-41
1.50383038e-41
1.238977293e-41
1.02283028e-41
8.460635791e-42
7.012159142e-42
5.822986661e-42
4.844913314e-42
4.039034996e-42
3.373878543e-42
2.82392664e-42
2.368448199e-42
1.990568739e-42
1.676528376e-42
1.415088149e-42
1.197053553e-42
1.014891164e-42
8.624195483e-43
7.345594629e-43
6.27131583e-43
5.366924231e-43
4.604010003e-43
3.959103212e-43
3.412789275e-43
2.948986879e-43
2.554357773e-43
2.217823839e-43
1.930171226e-43
1.68372576e-43
1.472086259e-43
1.289905295e-43
1.132708754e-43
9.967471703e-44
8.788731021e-44
7.764399065e-44
6.872180506e-44
6.093259025e-44
5.41172396e-44
4.814095012e-44
4.288927737e-44
3.826485709e-44
3.418467897e-44
3.057781448e-44
2.738352355e-44
2.454967282e-44
2.203141337e-44
1.979007356e-44
1.779223071e-44
1.600893139e-44
1.44150359e-44
1.298866553e-44
1.171073644e-44
1.056456545e-44
9.535536084e-45
8.610815198e-45
7.779112032e-45
7.030472768e-45
6.356105331e-45
5.748229249e-45
5.199946997e-45
4.705133393e-45
4.25834031e-45
3.854714393e-45
3.489925889e-45
3.160106817e-45
2.861797357e-45
2.591899002e-45
2.347633719e-45
2.126508184e-45
1.926282424e-45
1.744942243e-45
1.580674935e-45
1.431847869e-45
1.296989536e-45
1.17477278e-45
1.063999896e-45
9.635894116e-46
8.725642988e-46
7.900414744e-46
7.152224289e-46
6.473848366e-46
5.858750666e-46
5.301014467e-46
4.795282421e-46
4.336702321e-46
3.920878494e-46
3.543827892e-46
3.201940782e-46
2.891945035e-46
2.610874254e-46
2.356038722e-46
2.12499939e-46
1.915544212e-46
1.725666876e-46
1.553547487e-46
1.397535218e-46
1.256132423e-46
1.12798043e-46
1.011846571e-46
9.066124878e-47
8.112634517e-47
7.248788709e-47
6.466233896e-47
5.757391319e-47
5.115385441e-47
4.533976833e-47
4.007505952e-47
3.530837495e-47
3.099312849e-47
2.708705934e-47
2.355183527e-47
2.035267455e-47
1.745803644e-47
1.483930964e-47
1.247054918e-47
1.03282243e-47
8.390991699e-48
6.639505905e-48
5.056220788e-48
3.625229582e-48
2.332114809e-48
1.163809756e-48
1.084617041e-49
0
0
0
0
0
0
0
0
0
0
0
0
0
0
0
0
0
0
0
0
0
0
0
0
0
0
0
0
0
0
0
0
0
0
0
0
0
0
0
0
0
0
0
0
0
0
0
0
0
0
0
0
0
0
0
0
0
0
0
0
0
0
0
0
0
0
0
0
0
0
0
0
0
0
0
0
0
0
0
0
0
0
0
0
0
0
0
0
0
0
0
0
0
0
0
0
0
0
0
0
0
0
0
0
0
0
0
0
0
0
0
0
0
0
0
0
0
0
0
0
0
0
0
0
0
0
0
0
0
0
0
0
0
0
0
0
0
0
0
0
0
0
0
0
0
0
0
0
0
0
0
0
0
0
0
0
0
0
0
0
0
0
0
0
0
0
0
0
0
0
0
0
0
0
0
0
0
0
0
0
0
0
0
0
0
0
0
0
0
0
0
0
0
0
0
0
0
0
0
0
0
0
0
0
0
0
0
0
0
0
0
0
0
0
0
0
0
0
0
0
0
0
0
0
0
0
0
0
0
0
0
0
0
0
0
0
0
0
0
0
0
0
0
0
0
0
0
0
0
0
0
0
0
0
0
0
0
0
0
0
0
0
0
0
0
0
0
0
0
0
2.170756413e-20
2.179396178e-20
2.195772964e-20
2.219100171e-20
2.248665804e-20
2.283829683e-20
2.324021322e-20
2.368738466e-20
2.417542436e-20
2.470054017e-20
2.525948621e-20
2.584953137e-20
2.646839163e-20
2.711417886e-20
2.778533532e-20
2.848060265e-20
2.919898774e-20
2.993981431e-20
3.070264251e-20
3.148717941e-20
3.229328485e-20
3.31209303e-20
3.397017899e-20
3.484122674e-20
3.573440082e-20
3.665019126e-20
3.797388249e-20
3.962339762e-20
4.132009145e-20
4.306536761e-20
4.486078642e-20
4.670801148e-20
4.860880675e-20
5.056503931e-20
5.257866918e-20
5.465171788e-20
5.678630411e-20
5.898439581e-20
6.124866566e-20
6.358179922e-20
6.598647378e-20
6.846543167e-20
7.102143762e-20
7.365734949e-20
7.637611277e-20
7.918066479e-20
8.207396969e-20
8.505880462e-20
8.81377898e-20
9.131333414e-20
9.458798348e-20
9.796595883e-20
1.039032654e-19
1.165642945e-19
1.299227663e-19
1.440157902e-19
1.588801574e-19
1.745525867e-19
1.910705578e-19
2.084729274e-19
2.31555193e-19
2.568802147e-19
2.840127722e-19
3.130472976e-19
3.440807563e-19
3.772145831e-19
4.125531143e-19
4.502083771e-19
4.902996175e-19
5.329521697e-19
5.78300214e-19
6.264899612e-19
6.776829753e-19
7.32017861e-19
7.896511305e-19
8.507508552e-19
9.154956427e-19
9.840723453e-19
1.056674324e-18
1.133491856e-18
1.214747517e-18
1.331154794e-18
1.463955056e-18
1.605896259e-18
1.75749283e-18
1.919298813e-18
2.09190429e-18
2.27593708e-18
2.472064761e-18
2.681011497e-18
2.903509073e-18
3.140324531e-18
3.392370763e-18
3.660623123e-18
3.946008868e-18
4.268028859e-18
4.744411837e-18
5.254827749e-18
5.801406094e-18
6.3863901e-18
7.808551191e-18
9.451904496e-18
1.128173876e-17
1.331197999e-17
1.55557665e-17
1.802774587e-17
2.075624471e-17
2.454834362e-17
2.877302909e-17
3.345934872e-17
3.863687772e-17
4.433542725e-17
5.058234896e-17
5.740307026e-17
6.482024497e-17
7.285243408e-17
8.366068617e-17
9.595279842e-17
1.091753125e-16
1.314174141e-16
1.643077174e-16
2.009523414e-16
2.420059833e-16
2.876249272e-16
3.388203721e-16
4.011752489e-16
4.785323983e-16
5.660883078e-16
6.668153379e-16
7.808764379e-16
1.000172656e-15
1.285495765e-15
1.625071989e-15
2.098063243e-15
2.687591099e-15
3.414588402e-15
4.504680639e-15
6.524556227e-15
9.433595107e-15
1.321575893e-14
1.929406283e-14
3.04472098e-14
4.701563753e-14
7.395730245e-14
1.244809375e-13
2.016937388e-13
3.649015521e-13
6.548553551e-13
1.224345097e-12
2.400214308e-12
4.907109415e-12
1.035150022e-11
2.311195488e-11
5.318317324e-11
1.278289945e-10
3.096309631e-10
7.495988259e-10
1.724771044e-09
3.588327279e-09
6.14502131e-09
7.274620545e-09
4.733752452e-09
1.752907429e-09
4.702866517e-10
1.089012381e-10
2.432787834e-11
5.151497136e-12
1.082156836e-12
2.084961356e-13
3.72598479e-14
5.965817918e-15
7.473554822e-16
5.626483273e-17
4.776406803e-18
2.284691483e-19
4.917503704e-21
1.567042084e-22
3.909211518e-24
1.238239633e-25
1.223302117e-26
2.187873318e-28
1.253452838e-29
5.512511911e-31
8.940008495e-32
1.670375669e-33
8.402222021e-34
2.460929456e-34
2.364033847e-36
1.604132358e-36
1.033527845e-36
6.057599816e-37
2.867526867e-37
5.160483125e-38
3.529793956e-40
2.822049318e-40
2.257024291e-40
1.807147777e-40
1.450023105e-40
1.166765057e-40
9.41784435e-41
7.625886463e-41
6.193763604e-41
5.045183913e-41
4.120835647e-41
3.374521527e-41
2.770135387e-41
2.279322195e-41
1.879705858e-41
1.553553651e-41
1.286754272e-41
1.068036591e-41
8.883648544e-42
7.404746195e-42
6.185086138e-42
5.177318199e-42
4.343072923e-42
3.651188883e-42
3.076307938e-42
2.59775377e-42
2.198637122e-42
1.865138164e-42
1.585930082e-42
1.351714709e-42
1.154847343e-42
9.890333515e-43
8.490821467e-43
7.307073292e-43
6.303640964e-43
5.451166983e-43
4.725302859e-43
4.105825025e-43
3.575911025e-43
3.12154633e-43
2.731037678e-43
2.394612973e-43
2.104092466e-43
1.852617724e-43
1.634428231e-43
1.444676987e-43
1.279278133e-43
1.134780876e-43
1.008265103e-43
8.972547639e-44
7.996460268e-44
7.136475308e-44
6.377306809e-44
5.705882302e-44
5.110997173e-44
4.58302614e-44
4.113681536e-44
3.695811133e-44
3.323228298e-44
2.990569331e-44
2.693173355e-44
2.426981054e-44
2.188449109e-44
1.974477871e-44
1.782349916e-44
1.60967797e-44
1.454360517e-44
1.314543958e-44
1.188590264e-44
1.075049279e-44
9.726349172e-45
8.802047288e-45
7.967422392e-45
7.213417101e-45
6.531949324e-45
5.915797637e-45
5.358501522e-45
4.85427446e-45
4.397927788e-45
3.984804321e-45
3.610719794e-45
3.271911542e-45
2.964993235e-45
2.6869149e-45
2.434927586e-45
2.206552017e-45
1.999550829e-45
1.811903825e-45
1.641785981e-45
1.487547828e-45
1.347697926e-45
1.220887196e-45
1.105894915e-45
1.001616126e-45
9.070503757e-46
8.212915947e-46
7.435189849e-46
6.729888348e-46
6.090271521e-46
5.510230192e-46
4.98422589e-46
4.507237034e-46
4.074709952e-46
3.682514928e-46
3.326906281e-46
3.004486426e-46
2.712173264e-46
2.447170758e-46
2.206942125e-46
1.989185857e-46
1.79181372e-46
1.612931003e-46
1.450818493e-46
1.303916256e-46
1.17080881e-46
1.050211837e-46
9.409599402e-47
8.419956734e-47
7.523596726e-47
6.711813645e-47
5.976709583e-47
5.311119298e-47
4.708540992e-47
4.163077981e-47
3.669379507e-47
3.222592754e-47
2.818315266e-47
2.452554923e-47
2.121690143e-47
1.822436406e-47
1.551816017e-47
1.307128301e-47
1.08592477e-47
8.859852836e-48
7.05297619e-48
5.420371775e-48
3.945503729e-48
2.613384856e-48
1.410437235e-48
3.243524923e-49
0
0
0
0
0
0
0
0
0
0
0
0
0
0
0
0
0
0
0
0
0
0
0
0
0
0
0
0
0
0
0
0
0
0
0
0
0
0
0
0
0
0
0
0
0
0
0
0
0
0
0
0
0
0
0
0
0
0
0
0
0
0
0
0
0
0
0
0
0
0
0
0
0
0
0
0
0
0
0
0
0
0
0
0
0
0
0
0
0
0
0
0
0
0
0
0
0
0
0
0
0
0
0
0
0
0
0
0
0
0
0
0
0
0
0
0
0
0
0
0
0
0
0
0
0
0
0
0
0
0
0
0
0
0
0
0
0
0
0
0
0
0
0
0
0
0
0
0
0
0
0
0
0
0
0
0
0
0
0
0
0
0
0
0
0
0
0
0
0
0
0
0
0
0
0
0
0
0
0
0
0
0
0
0
0
0
0
0
0
0
0
0
0
0
0
0
0
0
0
0
0
0
0
0
0
0
0
0
0
0
0
0
0
0
0
0
0
0
0
0
0
0
0
0
0
0
0
0
0
0
0
0
0
0
0
0
0
0
0
0
0
0
0
0
0
0
0
0
0
0
0
0
0
0
0
0
0
0
0
0
0
0
0
0
0
0
0
2.370863913e-19
2.381169169e-19
2.400636213e-19
2.428282244e-19
2.46323816e-19
2.50473393e-19
2.552089995e-19
2.604710579e-19
2.662077011e-19
2.723741341e-19
2.789320519e-19
2.858493155e-19
2.930991435e-19
3.006593985e-19
3.085118397e-19
3.166414025e-19
3.250346233e-19
3.336849517e-19
3.42587833e-19
3.51740036e-19
3.611399343e-19
3.707872965e-19
3.806829745e-19
3.908284097e-19
4.012276617e-19
4.118876183e-19
4.228163119e-19
4.340202191e-19
4.455051944e-19
4.572787261e-19
4.693493489e-19
4.817263729e-19
4.944197738e-19
5.074401433e-19
5.207986638e-19
5.41158032e-19
5.625678031e-19
6.202410522e-19
6.90613117e-19
7.649993904e-19
8.43560697e-19
9.264634507e-19
1.013879386e-18
1.10598724e-18
1.202975251e-18
1.305051124e-18
1.41242909e-18
1.52526244e-18
1.643734179e-18
1.768039882e-18
1.898400546e-18
2.035096997e-18
2.178473973e-18
2.328895792e-18
2.486675592e-18
2.65216426e-18
2.825726996e-18
3.007728472e-18
3.198547079e-18
3.398580124e-18
3.608243005e-18
3.854137195e-18
4.152072261e-18
4.467133756e-18
4.800158543e-18
5.152049877e-18
5.523832049e-18
5.916411805e-18
6.330751112e-18
6.767916827e-18
7.229055695e-18
7.715392298e-18
8.228211833e-18
8.768810339e-18
9.338553638e-18
9.938893596e-18
1.057136902e-17
1.123760065e-17
1.19392965e-17
1.280794998e-17
1.386969319e-17
1.499523425e-17
1.618814103e-17
1.745213126e-17
1.879095329e-17
2.020886878e-17
2.17103572e-17
2.330013521e-17
2.498318671e-17
2.676477766e-17
2.865047032e-17
3.245841705e-17
3.836644434e-17
4.545070451e-17
5.328089345e-17
6.190637168e-17
7.137946398e-17
8.175879441e-17
9.310626732e-17
1.05488367e-16
1.18978735e-16
1.336529507e-16
1.50339202e-16
1.718871043e-16
1.955074008e-16
2.21341746e-16
2.495415197e-16
2.802701269e-16
3.136865411e-16
3.499639391e-16
3.892773757e-16
4.415275472e-16
5.008807015e-16
5.961601962e-16
7.36144797e-16
8.928924079e-16
1.067314441e-15
1.260197571e-15
1.485072974e-15
1.762667831e-15
2.071044627e-15
2.41300604e-15
2.792922483e-15
3.214797721e-15
3.684788182e-15
4.414447248e-15
5.651194892e-15
7.091298782e-15
8.768456183e-15
1.071470813e-14
1.298031087e-14
1.584566205e-14
1.95897139e-14
2.633464476e-14
3.476071106e-14
4.588965719e-14
6.149503431e-14
8.171668822e-14
1.195625583e-13
1.73132001e-13
2.472942533e-13
3.776228583e-13
5.821159379e-13
8.920694742e-13
1.475972898e-12
2.398681931e-12
4.103211306e-12
7.141097604e-12
1.284695688e-11
2.402900972e-11
4.631306452e-11
9.120412283e-11
1.866802693e-10
3.870097397e-10
8.163137878e-10
1.727351257e-09
3.590431781e-09
7.161122671e-09
1.315440617e-08
2.085702686e-08
2.554623795e-08
2.150066628e-08
1.226319002e-08
5.149646632e-09
1.720595155e-09
4.862047583e-10
1.218243043e-10
2.718085193e-11
6.155233753e-12
1.291684379e-12
2.580135989e-13
4.881696951e-14
8.306522514e-15
1.15935202e-15
1.084146723e-16
8.503104437e-18
3.528551963e-19
1.861316549e-20
7.640793826e-22
2.604337055e-23
6.600192024e-25
1.182777484e-26
1.571762878e-27
5.323888541e-29
4.463747972e-31
2.095696367e-31
4.045445486e-32
8.13138502e-34
4.265533691e-34
1.449871962e-34
1.199240564e-36
8.323917237e-37
5.533783203e-37
3.41996494e-37
1.827219084e-37
6.3669453e-38
1.714264095e-40
1.381175964e-40
1.116494844e-40
9.055999247e-41
7.369628054e-41
6.016167029e-41
4.925986078e-41
4.044862754e-41
3.330392243e-41
2.749309377e-41
2.275385048e-41
1.887829556e-41
1.570104258e-41
1.308999432e-41
1.093930853e-41
9.163821345e-42
7.694855831e-42
6.476866848e-42
5.464814159e-42
4.622088513e-42
3.918863819e-42
3.330793964e-42
2.837963545e-42
2.424050991e-42
2.075654974e-42
1.781752377e-42
1.533260898e-42
1.322684139e-42
1.143824365e-42
9.915489963e-43
8.616004227e-43
7.504410096e-43
6.551263156e-43
5.732014678e-43
5.02616251e-43
4.416553572e-43
3.888811018e-43
3.43086274e-43
3.032552587e-43
2.685320066e-43
2.381935286e-43
2.116279754e-43
1.883164802e-43
1.678180994e-43
1.49757301e-43
1.33813565e-43
1.197127075e-43
1.072196574e-43
9.613241671e-44
8.627701026e-44
7.750325436e-44
6.968120428e-44
6.269817287e-44
5.645621313e-44
5.087000229e-44
4.586504966e-44
4.137618087e-44
3.734625194e-44
3.372505681e-44
3.046839628e-44
2.753728529e-44
2.489727229e-44
2.251785867e-44
2.037199856e-44
1.843566884e-44
1.668749813e-44
1.510844619e-44
1.368152573e-44
1.239156145e-44
1.122497975e-44
1.01696257e-44
9.214602857e-45
8.350133084e-45
7.567433392e-45
6.858607829e-45
6.216551802e-45
5.634868236e-45
5.107792802e-45
4.63012804e-45
4.197184774e-45
3.804730049e-45
3.448940824e-45
3.126362565e-45
2.833872486e-45
2.568646486e-45
2.328129698e-45
2.110010036e-45
1.912194499e-45
1.732787876e-45
1.570073645e-45
1.422496738e-45
1.288648091e-45
1.167250681e-45
1.057146965e-45
9.572875317e-46
8.66720871e-46
7.845841549e-46
7.100948452e-46
6.425431975e-46
5.812854046e-46
5.257374422e-46
4.753694757e-46
4.297008079e-46
3.88295299e-46
3.507572316e-46
3.167275323e-46
2.858803886e-46
2.579201574e-46
2.325785675e-46
2.096121822e-46
1.888001029e-46
1.69941881e-46
1.528556324e-46
1.373763123e-46
1.233541641e-46
1.10653306e-46
9.91504451e-47
8.87337236e-47
7.930165169e-47
7.076215697e-47
6.303171278e-47
5.603454114e-47
4.970190859e-47
4.397146664e-47
3.87866693e-47
3.409622752e-47
2.985362713e-47
2.601669093e-47
2.254716979e-47
1.941038557e-47
1.657489968e-47
1.401220688e-47
1.169646519e-47
9.604257109e-48
7.714354925e-48
6.007525033e-48
4.466335655e-48
3.074991071e-48
1.819182448e-48
6.859494647e-49
0
0
0
0
0
0
0
0
0
0
0
0
0
0
0
0
0
0
0
0
0
0
0
0
0
0
0
0
0
0
0
0
0
0
0
0
0
0
0
0
0
0
0
0
0
0
0
0
0
0
0
0
0
0
0
0
0
0
0
0
0
0
0
0
0
0
0
0
0
0
0
0
0
0
0
0
0
0
0
0
0
0
0
0
0
0
0
0
0
0
0
0
0
0
0
0
0
0
0
0
0
0
0
0
0
0
0
0
0
0
0
0
0
0
0
0
0
0
0
0
0
0
0
0
0
0
0
0
0
0
0
0
0
0
0
0
0
0
0
0
0
0
0
0
0
0
0
0
0
0
0
0
0
0
0
0
0
0
0
0
0
0
0
0
0
0
0
0
0
0
0
0
0
0
0
0
0
0
0
0
0
0
0
0
0
0
0
0
0
0
0
0
0
0
0
0
0
0
0
0
0
0
0
0
0
0
0
0
0
0
0
0
0
0
0
0
0
0
0
0
0
0
0
0
0
0
0
0
0
0
0
0
0
0
0
0
0
0
0
0
0
0
0
0
0
0
0
0
0
0
0
0
0
0
0
0
0
0
0
0
0
0
0
0
1.417409567e-18
1.422279113e-18
1.43144952e-18
1.44443147e-18
1.460797297e-18
1.480172379e-18
1.502229167e-18
1.526682422e-18
1.553284991e-18
1.581823589e-18
1.612113754e-18
1.64400473e-18
1.677372203e-18
1.712112312e-18
1.748140088e-18
1.785387487e-18