/*--------------------------------*- C++ -*----------------------------------*\
| =========                 |                                                 |
| \\      /  F ield         | OpenFOAM: The Open Source CFD Toolbox           |
|  \\    /   O peration     | Version:  v2006                                 |
|   \\  /    A nd           | Website:  www.openfoam.com                      |
|    \\/     M anipulation  |                                                 |
\*---------------------------------------------------------------------------*/
FoamFile
{
    version     2.0;
    format      ascii;
    class       volScalarField;
    location    "0.1";
    object      CH2;
}
// * * * * * * * * * * * * * * * * * * * * * * * * * * * * * * * * * * * * * //

dimensions      [0 0 0 0 0 0 0];


internalField   nonuniform List<scalar> 
72000
(
2.927512507e-21
2.929170012e-21
2.932402102e-21
2.937072343e-21
2.943031279e-21
2.950131374e-21
2.958230563e-21
2.967201924e-21
2.976929907e-21
2.987314818e-21
2.998266797e-21
3.009711695e-21
3.021585932e-21
3.033834919e-21
3.046414019e-21
3.059286092e-21
3.072419654e-21
3.085791622e-21
3.099382988e-21
3.113178163e-21
3.127167475e-21
3.141345431e-21
3.155704005e-21
3.170238804e-21
3.184948221e-21
3.199828864e-21
3.214879072e-21
3.230103649e-21
3.245508525e-21
3.26110122e-21
3.276888431e-21
3.292876696e-21
3.309072091e-21
3.325479337e-21
3.342106313e-21
3.358961102e-21
3.376051214e-21
3.393384132e-21
3.410970163e-21
3.428818234e-21
3.446936954e-21
3.46533571e-21
3.484022756e-21
3.503008467e-21
3.522301665e-21
3.541911936e-21
3.561848365e-21
3.582120877e-21
3.60273652e-21
3.623700901e-21
3.645082765e-21
3.666867655e-21
3.689039291e-21
3.711613102e-21
3.734604384e-21
3.758026067e-21
3.781889525e-21
3.806208744e-21
3.830995279e-21
3.856260018e-21
3.88201591e-21
3.908275824e-21
3.935057822e-21
3.962376204e-21
3.990245954e-21
4.023237606e-21
4.097027227e-21
4.172372067e-21
4.249336276e-21
4.327974452e-21
4.408334224e-21
4.490470874e-21
4.574432144e-21
4.6602719e-21
4.748046877e-21
4.837805632e-21
4.929623322e-21
5.023541576e-21
5.119619186e-21
5.217915187e-21
5.318480016e-21
5.42139687e-21
5.526736116e-21
5.634585013e-21
5.745024225e-21
5.858141692e-21
5.974009519e-21
6.092696578e-21
6.214160561e-21
6.338564606e-21
6.46601967e-21
6.596641548e-21
6.730533391e-21
6.867772217e-21
7.008474767e-21
7.152722449e-21
7.300625377e-21
7.452283866e-21
7.607777908e-21
7.76724772e-21
7.930784097e-21
8.098476327e-21
8.2704017e-21
8.446614306e-21
8.627167016e-21
8.812092996e-21
9.001430475e-21
9.195157073e-21
9.393166207e-21
9.595173355e-21
9.801157893e-21
1.001077073e-20
1.022348103e-20
1.043861868e-20
1.075136837e-20
1.125397362e-20
1.159228387e-20
1.27575539e-20
1.084546335e-20
1.572400201e-20
1.129365732e-20
1.901218767e-20
1.16413313e-20
2.268718697e-20
1.194711299e-20
2.673025135e-20
1.222897093e-20
3.12977338e-20
1.25208121e-20
3.662740662e-20
1.279217288e-20
4.296131341e-20
1.305381122e-20
5.110409018e-20
1.328179844e-20
6.644442253e-20
1.406218933e-20
7.790261403e-20
1.554922516e-20
9.278248093e-20
1.775837662e-20
1.119263116e-19
2.214214203e-20
1.669893344e-19
3.071720004e-20
2.523662765e-19
4.142341594e-20
3.679489601e-19
6.183465848e-20
7.407521374e-19
9.766645456e-20
1.557290031e-18
1.87771382e-19
4.62525863e-18
4.407908212e-19
1.505531475e-17
1.30069291e-18
2.286863276e-18
3.737121722e-18
1.677080664e-15
9.135198343e-17
6.701685107e-09
1.496172978e-08
2.389498025e-09
3.271560372e-10
5.396131232e-11
9.024100977e-12
1.535238268e-12
2.159380992e-13
2.513872909e-14
2.894788724e-15
1.490597838e-16
1.669479258e-17
7.712293465e-19
2.678751124e-20
4.499131594e-21
7.6483633e-22
8.823953822e-23
1.437496771e-23
5.990733007e-24
2.851132477e-24
1.239180695e-24
7.230593701e-25
3.596643745e-25
2.328677924e-25
1.581217018e-25
1.025251029e-25
6.695394993e-26
5.15305232e-26
3.94410582e-26
2.998940791e-26
2.260607861e-26
1.657985041e-26
1.163165395e-26
8.878019901e-27
7.423116103e-27
6.0365098e-27
4.890114486e-27
3.976407058e-27
3.254467544e-27
2.683050265e-27
2.228045404e-27
1.862975089e-27
1.567728286e-27
1.327098041e-27
1.129545418e-27
9.662519597e-28
8.304206015e-28
7.167663777e-28
6.211451875e-28
5.402815866e-28
4.715675156e-28
4.129121361e-28
3.626286063e-28
3.193479609e-28
2.819530464e-28
2.495274264e-28
2.213155854e-28
1.966917173e-28
1.751351045e-28
1.562105766e-28
1.395529221e-28
1.248543925e-28
1.118546371e-28
1.003325609e-28
9.009971008e-29
8.099487616e-29
7.287967815e-29
6.563493133e-29
5.91576519e-29
5.335857704e-29
4.81601047e-29
4.349457618e-29
3.930283971e-29
3.553304497e-29
3.213962815e-29
2.908245461e-29
2.632609243e-29
2.383919473e-29
2.159397309e-29
1.95657471e-29
1.773255793e-29
1.607483574e-29
1.457511277e-29
1.321777497e-29
1.19888465e-29
1.08758022e-29
9.86740398e-30
8.9535577e-30
8.125187731e-30
7.374126665e-30
6.6930182e-30
6.075231404e-30
5.514784874e-30
5.006279544e-30
4.544839005e-30
4.126056462e-30
3.745947447e-30
3.400907642e-30
3.08767522e-30
2.803297116e-30
2.545098854e-30
2.310657454e-30
2.097777115e-30
1.904467393e-30
1.728923526e-30
1.569508756e-30
1.424738373e-30
1.293265354e-30
1.173867374e-30
1.065435098e-30
9.669616078e-31
8.775328184e-31
7.963188439e-31
7.225661567e-31
6.555904959e-31
5.947704672e-31
5.395417174e-31
4.893916686e-31
4.43854747e-31
4.025080469e-31
3.649674163e-31
3.308838801e-31
2.999404255e-31
2.718490554e-31
2.463481451e-31
2.232000054e-31
2.021886997e-31
1.831180603e-31
1.658098682e-31
1.501022166e-31
1.358480129e-31
1.229136364e-31
1.111776983e-31
1.00529927e-31
9.087014704e-32
8.210735934e-32
7.41589089e-32
6.694971369e-32
6.041157684e-32
5.448255368e-32
4.910638283e-32
4.423197102e-32
3.981291721e-32
3.580707727e-32
3.217618727e-32
2.888549465e-32
2.590344845e-32
2.320140325e-32
2.075334831e-32
1.853566777e-32
1.652693021e-32
1.470767442e-32
1.306024113e-32
1.156859563e-32
1.02181903e-32
8.995818687e-33
7.889505079e-33
6.888376945e-33
5.982570108e-33
5.163135196e-33
4.421952794e-33
3.751665372e-33
3.145586725e-33
2.597664033e-33
2.102406276e-33
1.654828373e-33
1.250423343e-33
8.850903228e-34
5.551228704e-34
2.57157264e-34
0
0
0
0
0
0
0
0
0
0
0
0
0
0
0
0
0
0
0
0
0
0
0
0
0
0
0
0
0
0
0
0
0
0
0
0
0
0
0
0
0
0
0
0
0
0
0
0
0
0
0
0
0
0
0
0
0
0
0
0
0
0
0
0
0
0
0
0
0
0
0
0
0
0
0
0
0
0
0
0
0
0
0
0
0
0
0
0
0
0
0
0
0
0
0
0
0
0
0
0
0
0
0
0
0
0
0
0
0
0
0
0
0
0
0
0
0
0
0
0
0
0
0
0
0
0
0
0
0
0
0
0
0
0
0
0
0
0
0
0
0
0
0
0
0
0
0
0
0
0
0
0
0
0
0
0
0
0
0
0
0
0
0
0
0
0
0
0
0
0
0
0
0
0
0
0
0
0
0
0
0
0
0
0
0
0
0
0
0
0
0
0
0
0
0
0
0
0
0
0
0
0
0
0
0
0
0
0
0
0
0
0
0
0
0
0
0
0
0
0
0
0
0
0
0
0
0
0
0
0
0
0
0
0
0
0
0
0
0
0
0
0
0
0
0
0
0
0
0
0
0
0
0
0
0
0
0
0
0
0
0
0
0
0
0
0
0
0
0
1.44169975e-18
1.447184805e-18
1.457697308e-18
1.472776303e-18
1.491978697e-18
1.514901346e-18
1.541177671e-18
1.570491802e-18
1.602564633e-18
1.637159409e-18
1.674067745e-18
1.713120677e-18
1.754175563e-18
1.797113707e-18
1.841838808e-18
1.888275424e-18
1.936360327e-18
1.986054151e-18
2.03732877e-18
2.090164754e-18
2.144556623e-18
2.200500976e-18
2.258004084e-18
2.317077202e-18
2.377740345e-18
2.440012302e-18
2.503908949e-18
2.569474175e-18
2.63676311e-18
2.705830604e-18
2.776731708e-18
2.849522947e-18
2.924263449e-18
3.001013667e-18
3.079843019e-18
3.16081953e-18
3.244006134e-18
3.329469676e-18
3.417292414e-18
3.507561807e-18
3.600365935e-18
3.695796161e-18
3.79394e-18
3.894890848e-18
3.998733908e-18
4.105548957e-18
4.21539917e-18
4.328317091e-18
4.444276679e-18
4.56315625e-18
4.735999956e-18
4.943821455e-18
5.158984937e-18
5.381961996e-18
5.613217788e-18
5.853175157e-18
6.102233601e-18
6.360801089e-18
6.62927698e-18
6.908066105e-18
7.197588267e-18
7.498290421e-18
7.810664926e-18
8.135204648e-18
8.472413998e-18
8.822762855e-18
9.186639886e-18
9.564901169e-18
9.958209293e-18
1.036723757e-17
1.079264894e-17
1.12350473e-17
1.169487663e-17
1.217326504e-17
1.267114757e-17
1.318940448e-17
1.372902678e-17
1.429092784e-17
1.487612334e-17
1.548573733e-17
1.612097765e-17
1.678322413e-17
1.74737219e-17
1.819381932e-17
1.894486488e-17
1.972842114e-17
2.054602159e-17
2.13993438e-17
2.285215845e-17
2.443425613e-17
2.609554771e-17
2.784067133e-17
2.967432646e-17
3.160133421e-17
3.362707134e-17
3.575687139e-17
3.799668387e-17
4.035245139e-17
4.594599612e-17
5.214602073e-17
5.889352772e-17
6.622702929e-17
7.418783896e-17
8.281801379e-17
9.21602815e-17
1.022600017e-16
1.131676494e-16
1.249350064e-16
1.385843404e-16
1.579262633e-16
1.790909087e-16
2.021639743e-16
2.272325753e-16
2.543422331e-16
2.834554051e-16
3.144902592e-16
3.474793923e-16
3.815816616e-16
4.190887483e-16
4.497798497e-16
4.906535251e-16
5.198028389e-16
5.667444271e-16
5.959949689e-16
6.516445464e-16
6.821953208e-16
7.741257997e-16
8.622445921e-16
1.10721215e-15
1.220709375e-15
1.548662807e-15
1.679788222e-15
2.10398156e-15
2.258090413e-15
2.824755473e-15
3.037443993e-15
3.966212687e-15
4.46094644e-15
6.106101313e-15
7.697353079e-15
1.319746622e-14
1.714904651e-14
2.685469378e-14
3.419216293e-14
6.514656717e-14
9.034826815e-14
1.622082082e-13
2.392405988e-13
5.052890541e-13
7.975149887e-13
1.875279559e-12
3.348596295e-12
8.692570743e-12
1.698820786e-11
5.016446297e-11
1.137842604e-10
3.941497688e-10
1.046922364e-09
2.638050085e-09
6.898578769e-09
2.381003756e-08
5.715028875e-08
3.934896611e-08
1.198636108e-08
3.29858477e-09
9.421852006e-10
2.66315357e-10
6.869522133e-11
1.583415403e-11
2.750045594e-12
4.223663087e-13
4.936158467e-14
3.995049236e-15
4.303215901e-16
3.333063838e-17
1.127829448e-18
1.852579609e-19
5.054301449e-21
1.490378099e-21
3.104874969e-22
2.864347698e-23
1.531174596e-23
7.881622646e-24
3.381539561e-24
9.839319475e-25
1.683863013e-25
1.252560946e-25
9.280619492e-26
6.785056692e-26
4.858410195e-26
3.469238253e-26
2.843049851e-26
2.330337195e-26
1.908987521e-26
1.557346031e-26
1.263979618e-26
1.022326277e-26
8.27439755e-27
6.721628685e-27
5.488259592e-27
4.506499295e-27
3.721359914e-27
3.089873215e-27
2.578936671e-27
2.163118685e-27
1.82282396e-27
1.542868543e-27
1.311408389e-27
1.11914253e-27
9.587195999e-28
8.242938121e-28
7.111902667e-28
6.156511087e-28
5.346410375e-28
4.656973239e-28
4.068133422e-28
3.563475363e-28
3.129518741e-28
2.755152842e-28
2.431187533e-28
2.149994959e-28
1.90522259e-28
1.691562471e-28
1.504565005e-28
1.340488165e-28
1.196175001e-28
1.068953803e-28
9.565565143e-29
8.570518406e-29
7.687902781e-29
6.903587927e-29
6.20543362e-29
5.58297931e-29
5.027186269e-29
4.530222635e-29
4.085284007e-29
3.686443105e-29
3.328523563e-29
3.006993664e-29
2.717876657e-29
2.457674833e-29
2.223305119e-29
2.012044245e-29
1.821481994e-29
1.64948119e-29
1.494143394e-29
1.353779393e-29
1.226883764e-29
1.112112876e-29
1.008265828e-29
9.142678879e-30
8.291560647e-30
7.520665091e-30
6.822234881e-30
6.189297143e-30
5.615578403e-30
5.095429721e-30
4.623760506e-30
4.195980045e-30
3.807945681e-30
3.45591678e-30
3.136513832e-30
2.846682007e-30
2.583658631e-30
2.3449442e-30
2.12827638e-30
1.931606777e-30
1.753080077e-30
1.591015347e-30
1.44388922e-30
1.310320776e-30
1.189057942e-30
1.07896523e-30
9.790126962e-31
8.882659584e-31
8.058772043e-31
7.310770743e-31
6.63167304e-31
6.015140893e-31
5.455420739e-31
4.947289151e-31
4.486003718e-31
4.067258265e-31
3.687142719e-31
3.342106267e-31
3.028924413e-31
2.744668748e-31
2.486679666e-31
2.252541772e-31
2.040061244e-31
1.847245635e-31
1.672285263e-31
1.513536469e-31
1.369506425e-31
1.238839311e-31
1.12030361e-31
1.012780882e-31
9.152553465e-32
8.268044666e-32
7.465904131e-32
6.738522561e-32
6.078989974e-32
5.481031902e-32
4.938950375e-32
4.447570883e-32
4.002195722e-32
3.598559176e-32
3.232788143e-32
2.901366878e-32
2.60110312e-32
2.329098828e-32
2.082724286e-32
1.85959116e-32
1.65753313e-32
1.474582763e-32
1.308955401e-32
1.159031483e-32
1.023341295e-32
9.005514433e-33
7.894517637e-33
6.889444984e-33
5.980346286e-33
5.158189469e-33
4.414776033e-33
3.742687045e-33
3.135183271e-33
2.586156022e-33
2.090070506e-33
1.641906557e-33
1.237113866e-33
8.715666524e-34
5.415313519e-34
2.43620061e-34
0
0
0
0
0
0
0
0
0
0
0
0
0
0
0
0
0
0
0
0
0
0
0
0
0
0
0
0
0
0
0
0
0
0
0
0
0
0
0
0
0
0
0
0
0
0
0
0
0
0
0
0
0
0
0
0
0
0
0
0
0
0
0
0
0
0
0
0
0
0
0
0
0
0
0
0
0
0
0
0
0
0
0
0
0
0
0
0
0
0
0
0
0
0
0
0
0
0
0
0
0
0
0
0
0
0
0
0
0
0
0
0
0
0
0
0
0
0
0
0
0
0
0
0
0
0
0
0
0
0
0
0
0
0
0
0
0
0
0
0
0
0
0
0
0
0
0
0
0
0
0
0
0
0
0
0
0
0
0
0
0
0
0
0
0
0
0
0
0
0
0
0
0
0
0
0
0
0
0
0
0
0
0
0
0
0
0
0
0
0
0
0
0
0
0
0
0
0
0
0
0
0
0
0
0
0
0
0
0
0
0
0
0
0
0
0
0
0
0
0
0
0
0
0
0
0
0
0
0
0
0
0
0
0
0
0
0
0
0
0
0
0
0
0
0
0
0
0
0
0
0
0
0
0
0
0
0
0
0
0
0
0
0
0
0
0
0
4.812960278e-17
4.828237509e-17
4.85730465e-17
4.898808041e-17
4.951479574e-17
5.014162354e-17
5.085818189e-17
5.165532913e-17
5.252506339e-17
5.346047836e-17
5.445563335e-17
5.550555742e-17
5.660605874e-17
5.775367874e-17
5.894553805e-17
6.017936338e-17
6.145330465e-17
6.276605921e-17
6.411671701e-17
6.550463777e-17
6.692947686e-17
6.839103341e-17
6.988933602e-17
7.142459034e-17
7.299716926e-17
7.460758155e-17
7.66276678e-17
7.89798701e-17
8.139646221e-17
8.387952834e-17
8.643119617e-17
8.905365386e-17
9.174922873e-17
9.452040805e-17
9.736983733e-17
1.003002141e-16
1.033141502e-16
1.06414466e-16
1.09604465e-16
1.128875723e-16
1.162673184e-16
1.197473306e-16
1.233311916e-16
1.270226425e-16
1.308253807e-16
1.34742988e-16
1.38778872e-16
1.429357651e-16
1.472152616e-16
1.516162902e-16
1.561305365e-16
1.607665582e-16
1.655382644e-16
1.704543611e-16
1.755253017e-16
1.807592771e-16
1.861637587e-16
1.917460527e-16
1.975133415e-16
2.034728845e-16
2.096316188e-16
2.15997766e-16
2.225799426e-16
2.29387312e-16
2.364293077e-16
2.437154814e-16
2.531524562e-16
2.6419778e-16
2.756726939e-16
2.875962553e-16
2.999884296e-16
3.148231025e-16
3.480493348e-16
3.83409603e-16
4.210147719e-16
4.60981069e-16
5.034319942e-16
5.484964291e-16
5.963105167e-16
6.470221227e-16
7.008033236e-16
7.578766567e-16
8.183896319e-16
8.825058965e-16
9.504128027e-16
1.022319703e-15
1.098447972e-15
1.179032853e-15
1.264317677e-15
1.371600349e-15
1.4923419e-15
1.621418127e-15
1.759356789e-15
1.906716207e-15
2.064079058e-15
2.232073747e-15
2.411400842e-15
2.602723553e-15
2.806822696e-15
3.024398839e-15
3.256171624e-15
3.50312512e-15
3.766262161e-15
4.046595278e-15
4.380928114e-15
4.782872653e-15
5.213356671e-15
5.673938669e-15
6.166594996e-15
6.69323527e-15
7.3687502e-15
8.725419847e-15
1.02125884e-14
1.183617266e-14
1.360079153e-14
1.550969093e-14
1.774246653e-14
2.024661445e-14
2.292700628e-14
2.573016348e-14
2.875308161e-14
3.191122547e-14
3.538677957e-14
3.902581037e-14
4.310403275e-14
4.737475968e-14
5.222902335e-14
6.078716571e-14
7.341227424e-14
8.755881017e-14
1.046402514e-13
1.230069642e-13
1.45125704e-13
1.6916389e-13
1.990551035e-13
2.328472946e-13
3.006961e-13
3.969074589e-13
5.297187185e-13
6.894020258e-13
9.002210361e-13
1.284405008e-12
1.857271063e-12
2.598401792e-12
3.877759644e-12
5.814390739e-12
8.843288394e-12
1.421651925e-11
2.325808494e-11
3.894542198e-11
6.997486835e-11
1.273019456e-10
2.47837973e-10
4.973370405e-10
1.069018722e-09
2.343044632e-09
5.482467574e-09
1.250123314e-08
2.807953967e-08
6.13867061e-08
1.229592079e-07
1.622549163e-07
1.097890841e-07
5.009110748e-08
2.007773266e-08
7.731795815e-09
2.873407997e-09
9.896647201e-10
3.16426282e-10
8.900817034e-11
1.914362774e-11
3.786057574e-12
5.586717906e-13
6.228885792e-14
5.784682177e-15
5.130488854e-16
3.767302704e-17
1.817540578e-18
1.885001041e-19
1.824474967e-20
2.63607041e-21
3.129489691e-22
1.401932172e-22
2.91936298e-23
5.638501081e-24
3.52636343e-24
2.066174795e-24
1.183771975e-24
5.186627749e-25
4.84175981e-26
3.928873395e-26
3.190094179e-26
2.593722173e-26
2.110373837e-26
1.717062057e-26
1.396949473e-26
1.137560016e-26
9.28916505e-27
7.616946022e-27
6.275881531e-27
5.196839078e-27
4.324615341e-27
3.615964891e-27
3.037229487e-27
2.562210329e-27
2.170443578e-27
1.8458592e-27
1.575763483e-27
1.350072936e-27
1.160733574e-27
1.001279437e-27
8.664940118e-28
7.521505069e-28
6.548097056e-28
5.716621711e-28
5.004043428e-28
4.391406762e-28
3.863060529e-28
3.406038415e-28
3.009563687e-28
2.66465087e-28
2.363784648e-28
2.100659984e-28
1.869971077e-28
1.667239586e-28
1.488674315e-28
1.331056301e-28
1.191644448e-28
1.068097816e-28
9.584114986e-29
8.608635336e-29
7.739708538e-29
6.964526421e-29
6.27199797e-29
5.652493729e-29
5.097631992e-29
4.600098908e-29
4.153497043e-29
3.752217515e-29
3.391331759e-29
3.066499653e-29
2.773891401e-29
2.510120803e-29
2.27218828e-29
2.057431981e-29
1.863485764e-29
1.688242992e-29
1.529825238e-29
1.386555219e-29
1.256933239e-29
1.139616744e-29
1.033402453e-29
9.372107417e-30
8.500719588e-30
7.711144077e-30
6.995537646e-30
6.346837595e-30
5.758679213e-30
5.225322911e-30
4.741589479e-30
4.302802633e-30
3.904737873e-30
3.543576943e-30
3.215867139e-30
2.918485041e-30
2.648603988e-30
2.403664976e-30
2.181350565e-30
1.979561452e-30
1.796395416e-30
1.630128402e-30
1.479197456e-30
1.342185412e-30
1.217807028e-30
1.104896517e-30
1.00239628e-30
9.093467352e-31
8.248771233e-31
7.481971953e-31
6.785896964e-31
6.154035647e-31
5.580477806e-31
5.059857812e-31
4.587304226e-31
4.158393996e-31
3.769110978e-31
3.415808411e-31
3.095174753e-31
2.804202888e-31
2.540161971e-31
2.300572097e-31
2.083181143e-31
1.885943892e-31
1.707002965e-31
1.544671635e-31
1.397418043e-31
1.263851127e-31
1.142707591e-31
1.032840258e-31
9.332073643e-32
8.428629133e-32
7.609478874e-32
6.866823117e-32
6.193579379e-32
5.58331723e-32
5.030198205e-32
4.528921751e-32
4.074675218e-32
3.663090378e-32
3.290200907e-32
2.952406909e-32
2.646441396e-32
2.369337883e-32
2.118405156e-32
1.891200195e-32
1.68550617e-32
1.499311593e-32
1.330791697e-32
1.178289903e-32
1.040304051e-32
9.154710758e-33
8.025549319e-33
7.004343491e-33
6.080919366e-33
5.246057803e-33
4.491393863e-33
3.809343837e-33
3.193034663e-33
2.636237827e-33
2.133299106e-33
1.67909758e-33
1.268998537e-33
8.987931997e-34
5.646729753e-34
2.631869544e-34
0
0
0
0
0
0
0
0
0
0
0
0
0
0
0
0
0
0
0
0
0
0
0
0
0
0
0
0
0
0
0
0
0
0
0
0
0
0
0
0
0
0
0
0
0
0
0
0
0
0
0
0
0
0
0
0
0
0
0
0
0
0
0
0
0
0
0
0
0
0
0
0
0
0
0
0
0
0
0
0
0
0
0
0
0
0
0
0
0
0
0
0
0
0
0
0
0
0
0
0
0
0
0
0
0
0
0
0
0
0
0
0
0
0
0
0
0
0
0
0
0
0
0
0
0
0
0
0
0
0
0
0
0
0
0
0
0
0
0
0
0
0
0
0
0
0
0
0
0
0
0
0
0
0
0
0
0
0
0
0
0
0
0
0
0
0
0
0
0
0
0
0
0
0
0
0
0
0
0
0
0
0
0
0
0
0
0
0
0
0
0
0
0
0
0
0
0
0
0
0
0
0
0
0
0
0
0
0
0
0
0
0
0
0
0
0
0
0
0
0
0
0
0
0
0
0
0
0
0
0
0
0
0
0
0
0
0
0
0
0
0
0
0
0
0
0
0
0
0
0
0
0
0
0
0
0
0
0
0
0
0
0
0
0
0
4.313298553e-16
4.326126533e-16
4.3504182e-16
4.384973141e-16
4.428703284e-16
4.48063038e-16
4.539883236e-16
4.60569512e-16
4.677396642e-16
4.754409173e-16
4.836237469e-16
4.922464671e-16
5.012741849e-16
5.10677952e-16
5.204337699e-16
5.305220723e-16
5.409272539e-16
5.516384462e-16
5.626482258e-16
5.739512879e-16
5.855444573e-16
5.97426111e-16
6.095958885e-16
6.220552592e-16
6.348077001e-16
6.478590495e-16
6.631562377e-16
6.802879018e-16
6.9785244e-16
7.158616047e-16
7.343286174e-16
7.53267724e-16
7.726941909e-16
7.926243982e-16
8.130759906e-16
8.340685661e-16
8.556172917e-16
8.777361503e-16
9.004496099e-16
9.237820463e-16
9.477569463e-16
9.723979956e-16
9.977288565e-16
1.02377385e-15
1.05055793e-15
1.078105733e-15
1.106441197e-15
1.135584977e-15
1.165555358e-15
1.196367789e-15
1.228039435e-15
1.260608674e-15
1.313395084e-15
1.418445934e-15
1.527951401e-15
1.642149725e-15
1.761271548e-15
1.885542302e-15
2.015189318e-15
2.150446852e-15
2.305034022e-15
2.469024423e-15
2.641288711e-15
2.822241302e-15
3.012301638e-15
3.211905055e-15
3.421487014e-15
3.641529121e-15
3.872549196e-15
4.115085548e-15
4.369716761e-15
4.637081189e-15
4.917894426e-15
5.212705549e-15
5.522162281e-15
5.846967436e-15
6.18786984e-15
6.545651313e-15
6.92111631e-15
7.315041089e-15
7.728364523e-15
8.215882291e-15
8.744841051e-15
9.303052112e-15
9.892076271e-15
1.051360453e-14
1.116943597e-14
1.186147722e-14
1.259174907e-14
1.336244763e-14
1.417581252e-14
1.503418218e-14
1.594047692e-14
1.68977584e-14
1.790872419e-14
1.899914868e-14
2.031538873e-14
2.171126357e-14
2.31915834e-14
2.476138155e-14
2.841759787e-14
3.251403068e-14
3.69512809e-14
4.175391139e-14
4.694346979e-14
5.254484874e-14
5.859455648e-14
6.572464433e-14
7.34570107e-14
8.183034442e-14
9.08839522e-14
1.00657796e-13
1.11186638e-13
1.225030685e-13
1.346368271e-13
1.476131308e-13
1.626841705e-13
1.790965544e-13
1.965320114e-13
2.246797566e-13
2.647272716e-13
3.0813785e-13
3.555725858e-13
4.071279634e-13
4.637754207e-13
5.276196915e-13
6.008466101e-13
6.815274226e-13
7.718632979e-13
8.71786419e-13
1.050345256e-12
1.273545098e-12
1.530320998e-12
1.843553221e-12
2.215566337e-12
2.655262692e-12
3.277533337e-12
4.301141379e-12
5.626893651e-12
7.258115286e-12
9.55829992e-12
1.336653154e-11
1.843850668e-11
2.57335082e-11
3.774532197e-11
5.42131541e-11
8.371341644e-11
1.29138717e-10
2.05925035e-10
3.40623223e-10
5.826828947e-10
1.024797409e-09
1.886584497e-09
3.575056302e-09
7.050084072e-09
1.417932021e-08
2.904757854e-08
5.904374582e-08
1.173111758e-07
2.210768117e-07
3.62059384e-07
4.256774321e-07
3.345231365e-07
1.973812326e-07
9.93152771e-08
4.602248739e-08
1.999522341e-08
8.32261422e-09
3.240371723e-09
1.17176298e-09
3.84013215e-10
1.074543824e-10
2.268361747e-11
4.50578839e-12
6.206080133e-13
5.787998777e-14
5.57725295e-15
4.237486428e-16
2.950897383e-17
5.208494244e-18
3.254379547e-19
2.798188272e-20
4.719169571e-21
9.970577863e-22
1.214651395e-22
6.365109157e-23
2.112632437e-23
2.777376187e-24
1.932120049e-24
1.281291089e-24
7.788039451e-25
3.906604024e-25
9.198586756e-26
2.132476269e-26
1.742975099e-26
1.428032968e-26
1.173681832e-26
9.685285605e-27
8.029191705e-27
6.688326732e-27
5.597973491e-27
4.707010822e-27
3.975346568e-27
3.37154867e-27
2.870910812e-27
2.453935762e-27
2.105150127e-27
1.812202416e-27
1.565183864e-27
1.356105077e-27
1.17849465e-27
1.027085077e-27
8.975725957e-28
7.864266933e-28
6.907401958e-28
6.081105675e-28
5.365452904e-28
4.743864982e-28
4.202501255e-28
3.729770174e-28
3.315932956e-28
2.952782143e-28
2.633379844e-28
2.351843511e-28
2.103170674e-28
1.883094855e-28
1.687966773e-28
1.514656235e-28
1.360470773e-28
1.223088123e-28
1.100499985e-28
9.909650057e-29
8.929694405e-29
8.051941603e-29
7.264868304e-29
6.558385203e-29
5.923638608e-29
5.352842351e-29
4.839134908e-29
4.376457647e-29
3.959450761e-29
3.58336422e-29
3.243981103e-29
2.937551789e-29
2.660737058e-29
2.410558905e-29
2.184357877e-29
1.979755954e-29
1.794624293e-29
1.627054925e-29
1.475336117e-29
1.337930673e-29
1.213456904e-29
1.100671845e-29
9.984564567e-30
9.058025367e-30
8.218011468e-30
7.456323053e-30
6.765558736e-30
6.139034187e-30
5.57070971e-30
5.055125585e-30
4.58734434e-30
4.162899011e-30
3.777746957e-30
3.428228299e-30
3.111028713e-30
2.823145969e-30
2.561859871e-30
2.324705174e-30
2.109447249e-30
1.914060064e-30
1.736706458e-30
1.575720215e-30
1.42958995e-30
1.296944546e-30
1.176539983e-30
1.06724743e-30
9.680424766e-31
8.779954015e-31
7.962623398e-31
7.220773092e-31
6.547449745e-31
5.936340996e-31
5.381716025e-31
4.878371902e-31
4.421584647e-31
4.007065047e-31
3.630918621e-31
3.28960912e-31
2.979925556e-31
2.698952288e-31
2.444041813e-31
2.212790039e-31
2.00301401e-31
1.812731481e-31
1.640142552e-31
1.483612834e-31
1.341658314e-31
1.212931509e-31
1.096208948e-31
9.903797353e-32
8.944352791e-32
8.074598594e-32
7.286221338e-32
6.571673392e-32
5.924103153e-32
5.337290424e-32
4.805589476e-32
4.323875031e-32
3.887494994e-32
3.492227897e-32
3.134241319e-32
2.81005791e-32
2.516522276e-32
2.25077001e-32
2.010203576e-32
1.792464794e-32
1.595415024e-32
1.417113524e-32
1.255800655e-32
1.109879502e-32
9.779015907e-33
8.585539956e-33
7.506455881e-33
6.530964875e-33
5.649273427e-33
4.852506833e-33
4.132615046e-33
3.482303167e-33
2.894959186e-33
2.364594301e-33
1.885777467e-33
1.453588929e-33
1.063571204e-33
7.116884323e-34
3.942793747e-34
1.080361236e-34
0
0
0
0
0
0
0
0
0
0
0
0
0
0
0
0
0
0
0
0
0
0
0
0
0
0
0
0
0
0
0
0
0
0
0
0
0
0
0
0
0
0
0
0
0
0
0
0
0
0
0
0
0
0
0
0
0
0
0
0
0
0
0
0
0
0
0
0
0
0
0
0
0
0
0
0
0
0
0
0
0
0
0
0
0
0
0
0
0
0
0
0
0
0
0
0
0
0
0
0
0
0
0
0
0
0
0
0
0
0
0
0
0
0
0
0
0
0
0
0
0
0
0
0
0
0
0
0
0
0
0
0
0
0
0
0
0
0
0
0
0
0
0
0
0
0
0
0
0
0
0
0
0
0
0
0
0
0
0
0
0
0
0
0
0
0
0
0
0
0
0
0
0
0
0
0
0
0
0
0
0
0
0
0
0
0
0
0
0
0
0
0
0
0
0
0
0
0
0
0
0
0
0
0
0
0
0
0
0
0
0
0
0
0
0
0
0
0
0
0
0
0
0
0
0
0
0
0
0
0
0
0
0
0
0
0
0
0
0
0
0
0
0
0
0
0
0
0
0
0
0
0
0
0
0
0
0
0
0
0
0
0
1.853015567e-15
1.858326845e-15
1.868350545e-15
1.882566393e-15
1.900512835e-15
1.921780663e-15
1.946008902e-15
1.972881293e-15
2.002122633e-15
2.033495225e-15
2.0667958e-15
2.101854108e-15
2.13852832e-15
2.176700689e-15
2.216273547e-15
2.257165338e-15
2.299302111e-15
2.34264721e-15
2.387173612e-15
2.43286036e-15
2.47969408e-15
2.527667863e-15
2.576779453e-15
2.627028012e-15
2.678427826e-15
2.731009033e-15
2.784805542e-15
2.839843243e-15
2.896145006e-15
2.953741378e-15
3.012667839e-15
3.072963559e-15
3.134670869e-15
3.197835017e-15
3.262503789e-15
3.339892509e-15
3.420037328e-15
3.637775467e-15
3.899238475e-15
4.170710046e-15
4.452567094e-15
4.745194895e-15
5.048986708e-15
5.364349671e-15
5.691714344e-15
6.03157254e-15
6.384425231e-15
6.750530196e-15
7.130250186e-15
7.52398502e-15
7.932213995e-15
8.355611422e-15
8.795051632e-15
9.251450549e-15
9.725527139e-15
1.021810879e-14
1.073004884e-14
1.126217466e-14
1.181533763e-14
1.239042802e-14
1.298836431e-14
1.3634903e-14
1.434533257e-14
1.508711957e-14
1.586172227e-14
1.667073907e-14
1.751607686e-14
1.839918566e-14
1.932163071e-14
2.028523034e-14
2.12919628e-14
2.234395183e-14
2.34434111e-14
2.45925041e-14
2.579351219e-14
2.704887402e-14
2.836118032e-14
2.97331571e-14
3.116767222e-14
3.276353055e-14
3.454130907e-14
3.640695737e-14
3.836528311e-14
4.042127373e-14
4.257976163e-14
4.484645699e-14
4.722729235e-14
4.972846833e-14
5.235651061e-14
5.511830274e-14
5.802114532e-14
6.351711649e-14
7.146810008e-14
8.028643833e-14
8.975134262e-14
9.990242953e-14
1.107814074e-13
1.224369446e-13
1.349197034e-13
1.482840508e-13
1.625910788e-13
1.779022015e-13
1.945824901e-13
2.137955816e-13
2.344421361e-13
2.566155085e-13
2.804159204e-13
3.059519833e-13
3.333275602e-13
3.626584816e-13
3.940590679e-13
4.309379189e-13
4.713430004e-13
5.342018947e-13
6.233764486e-13
7.204255647e-13
8.257624718e-13
9.397274214e-13
1.065965536e-12
1.20984075e-12
1.366048796e-12
1.535710739e-12
1.720598542e-12
1.922253724e-12
2.143097727e-12
2.463663556e-12
2.954614376e-12
3.505754183e-12
4.126764782e-12
4.826299657e-12
5.618507753e-12
6.554598406e-12
7.687595417e-12
9.604784068e-12
1.189781853e-11
1.471741897e-11
1.832838281e-11
2.280850947e-11
3.033159313e-11
4.009530878e-11
5.265540185e-11
7.232564085e-11
1.004053509e-10
1.391710849e-10
2.032892229e-10
2.944337492e-10
4.436580515e-10
6.782274034e-10
1.063875611e-09
1.720151542e-09
2.852391301e-09
4.831595435e-09
8.432526619e-09
1.496801465e-08
2.711129051e-08
4.976359191e-08
9.183623087e-08
1.692213344e-07
3.078801651e-07
5.386514869e-07
8.42951442e-07
1.056865589e-06
1.013330184e-06
7.622612786e-07
4.750730628e-07
2.565533312e-07
1.243776616e-07
5.52034817e-08
2.376633558e-08
9.700171007e-09
3.780714105e-09
1.389798414e-09
4.660740734e-10
1.359983163e-10
3.166809782e-11
6.11689714e-12
8.70913266e-13
1.222180311e-13
1.409775296e-14
1.404774874e-15
1.127721542e-16
6.660292073e-18
1.055573984e-18
1.146652173e-19
4.634684463e-21
2.271643847e-21
5.155796062e-22
6.774473722e-23
3.737469879e-23
1.422660469e-23
1.682464928e-24
1.212506348e-24
8.399475711e-25
5.439087956e-25
3.081205396e-25
1.200705607e-25
1.242860224e-26
1.037747957e-26
8.707300099e-27
7.341242074e-27
6.218098931e-27
5.289843582e-27
4.518783394e-27
3.875183096e-27
3.335464386e-27
2.880870154e-27
2.496384388e-27
2.169902701e-27
1.891626091e-27
1.653580395e-27
1.449251901e-27
1.273285832e-27
1.121267967e-27
9.895439002e-28
8.750764872e-28
7.753323458e-28
6.88190149e-28
6.118682629e-28
5.448649448e-28
4.859103587e-28
4.339272707e-28
3.879989912e-28
3.4734317e-28
3.112900467e-28
2.792646102e-28
2.507718114e-28
2.253842599e-28
2.02732011e-28
1.824939956e-28
1.643908693e-28
1.481790098e-28
1.336454421e-28
1.206035654e-28
1.088895334e-28
9.835917428e-29
8.888538454e-29
8.035589291e-29
7.267134936e-29
6.574368712e-29
5.94947144e-29
5.385490002e-29
4.8762326e-29
4.416177537e-29
4.000394499e-29
3.624475799e-29
3.284476512e-29
2.976862127e-29
2.698462634e-29
2.446432391e-29
2.218214559e-29
2.011510036e-29
1.824249878e-29
1.654570948e-29
1.500794347e-29
1.361406278e-29
1.235041019e-29
1.12046584e-29
1.016567448e-29
9.223400056e-30
8.368743644e-30
7.593484501e-30
6.890186591e-30
6.252121467e-30
5.67319899e-30
5.147905323e-30
4.671247014e-30
4.238700824e-30
3.846168526e-30
3.489936223e-30
3.16663765e-30
2.873221159e-30
2.60691977e-30
2.365224382e-30
2.145859336e-30
1.946760483e-30
1.766055307e-30
1.602044961e-30
1.45318803e-30
1.318085787e-30
1.195468932e-30
1.084185502e-30
9.831899785e-31
8.915333903e-31
8.08354359e-31
7.328709741e-31
6.643734459e-31
6.022174174e-31
5.458179244e-31
4.946439071e-31
4.482132353e-31
4.060881871e-31
3.678713553e-31
3.33201943e-31
3.017523676e-31
2.73225223e-31
2.473504876e-31
2.238830112e-31
2.026002215e-31
1.833000478e-31
1.657990346e-31
1.499306339e-31
1.355436429e-31
1.225007943e-31
1.106774815e-31
9.996058852e-32
9.024743289e-32
8.144480838e-32
7.346811002e-32
6.624055216e-32
5.969243614e-32
5.376050666e-32
4.838735717e-32
4.352088849e-32
3.911382793e-32
3.512327564e-32
3.151030829e-32
2.823961118e-32
2.527913877e-32
2.259982422e-32
2.017529675e-32
1.798164005e-32
1.59971574e-32
1.420217082e-32
1.257883719e-32
1.111097291e-32
9.78390562e-33
8.584334044e-33
7.50019555e-33
6.520553221e-33
5.635498707e-33
4.836048298e-33
4.114063788e-33
3.462167986e-33
2.873675064e-33
2.342529491e-33
1.863247077e-33
1.430858801e-33
1.040863598e-33
6.891854592e-34
3.721388685e-34
8.638265489e-35
0
0
0
0
0
0
0
0
0
0
0
0
0
0
0
0
0
0
0
0
0
0
0
0
0
0
0
0
0
0
0
0
0
0
0
0
0
0
0
0
0
0
0
0
0
0
0
0
0
0
0
0
0
0
0
0
0
0
0
0
0
0
0
0
0
0
0
0
0
0
0
0
0
0
0
0
0
0
0
0
0
0
0
0
0
0
0
0
0
0
0
0
0
0
0
0
0
0
0
0
0
0
0
0
0
0
0
0
0
0
0
0
0
0
0
0
0
0
0
0
0
0
0
0
0
0
0
0
0
0
0
0
0
0
0
0
0
0
0
0
0
0
0
0
0
0
0
0
0
0
0
0
0
0
0
0
0
0
0
0
0
0
0
0
0
0
0
0
0
0
0
0
0
0
0
0
0
0
0
0
0
0
0
0
0
0
0