/*--------------------------------*- C++ -*----------------------------------*\
| =========                 |                                                 |
| \\      /  F ield         | OpenFOAM: The Open Source CFD Toolbox           |
|  \\    /   O peration     | Version:  v2006                                 |
|   \\  /    A nd           | Website:  www.openfoam.com                      |
|    \\/     M anipulation  |                                                 |
\*---------------------------------------------------------------------------*/
FoamFile
{
    version     2.0;
    format      ascii;
    class       volScalarField;
    location    "0.1";
    object      CH2(S);
}
// * * * * * * * * * * * * * * * * * * * * * * * * * * * * * * * * * * * * * //

dimensions      [0 0 0 0 0 0 0];


internalField   nonuniform List<scalar> 
72000
(
8.429333788e-25
8.434547437e-25
8.444714635e-25
8.459406699e-25
8.478153636e-25
8.500491315e-25
8.525972717e-25
8.554198383e-25
8.584804653e-25
8.61747772e-25
8.651934722e-25
8.687942249e-25
8.725300138e-25
8.763836534e-25
8.803410924e-25
8.843906365e-25
8.885223733e-25
8.927290386e-25
8.970046484e-25
9.013442955e-25
9.057449357e-25
9.10204781e-25
9.147213561e-25
9.192932914e-25
9.23920084e-25
9.28600666e-25
9.333345184e-25
9.381231553e-25
9.429684421e-25
9.478727491e-25
9.52838187e-25
9.578668144e-25
9.629605446e-25
9.681208622e-25
9.733502478e-25
9.786512471e-25
9.840262302e-25
9.894775563e-25
9.950084732e-25
1.00062179e-24
1.006320216e-24
1.012106707e-24
1.017983863e-24
1.023954954e-24
1.030022764e-24
1.03619032e-24
1.042460498e-24
1.048836457e-24
1.05532047e-24
1.061914379e-24
1.068638459e-24
1.075488744e-24
1.08246083e-24
1.089559509e-24
1.096789546e-24
1.104154974e-24
1.111659358e-24
1.119307083e-24
1.127101779e-24
1.135046861e-24
1.143146393e-24
1.151404444e-24
1.159826693e-24
1.168417648e-24
1.177182014e-24
1.187835942e-24
1.213779648e-24
1.240269982e-24
1.267329463e-24
1.294977296e-24
1.323230254e-24
1.352107879e-24
1.3816271e-24
1.41180666e-24
1.442666397e-24
1.474223369e-24
1.506504006e-24
1.539522905e-24
1.573300679e-24
1.607858039e-24
1.643212618e-24
1.679393576e-24
1.716425628e-24
1.754339507e-24
1.793163595e-24
1.8329288e-24
1.873660431e-24
1.915382622e-24
1.958079067e-24
2.001807765e-24
2.046608111e-24
2.092520669e-24
2.139581556e-24
2.187817642e-24
2.237269856e-24
2.287966556e-24
2.339946311e-24
2.393244289e-24
2.447889591e-24
2.503930329e-24
2.561398136e-24
2.620324048e-24
2.680734813e-24
2.742649119e-24
2.806085126e-24
2.871054071e-24
2.937568886e-24
3.005621127e-24
3.075172487e-24
3.146122176e-24
3.21846187e-24
3.292068213e-24
3.366752913e-24
3.442274697e-24
3.559146764e-24
3.754624474e-24
3.894123275e-24
4.313793208e-24
3.67946987e-24
5.372157268e-24
3.857774861e-24
6.543883746e-24
3.996536377e-24
7.855662558e-24
4.118884651e-24
9.304231917e-24
4.232375395e-24
1.094636456e-23
4.349209639e-24
1.286700223e-23
4.458709986e-24
1.515388823e-23
4.564886002e-24
1.809745105e-23
4.660783434e-24
2.36515416e-23
4.972207521e-24
2.804599753e-23
5.563889391e-24
3.384121662e-23
6.436821769e-24
4.130655362e-23
8.267065211e-24
6.492695405e-23
1.199018724e-23
1.020843661e-22
1.663861624e-23
1.532381002e-22
2.629019884e-23
3.351661072e-22
4.418364463e-23
7.772294552e-22
9.496080199e-23
2.623185994e-21
2.647509895e-22
1.072753689e-20
1.051878323e-21
2.283361197e-21
4.710216267e-21
2.992515474e-18
2.410808373e-19
4.906900935e-11
1.673104802e-10
3.413687e-11
5.645857706e-12
1.079593062e-12
2.014295133e-13
3.773862167e-14
5.66837977e-15
6.997781262e-16
8.636141062e-17
4.551190358e-18
5.61910188e-19
2.938980827e-20
1.413652484e-21
2.394513317e-22
4.044638539e-23
4.970578272e-24
7.349909333e-25
3.065423056e-25
1.464335613e-25
6.42840735e-26
3.779111645e-26
1.916170094e-26
1.248632311e-26
8.501690894e-27
5.540913438e-27
3.643104318e-27
2.807525861e-27
2.152117393e-27
1.639369309e-27
1.238607036e-27
9.112454205e-28
6.422385042e-28
4.914240752e-28
4.106392619e-28
3.336420436e-28
2.700188556e-28
2.193447364e-28
1.79336154e-28
1.476941679e-28
1.22519023e-28
1.023369113e-28
8.602898918e-29
7.274963671e-29
6.185748526e-29
5.286259127e-29
4.538748345e-29
3.913879799e-29
3.388660963e-29
2.944928033e-29
2.568225909e-29
2.246972759e-29
1.971830231e-29
1.73522454e-29
1.530979162e-29
1.35403083e-29
1.200208393e-29
1.066059428e-29
9.487135039e-30
8.457736929e-30
7.552300636e-30
6.753903548e-30
6.048241629e-30
5.423178121e-30
4.868377059e-30
4.375004495e-30
3.935483981e-30
3.543295709e-30
3.192810921e-30
2.879154893e-30
2.598093188e-30
2.345936896e-30
2.119463433e-30
1.915850121e-30
1.732618313e-30
1.567586222e-30
1.418828993e-30
1.284644771e-30
1.163525806e-30
1.054133744e-30
9.5527846e-31
8.658998472e-31
7.850521204e-31
7.118902424e-31
6.456581536e-31
5.85678538e-31
5.313439019e-31
4.821087753e-31
4.374828817e-31
3.970251371e-31
3.603383697e-31
3.27064661e-31
2.968812274e-31
2.694967735e-31
2.446482552e-31
2.220980039e-31
2.016311645e-31
1.830534111e-31
1.661889084e-31
1.508784867e-31
1.369780097e-31
1.243569097e-31
1.128968734e-31
1.024906627e-31
9.304105179e-32
8.44598728e-32
7.66671542e-32
6.959034567e-32
6.316361733e-32
5.732722805e-32
5.202695489e-32
4.721357664e-32
4.284240795e-32
3.887287674e-32
3.526814189e-32
3.199474824e-32
2.902231271e-32
2.632324048e-32
2.387246794e-32
2.164722904e-32
1.962684449e-32
1.7792529e-32
1.61272182e-32
1.461540987e-32
1.324302163e-32
1.199725968e-32
1.086650128e-32
9.84018786e-33
8.908727084e-33
8.063404704e-33
7.296303908e-33
6.600233038e-33
5.968658856e-33
5.395646503e-33
4.875804562e-33
4.404235531e-33
3.976491006e-33
3.588530187e-33
3.23668285e-33
2.917615277e-33
2.628299628e-33
2.365986215e-33
2.128177882e-33
1.912606584e-33
1.717213099e-33
1.540127188e-33
1.379650913e-33
1.234242704e-33
1.102502786e-33
9.831602737e-34
8.750618318e-34
7.771601628e-34
6.885049378e-34
6.082332609e-34
5.355622614e-34
4.69781247e-34
4.102457515e-34
3.563706819e-34
3.076252095e-34
2.635277352e-34
2.236413243e-34
1.875700373e-34
1.54954071e-34
1.254676992e-34
9.881542992e-35
7.472900201e-35
5.296587372e-35
3.330536865e-35
1.554802801e-35
0
0
0
0
0
0
0
0
0
0
0
0
0
0
0
0
0
0
0
0
0
0
0
0
0
0
0
0
0
0
0
0
0
0
0
0
0
0
0
0
0
0
0
0
0
0
0
0
0
0
0
0
0
0
0
0
0
0
0
0
0
0
0
0
0
0
0
0
0
0
0
0
0
0
0
0
0
0
0
0
0
0
0
0
0
0
0
0
0
0
0
0
0
0
0
0
0
0
0
0
0
0
0
0
0
0
0
0
0
0
0
0
0
0
0
0
0
0
0
0
0
0
0
0
0
0
0
0
0
0
0
0
0
0
0
0
0
0
0
0
0
0
0
0
0
0
0
0
0
0
0
0
0
0
0
0
0
0
0
0
0
0
0
0
0
0
0
0
0
0
0
0
0
0
0
0
0
0
0
0
0
0
0
0
0
0
0
0
0
0
0
0
0
0
0
0
0
0
0
0
0
0
0
0
0
0
0
0
0
0
0
0
0
0
0
0
0
0
0
0
0
0
0
0
0
0
0
0
0
0
0
0
0
0
0
0
0
0
0
0
0
0
0
0
0
0
0
0
0
0
0
0
0
0
0
0
0
0
0
0
0
0
0
0
0
0
0
0
0
0
6.551663641e-22
6.578101033e-22
6.628790127e-22
6.70153094e-22
6.794208121e-22
6.904897268e-22
7.031848639e-22
7.173555357e-22
7.328685839e-22
7.496111201e-22
7.674837618e-22
7.864060345e-22
8.063100164e-22
8.271392679e-22
8.488480625e-22
8.714007346e-22
8.947674328e-22
9.189298351e-22
9.438750348e-22
9.695943289e-22
9.960858168e-22
1.023348576e-21
1.051386446e-21
1.080205649e-21
1.10981664e-21
1.140229237e-21
1.17145171e-21
1.203506261e-21
1.236420719e-21
1.270222737e-21
1.304940044e-21
1.340601093e-21
1.377235633e-21
1.414874082e-21
1.453551285e-21
1.493301498e-21
1.5341566e-21
1.576150459e-21
1.619324457e-21
1.663722504e-21
1.709388877e-21
1.756369564e-21
1.804708708e-21
1.854453455e-21
1.905646991e-21
1.958329966e-21
2.012535095e-21
2.068280289e-21
2.125555047e-21
2.184302422e-21
2.275908293e-21
2.38868954e-21
2.50561933e-21
2.626948611e-21
2.752929021e-21
2.883792881e-21
3.019762552e-21
3.161066723e-21
3.307930119e-21
3.460580938e-21
3.619256222e-21
3.784209613e-21
3.955720185e-21
4.13406766e-21
4.319538839e-21
4.512403453e-21
4.712886296e-21
4.921458126e-21
5.138496628e-21
5.36438375e-21
5.59949665e-21
5.844182939e-21
6.098707015e-21
6.363693548e-21
6.639668774e-21
6.927131117e-21
7.226641962e-21
7.538720079e-21
7.863941055e-21
8.202940307e-21
8.556399107e-21
8.925095331e-21
9.309737996e-21
9.711095815e-21
1.012993679e-20
1.056714858e-20
1.102360328e-20
1.15002552e-20
1.240508379e-20
1.339740675e-20
1.44406126e-20
1.553769199e-20
1.669166722e-20
1.79056441e-20
1.918309047e-20
2.052745061e-20
2.19425664e-20
2.343229924e-20
2.695252294e-20
3.087385129e-20
3.516127892e-20
3.984071283e-20
4.493995466e-20
5.048739598e-20
5.651193831e-20
6.304427061e-20
7.01184957e-20
7.776961217e-20
8.686350575e-20
1.006636988e-19
1.158508992e-19
1.324917459e-19
1.506526455e-19
1.703699484e-19
1.916197287e-19
2.143412715e-19
2.38545485e-19
2.636205814e-19
2.91184138e-19
3.137991405e-19
3.438192499e-19
3.653118572e-19
3.998249817e-19
4.21417629e-19
4.624251627e-19
4.850198087e-19
5.538069798e-19
6.209632113e-19
8.14009324e-19
9.055468176e-19
1.172735294e-18
1.280589859e-18
1.633145847e-18
1.762557476e-18
2.243077225e-18
2.427760819e-18
3.235690415e-18
3.677109038e-18
5.145177533e-18
6.604433953e-18
1.212591829e-17
1.626814382e-17
2.648057086e-17
3.45559532e-17
7.164683847e-17
1.034807636e-16
1.989325467e-16
3.120472858e-16
7.225746091e-16
1.229615755e-15
3.271040921e-15
6.452592258e-15
1.946837063e-14
4.348524419e-14
1.550402828e-13
4.198754677e-13
1.846470369e-12
6.106195573e-12
1.898143775e-11
6.196515446e-11
2.786603289e-10
8.278495027e-10
6.99959543e-10
2.648354243e-10
8.837738424e-11
2.959353071e-11
9.502547295e-12
2.70768932e-12
6.746374874e-13
1.231410841e-13
1.969021437e-14
2.343012567e-15
1.895534629e-16
2.104937133e-17
1.60713221e-18
5.32947158e-20
9.07056382e-21
2.673712216e-22
8.054159441e-23
1.696236487e-23
1.598994334e-24
8.597957945e-25
4.449292708e-25
1.922588846e-25
5.592880003e-26
9.189861607e-27
6.852417116e-27
5.092420315e-27
3.737500749e-27
2.690230575e-27
1.932699552e-27
1.583556873e-27
1.297712513e-27
1.062831963e-27
8.668329295e-28
7.033396457e-28
5.68692027e-28
4.601260984e-28
3.736456103e-28
3.049704961e-28
2.503189815e-28
2.066242918e-28
1.714904759e-28
1.430719989e-28
1.199511923e-28
1.010358681e-28
8.547981916e-29
7.262305519e-29
6.194736261e-29
5.304320921e-29
4.558498485e-29
3.931233992e-29
3.401603252e-29
2.95270854e-29
2.570842464e-29
2.244838722e-29
1.965564657e-29
1.725522486e-29
1.51853405e-29
1.339490581e-29
1.184153039e-29
1.048992233e-29
9.310602636e-30
8.278867878e-30
7.373950403e-30
6.57833611e-30
5.877208597e-30
5.257994907e-30
4.709993241e-30
4.224067004e-30
3.792392649e-30
3.408251313e-30
3.065856159e-30
2.760209013e-30
2.486980877e-30
2.242412236e-30
2.023229534e-30
1.826575086e-30
1.649948082e-30
1.49115481e-30
1.348266535e-30
1.219583777e-30
1.103605917e-30
9.990052812e-31
9.046049803e-31
8.193599122e-31
7.423404285e-31
6.727182562e-31
6.097543368e-31
5.52788283e-31
5.012292285e-31
4.545478575e-31
4.122694476e-31
3.739677835e-31
3.392598215e-31
3.078009974e-31
2.792810992e-31
2.534206188e-31
2.299675305e-31
2.086944361e-31
1.893960306e-31
1.718868507e-31
1.559992687e-31
1.415817039e-31
1.284970274e-31
1.166211331e-31
1.058416599e-31
9.605684566e-32
8.717449921e-32
7.911107658e-32
7.17908505e-32
6.514516335e-32
5.911175375e-32
5.363415033e-32
4.866112378e-32
4.414619314e-32
4.004718028e-32
3.632580616e-32
3.294732668e-32
2.988020284e-32
2.709580257e-32
2.456813119e-32
2.227358588e-32
2.019073543e-32
1.830011828e-32
1.658406172e-32
1.50265162e-32
1.361290568e-32
1.23299928e-32
1.116575471e-32
1.010927235e-32
9.150628434e-33
8.280815617e-33
7.491653266e-33
6.775711615e-33
6.12624219e-33
5.537116212e-33
5.002767521e-33
4.518140965e-33
4.078645599e-33
3.680111908e-33
3.318753598e-33
2.991132624e-33
2.694126862e-33
2.424901042e-33
2.180881156e-33
1.959729919e-33
1.759325186e-33
1.577740615e-33
1.41322713e-33
1.26419687e-33
1.129208985e-33
1.00695491e-33
8.962477024e-34
7.960094189e-34
7.052622467e-34
6.231188355e-34
5.487739384e-34
4.814969992e-34
4.206249868e-34
3.655564556e-34
3.157462374e-34
2.706994796e-34
2.299670122e-34
1.93142348e-34
1.598562615e-34
1.297740697e-34
1.025925269e-34
7.803658757e-35
5.585694858e-35
3.582756864e-35
1.774388562e-35
1.420284098e-36
0
0
0
0
0
0
0
0
0
0
0
0
0
0
0
0
0
0
0
0
0
0
0
0
0
0
0
0
0
0
0
0
0
0
0
0
0
0
0
0
0
0
0
0
0
0
0
0
0
0
0
0
0
0
0
0
0
0
0
0
0
0
0
0
0
0
0
0
0
0
0
0
0
0
0
0
0
0
0
0
0
0
0
0
0
0
0
0
0
0
0
0
0
0
0
0
0
0
0
0
0
0
0
0
0
0
0
0
0
0
0
0
0
0
0
0
0
0
0
0
0
0
0
0
0
0
0
0
0
0
0
0
0
0
0
0
0
0
0
0
0
0
0
0
0
0
0
0
0
0
0
0
0
0
0
0
0
0
0
0
0
0
0
0
0
0
0
0
0
0
0
0
0
0
0
0
0
0
0
0
0
0
0
0
0
0
0
0
0
0
0
0
0
0
0
0
0
0
0
0
0
0
0
0
0
0
0
0
0
0
0
0
0
0
0
0
0
0
0
0
0
0
0
0
0
0
0
0
0
0
0
0
0
0
0
0
0
0
0
0
0
0
0
0
0
0
0
0
0
0
0
0
0
0
0
0
0
0
0
0
0
0
0
0
0
0
0
3.179421184e-20
3.190153103e-20
3.21057906e-20
3.23975657e-20
3.276802217e-20
3.320909735e-20
3.371355353e-20
3.427501737e-20
3.4887909e-20
3.554741263e-20
3.624938524e-20
3.699036188e-20
3.776742087e-20
3.857815444e-20
3.942055966e-20
4.029306072e-20
4.11943769e-20
4.212361313e-20
4.308015116e-20
4.406356328e-20
4.507363291e-20
4.611024515e-20
4.717344973e-20
4.826342187e-20
4.938045338e-20
5.052493212e-20
5.2064035e-20
5.392089084e-20
5.583074524e-20
5.779535418e-20
5.981651018e-20
6.18960527e-20
6.403593238e-20
6.623822727e-20
6.850514072e-20
7.083893136e-20
7.324183651e-20
7.571626805e-20
7.826499221e-20
8.089086212e-20
8.359682879e-20
8.638593613e-20
8.926120065e-20
9.222578055e-20
9.528281027e-20
9.843535114e-20
1.016863678e-19
1.05038339e-19
1.084929118e-19
1.120497535e-19
1.157031412e-19
1.194598007e-19
1.233305065e-19
1.273222242e-19
1.314433018e-19
1.357004314e-19
1.400998021e-19
1.446475153e-19
1.493495902e-19
1.542121083e-19
1.592408289e-19
1.64442761e-19
1.698252002e-19
1.75395875e-19
1.811627452e-19
1.871338881e-19
1.955511709e-19
2.057721164e-19
2.164048227e-19
2.274677035e-19
2.389800804e-19
2.526486361e-19
2.823735873e-19
3.142308249e-19
3.483336195e-19
3.848008508e-19
4.237588276e-19
4.653394905e-19
5.096821632e-19
5.5693762e-19
6.072793775e-19
6.609274325e-19
7.180373845e-19
7.787803562e-19
8.433494807e-19
9.11959487e-19
9.848374559e-19
1.062225067e-18
1.144373396e-18
1.25574882e-18
1.384128705e-18
1.5221097e-18
1.670302069e-18
1.829354377e-18
1.999947991e-18
2.182814338e-18
2.378762705e-18
2.588582932e-18
2.8131865e-18
3.05340958e-18
3.310111969e-18
3.584431027e-18
3.877533902e-18
4.190606631e-18
4.587166673e-18
5.090355657e-18
5.631518122e-18
6.212753926e-18
6.836696442e-18
7.505894293e-18
8.361537664e-18
1.006704608e-17
1.195482979e-17
1.403341488e-17
1.630951124e-17
1.87877707e-17
2.185591431e-17
2.540452482e-17
2.923169035e-17
3.325450549e-17
3.761862265e-17
4.219654748e-17
4.72665504e-17
5.259453692e-17
5.860683897e-17
6.492327315e-17
7.21544118e-17
8.50344372e-17
1.042476812e-16
1.267061303e-16
1.547356912e-16
1.85246052e-16
2.227107455e-16
2.63890467e-16
3.161110843e-16
3.759146226e-16
4.986340153e-16
6.839218524e-16
9.53710336e-16
1.286043612e-15
1.735267885e-15
2.633551833e-15
4.018035249e-15
5.919798207e-15
9.451700109e-15
1.50955374e-14
2.47301522e-14
4.317937986e-14
7.686169504e-14
1.414167203e-13
2.836111159e-13
5.783597111e-13
1.284826077e-12
2.969064384e-12
7.454471164e-12
1.923427226e-11
5.379891505e-11
1.457947513e-10
3.882434422e-10
9.906851791e-10
2.260629021e-09
3.307099556e-09
2.562299064e-09
1.374608291e-09
6.471898225e-10
2.882241149e-10
1.213635133e-10
4.639571636e-11
1.611814903e-11
4.835934954e-12
1.086392607e-12
2.21669536e-13
3.322885731e-14
3.702550267e-15
3.401044314e-16
2.963772427e-17
2.106055582e-18
9.636657453e-20
1.005323066e-20
9.641627256e-22
1.423373692e-22
1.788774526e-23
8.072090508e-24
1.695185033e-24
3.296316707e-25
2.077161833e-25
1.228185954e-25
7.032347412e-26
3.072166466e-26
2.700794796e-27
2.191435363e-27
1.77923137e-27
1.446497292e-27
1.176836121e-27
9.57419568e-28
7.788511098e-28
6.341670619e-28
5.177974361e-28
4.245374677e-28
3.497515884e-28
2.895821467e-28
2.409490728e-28
2.014396681e-28
1.691762127e-28
1.426971923e-28
1.208610596e-28
1.027713969e-28
8.772014511e-29
7.514486119e-29
6.459632025e-29
5.571388556e-29
4.82066197e-29
4.183879521e-29
3.641861716e-29
3.178942028e-29
2.782275684e-29
2.441293728e-29
2.147270187e-29
1.892976541e-29
1.672405432e-29
1.480548468e-29
1.313217102e-29
1.166897678e-29
1.038633705e-29
9.259300499e-30
8.266746758e-30
7.390745494e-30
6.61603013e-30
5.929564497e-30
5.320185197e-30
4.77830561e-30
4.295670262e-30
3.86515051e-30
3.480574312e-30
3.136583741e-30
2.828515801e-30
2.552302156e-30
2.304384737e-30
2.081644481e-30
1.881341023e-30
1.701061513e-30
1.538677091e-30
1.392305724e-30
1.260280469e-30
1.141122247e-30
1.033516449e-30
9.362927769e-31
8.48407823e-31
7.689300076e-31
6.970264684e-31
6.319516842e-31
5.730375332e-31
5.196846071e-31
4.713545997e-31
4.275636231e-31
3.878763241e-31
3.519007028e-31
3.192835239e-31
2.897062662e-31
2.628815252e-31
2.385498195e-31
2.164767498e-31
1.964504685e-31
1.782794196e-31
1.61790324e-31
1.468263729e-31
1.332456117e-31
1.209194913e-31
1.097315673e-31
9.95763307e-32
9.035815804e-32
8.199036414e-32
7.43943519e-32
6.749884306e-32
6.123918597e-32
5.555673041e-32
5.039826315e-32
4.57154978e-32
4.146461349e-32
3.760583793e-32
3.410307005e-32
3.092353872e-32
2.803749296e-32
2.541792244e-32
2.304030337e-32
2.088236848e-32
1.892389885e-32
1.71465344e-32
1.553360312e-32
1.406996491e-32
1.274187111e-32
1.153683603e-32
1.044352122e-32
9.451629687e-33
8.551810605e-33
7.735571824e-33
6.995201785e-33
6.323697288e-33
5.714698916e-33
5.16243167e-33
4.661651478e-33
4.20759647e-33
3.79594297e-33
3.422764945e-33
3.084497833e-33
2.777905241e-33
2.500048965e-33
2.248261287e-33
2.020120829e-33
1.813429035e-33
1.626190456e-33
1.456594175e-33
1.302995881e-33
1.163903826e-33
1.037963856e-33
9.239471957e-34
8.207388894e-34
7.273274751e-34
6.427947416e-34
5.663080544e-34
4.971118884e-34
4.345211153e-34
3.779142306e-34
3.267273203e-34
2.804493742e-34
2.38616742e-34
2.008090738e-34
1.666454038e-34
1.357804876e-34
1.079009335e-34
8.272289915e-35
5.998947803e-35
3.946739397e-35
2.094554029e-35
4.232637049e-36
0
0
0
0
0
0
0
0
0
0
0
0
0
0
0
0
0
0
0
0
0
0
0
0
0
0
0
0
0
0
0
0
0
0
0
0
0
0
0
0
0
0
0
0
0
0
0
0
0
0
0
0
0
0
0
0
0
0
0
0
0
0
0
0
0
0
0
0
0
0
0
0
0
0
0
0
0
0
0
0
0
0
0
0
0
0
0
0
0
0
0
0
0
0
0
0
0
0
0
0
0
0
0
0
0
0
0
0
0
0
0
0
0
0
0
0
0
0
0
0
0
0
0
0
0
0
0
0
0
0
0
0
0
0
0
0
0
0
0
0
0
0
0
0
0
0
0
0
0
0
0
0
0
0
0
0
0
0
0
0
0
0
0
0
0
0
0
0
0
0
0
0
0
0
0
0
0
0
0
0
0
0
0
0
0
0
0
0
0
0
0
0
0
0
0
0
0
0
0
0
0
0
0
0
0
0
0
0
0
0
0
0
0
0
0
0
0
0
0
0
0
0
0
0
0
0
0
0
0
0
0
0
0
0
0
0
0
0
0
0
0
0
0
0
0
0
0
0
0
0
0
0
0
0
0
0
0
0
0
0
0
0
0
0
0
4.097932667e-19
4.111438258e-19
4.137022881e-19
4.173435659e-19
4.219542815e-19
4.274324536e-19
4.336872072e-19
4.406385315e-19
4.482165469e-19
4.563608378e-19
4.650196847e-19
4.741495514e-19
4.837140012e-19
4.936828407e-19
5.040310814e-19
5.147384175e-19
5.257887115e-19
5.371707998e-19
5.488771774e-19
5.60902601e-19
5.732441329e-19
5.85900518e-19
5.988718755e-19
6.121603112e-19
6.25770012e-19
6.397076663e-19
6.572874373e-19
6.778039649e-19
6.988645451e-19
7.204845718e-19
7.426812755e-19
7.654731313e-19
7.888798388e-19
8.129223982e-19
8.376231528e-19
8.630060691e-19
8.890927065e-19
9.159030007e-19
9.434677197e-19
9.718176263e-19
1.000982835e-18
1.030993938e-18
1.061881624e-18
1.09367752e-18
1.126414142e-18
1.160123741e-18
1.194838244e-18
1.230586368e-18
1.267394399e-18
1.305285576e-18
1.34428503e-18
1.384441122e-18
1.44859748e-18
1.574964064e-18
1.707216625e-18
1.845667834e-18
1.990623751e-18
2.142386509e-18
2.30126248e-18
2.467568223e-18
2.669953226e-18
2.88741419e-18
3.117384411e-18
3.36050188e-18
3.617416052e-18
3.888803488e-18
4.175351223e-18
4.477806142e-18
4.796966594e-18
5.133667615e-18
5.488804972e-18
5.863360684e-18
6.258427673e-18
6.674893733e-18
7.113782563e-18
7.576198852e-18
8.063317958e-18
8.57636787e-18
9.11661537e-18
9.685294075e-18
1.028387217e-17
1.10483025e-17
1.189568624e-17
1.279449715e-17
1.374754633e-17
1.475786996e-17
1.58286998e-17
1.696346794e-17
1.816581808e-17
1.9439707e-17
2.078914294e-17
2.221831852e-17
2.373233973e-17
2.533661492e-17
2.703611e-17
2.890391147e-17
3.13714202e-17
3.400005141e-17
3.679969278e-17
3.97807268e-17
4.643061104e-17
5.395692304e-17
6.219708761e-17
7.120324957e-17
8.102311794e-17
9.171061824e-17
1.033586968e-16
1.182075313e-16
1.344914315e-16
1.523041239e-16
1.717407985e-16
1.928975366e-16
2.158603662e-16
2.407091897e-16
2.675154313e-16
2.963378216e-16
3.322386834e-16
3.721523485e-16
4.147771153e-16
4.824470705e-16
5.78781382e-16
6.844047489e-16
8.010770089e-16
9.291225737e-16
1.071184094e-15
1.237626771e-15
1.43631889e-15
1.658028051e-15
1.90959558e-15
2.191072947e-15
2.695076901e-15
3.333617862e-15
4.080695775e-15
5.05904278e-15
6.249922826e-15
7.688596131e-15
9.761707043e-15
1.333101307e-14
1.822440144e-14
2.441475383e-14
3.374956815e-14
4.979232893e-14
7.246205508e-14
1.072000626e-13
1.679559986e-13
2.564268448e-13
4.286772672e-13
7.156749977e-13
1.242283048e-12
2.254090929e-12
4.263646789e-12
8.338616025e-12
1.726197733e-11
3.702716586e-11
8.35576217e-11
1.930838335e-10
4.562548697e-10
1.065204008e-09
2.401835726e-09
5.014809246e-09
8.844169613e-09
1.103944875e-08
9.377839611e-09
6.1293307e-09
3.467757583e-09
1.811767246e-09
8.834702362e-10
4.082573399e-10
1.74302678e-10
6.801993142e-11
2.36520752e-11
6.911057732e-12
1.496437695e-12
3.014151699e-13
4.143785508e-14
3.77885272e-15
3.555872201e-16
2.594944418e-17
1.75397247e-18
3.034131943e-19
1.801406207e-20
1.557849751e-21
2.656622617e-22
5.726125824e-23
7.321021351e-24
3.837480396e-24
1.272899931e-24
1.65776715e-25
1.153776602e-25
7.653640937e-26
4.651734654e-26
2.330185418e-26
5.412969246e-27
1.190583505e-27
9.731507607e-28
7.973375399e-28
6.553464375e-28
5.408172543e-28
4.483610335e-28
3.735006374e-28
3.126238408e-28
2.628773509e-28
2.220234555e-28
1.883077741e-28
1.603512908e-28
1.370657118e-28
1.175873171e-28
1.012266246e-28
8.743048921e-29
7.57528948e-29
6.58325546e-29
5.737538135e-29
5.01410841e-29
4.393253659e-29
3.858741004e-29
3.39715478e-29
2.997368384e-29
2.650123597e-29
2.347690905e-29
2.083596583e-29
1.852401437e-29
1.649521357e-29
1.47108118e-29
1.313795088e-29
1.174868754e-29
1.051918889e-29
9.42906914e-30
8.460841735e-30
7.599465041e-30
6.831965286e-30
6.147122447e-30
5.535207716e-30
4.987763759e-30
4.49742046e-30
4.057739522e-30
3.663083819e-30
3.308506551e-30
2.989657354e-30
2.702702477e-30
2.44425677e-30
2.211325544e-30
2.001254819e-30
1.811688491e-30
1.640531563e-30
1.485918357e-30
1.346185024e-30
1.219845714e-30
1.105571828e-30
1.002174002e-30
9.085862852e-31
8.238523729e-31
7.471134876e-31
6.77597737e-31
6.146107411e-31
5.575273624e-31
5.05784389e-31
4.588740705e-31
4.163383574e-31
3.777638086e-31
3.427770443e-31
3.110406989e-31
2.822498089e-31
2.561285866e-31
2.324275291e-31
2.109208383e-31
1.91404098e-31
1.736921957e-31
1.576174528e-31
1.430279447e-31
1.297859886e-31
1.17766783e-31
1.068571784e-31
9.695457447e-32
8.796591918e-32
7.980680849e-32
7.240067266e-32
6.567804053e-32
5.957587449e-32
5.403696876e-32
4.900940594e-32
4.444606355e-32
4.03041687e-32
3.654489389e-32
3.31329913e-32
3.003646075e-32
2.722625004e-32
2.467598157e-32
2.236170566e-32
2.026167687e-32
1.835615019e-32
1.662719691e-32
1.505853752e-32
1.363538981e-32
1.234433074e-32
1.117317205e-32
1.011084623e-32
9.147303909e-33
8.2734199e-33
7.480908634e-33
6.762246883e-33
6.110603839e-33
5.519777244e-33
4.984136063e-33
4.49856779e-33
4.058431023e-33
3.659511931e-33
3.297985287e-33
2.970378403e-33
2.673539306e-33
2.404606617e-33
2.160983141e-33
1.94031208e-33
1.740453873e-33
1.559467176e-33
1.395590387e-33
1.247224392e-33
1.112919023e-33
9.913577834e-34
8.813467187e-34
7.818023735e-34
6.917423749e-34
6.102752194e-34
5.365922752e-34
4.699605638e-34
4.097151175e-34
3.552530691e-34
3.060276811e-34
2.615434982e-34
2.213511167e-34
1.85043285e-34
1.522508751e-34
1.226395419e-34
9.590608957e-35
7.177586298e-35
5.000001479e-35
3.035322998e-35
1.263112325e-35
0
0
0
0
0
0
0
0
0
0
0
0
0
0
0
0
0
0
0
0
0
0
0
0
0
0
0
0
0
0
0
0
0
0
0
0
0
0
0
0
0
0
0
0
0
0
0
0
0
0
0
0
0
0
0
0
0
0
0
0
0
0
0
0
0
0
0
0
0
0
0
0
0
0
0
0
0
0
0
0
0
0
0
0
0
0
0
0
0
0
0
0
0
0
0
0
0
0
0
0
0
0
0
0
0
0
0
0
0
0
0
0
0
0
0
0
0
0
0
0
0
0
0
0
0
0
0
0
0
0
0
0
0
0
0
0
0
0
0
0
0
0
0
0
0
0
0
0
0
0
0
0
0
0
0
0
0
0
0
0
0
0
0
0
0
0
0
0
0
0
0
0
0
0
0
0
0
0
0
0
0
0
0
0
0
0
0
0
0
0
0
0
0
0
0
0
0
0
0
0
0
0
0
0
0
0
0
0
0
0
0
0
0
0
0
0
0
0
0
0
0
0
0
0
0
0
0
0
0
0
0
0
0
0
0
0
0
0
0
0
0
0
0
0
0
0
0
0
0
0
0
0
0
0
0
0
0
0
0
0
0
0
0
2.465088386e-18
2.473535535e-18
2.489484441e-18
2.512117681e-18
2.540710886e-18
2.574621805e-18
2.613283596e-18
2.656199358e-18
2.702936522e-18
2.753121434e-18
2.806434519e-18
2.862607824e-18
2.921418039e-18
2.982680121e-18
3.046241035e-18
3.111973645e-18
3.179763504e-18
3.24955409e-18
3.321304746e-18
3.39498509e-18
3.470577363e-18
3.548074673e-18
3.627478278e-18
3.708793018e-18
3.792046395e-18
3.877289994e-18
3.964583085e-18
4.053972213e-18
4.145498975e-18
4.239217723e-18
4.335190975e-18
4.433487317e-18
4.534180536e-18
4.637349216e-18
4.743076339e-18
4.883388395e-18
5.029726299e-18
5.393280126e-18
5.829095925e-18
6.284591589e-18
6.760531847e-18
7.257703639e-18
7.776914694e-18
8.319003537e-18
8.88485441e-18
9.475456883e-18
1.009182581e-17
1.07345996e-17
1.140458798e-17
1.210266666e-17
1.282984975e-17
1.358748431e-17
1.437726536e-17
1.520097618e-17
1.606008726e-17
1.695626558e-17
1.789123894e-17
1.886671087e-17
1.988444256e-17
2.094628014e-17
2.205414468e-17
2.329805214e-17
2.473076057e-17
2.623502502e-17
2.781425276e-17
2.947214465e-17
3.121298678e-17
3.304034428e-17
3.495802452e-17
3.697032876e-17
3.908190275e-17
4.12977178e-17
4.362297597e-17
4.606285625e-17
4.862281718e-17
5.130867358e-17
5.41265936e-17
5.708307024e-17
6.018494074e-17
6.381370447e-17
6.804504178e-17
7.250701528e-17
7.721236372e-17
8.217432963e-17
8.74060528e-17
9.292270795e-17
9.874016915e-17
1.048750994e-16
1.113450752e-16
1.181686519e-16
1.253654528e-16
1.386142281e-16
1.581408239e-16
1.807281223e-16
2.052833392e-16
2.319321898e-16
2.608076064e-16
2.920604857e-16
3.258493689e-16
3.623444602e-16
4.017352757e-16
4.442146618e-16
4.915312599e-16
5.495453473e-16
6.124855526e-16
6.806805846e-16
7.544821401e-16
8.34270396e-16
9.204118554e-16
1.013309076e-15
1.113365474e-15
1.239180235e-15
1.379773892e-15
1.593390361e-15
1.89515698e-15
2.227903578e-15
2.593260826e-15
2.992606433e-15
3.447643898e-15
3.990630505e-15
4.586656239e-15
5.240604201e-15
5.960161381e-15
6.752193507e-15
7.627380176e-15
8.909635954e-15
1.09531559e-14
1.328989446e-14
1.596825927e-14
1.903285004e-14
2.255527464e-14
2.689102788e-14
3.238986192e-14
4.167376742e-14
5.303059311e-14
6.761058555e-14
8.736320189e-14
1.124016646e-13
1.561413299e-13
2.159485472e-13
2.962972951e-13
4.293446037e-13
6.290981814e-13
9.207233818e-13
1.4364741e-12
2.219007868e-12
3.584822077e-12
5.90121336e-12
1.003279141e-11
1.770586565e-11
3.222584627e-11
6.009557379e-11
1.166659371e-10
2.30878062e-10
4.687611048e-10
9.679997649e-10
2.006835492e-09
4.131385028e-09
8.282632907e-09
1.565007601e-08
2.584141988e-08
3.36433763e-08
3.350557017e-08
2.643450377e-08
1.749468126e-08
1.016296119e-08
5.357143458e-09
2.607313646e-09
1.230431092e-09
5.485277028e-10
2.310719412e-10
9.041548878e-11
3.177467066e-11
9.566688486e-12
2.264700392e-12
4.389157076e-13
6.180028787e-14
8.53662493e-15
9.600437974e-16
9.266508461e-17
7.102188173e-18
3.963953098e-19
6.232364401e-20
6.542890208e-21
2.644506315e-22
1.298933016e-22
2.975658289e-23
4.101345105e-24
2.264046359e-24
8.61784805e-25
1.010504696e-25
7.288237388e-26
5.052255919e-26
3.272935575e-26
1.853468133e-26
7.19388408e-27
6.949870747e-28
5.803741077e-28
4.870363071e-28
4.106846398e-28
3.479017347e-28
2.960059896e-28
2.52892712e-28
2.169014009e-28
1.867152654e-28
1.612866788e-28
1.39776887e-28
1.215097033e-28
1.059376714e-28
9.261523961e-29
8.117842031e-29
7.132795323e-29
6.281711482e-29
5.544162635e-29
4.903169378e-29
4.344566948e-29
3.856493045e-29
3.428983706e-29
3.053639261e-29
2.723356296e-29
2.432108069e-29
2.174765408e-29
1.946950287e-29
1.744914289e-29
1.565438901e-29
1.405752869e-29
1.26346342e-29
1.136499174e-29
1.023062225e-29
9.215881613e-30
8.30712491e-30
7.492422666e-30
6.761321806e-30
6.104643166e-30
5.514309177e-30
4.983198055e-30
4.505018653e-30
4.07420352e-30
3.685817214e-30
3.335477472e-30
3.019287224e-30
2.733775941e-30
2.475848567e-30
2.242741425e-30
2.031983713e-30
1.841363973e-30
1.668900763e-30
1.512816938e-30
1.371517167e-30
1.243567997e-30
1.127680458e-30
1.022694594e-30
9.275658276e-31
8.413528652e-31
7.63206973e-31
6.923624334e-31
6.281280899e-31
5.698797496e-31
5.170534662e-31
4.691395028e-31
4.256769438e-31
3.862488701e-31
3.504780364e-31
3.180229858e-31
2.885745745e-31
2.618528358e-31
2.376041676e-31
2.155987975e-31
1.956285021e-31
1.775045496e-31
1.61055848e-31
1.461272662e-31
1.325781321e-31
1.202808622e-31
1.091197317e-31
9.898976041e-32
8.9795705e-32
8.145114901e-32
7.38776759e-32
6.70041257e-32
6.076591695e-32
5.510443606e-32
4.996648238e-32
4.530376606e-32
4.107245265e-32
3.7232751e-32
3.374853836e-32
3.058702177e-32
2.771843027e-32
2.5115736e-32
2.275440075e-32
2.06121464e-32
1.866874726e-32
1.690583967e-32
1.53067517e-32
1.385634657e-32
1.254088181e-32
1.134788067e-32
1.026601569e-32
9.285002968e-33
8.395506422e-33
7.589050177e-33
6.857939597e-33
6.195189739e-33
5.594459812e-33
5.049993902e-33
4.556567304e-33
4.109437482e-33
3.704300199e-33
3.337248515e-33
3.004736674e-33
2.703546771e-33
2.430758423e-33
2.18372178e-33
1.960032126e-33
1.757507642e-33
1.574168791e-33
1.408219303e-33
1.258029864e-33
1.122122295e-33
9.991559883e-34
8.879147652e-34
7.872956039e-34
6.962983288e-34
6.140157938e-34
5.396255565e-34
4.723820253e-34
4.116090495e-34
3.566935839e-34
3.070802222e-34
2.62265397e-34
2.217929246e-34
1.852492862e-34
1.522597215e-34
1.224847944e-34
9.561709029e-35
7.137807715e-35
4.951545485e-35
2.980074987e-35
1.202736125e-35
0
0
0
0
0
0
0
0
0
0
0
0
0
0
0
0
0
0
0
0
0
0
0
0
0
0
0
0
0
0
0
0
0
0
0
0
0
0
0
0
0
0
0
0
0
0
0
0
0
0
0
0
0
0
0
0
0
0
0
0
0
0
0
0
0
0
0
0
0
0
0
0
0
0
0
0
0
0
0
0
0
0
0
0
0
0
0
0
0
0
0
0
0
0
0
0
0
0
0
0
0
0
0
0
0
0
0
0
0
0
0
0
0
0
0
0
0
0
0
0
0
0
0
0
0
0
0
0
0
0
0
0
0
0
0
0
0
0
0
0
0
0
0
0
0
0
0
0
0
0
0
0
0
0
0
0
0
0
0
0
0
0
0
0
0
0
0
0
0
0
0
0
0
0
0
0
0
0
0
0
0
0
0
0
0
0
0
0
0
0
0
0
0
0
0
0
0
0
0
0
0
0
0
0
0
0
0
0
0
0
0