/*--------------------------------*- C++ -*----------------------------------*\
| =========                 |                                                 |
| \\      /  F ield         | OpenFOAM: The Open Source CFD Toolbox           |
|  \\    /   O peration     | Version:  v2006                                 |
|   \\  /    A nd           | Website:  www.openfoam.com                      |
|    \\/     M anipulation  |                                                 |
\*---------------------------------------------------------------------------*/
FoamFile
{
    version     2.0;
    format      ascii;
    class       volScalarField;
    location    "0.1";
    object      CH2O;
}
// * * * * * * * * * * * * * * * * * * * * * * * * * * * * * * * * * * * * * //

dimensions      [0 0 0 0 0 0 0];


internalField   nonuniform List<scalar> 
72000
(
3.291518699e-11
3.291529773e-11
3.291551035e-11
3.291581359e-11
3.291619686e-11
3.291665046e-11
3.291716558e-11
3.291773467e-11
3.291835086e-11
3.291900844e-11
3.291970229e-11
3.292042823e-11
3.292118272e-11
3.292196276e-11
3.292276582e-11
3.292358993e-11
3.292443336e-11
3.292529471e-11
3.292617292e-11
3.292706708e-11
3.292797659e-11
3.292890378e-11
3.292984584e-11
3.293080195e-11
3.293177183e-11
3.293275528e-11
3.293375201e-11
3.293476217e-11
3.293578612e-11
3.29368241e-11
3.293787636e-11
3.293894317e-11
3.294002482e-11
3.29411216e-11
3.294223392e-11
3.294336209e-11
3.294450626e-11
3.294566662e-11
3.294684356e-11
3.294803759e-11
3.294924914e-11
3.295047867e-11
3.295172651e-11
3.2952993e-11
3.295427829e-11
3.295558244e-11
3.295690519e-11
3.295824553e-11
3.295960148e-11
3.296096989e-11
3.296241375e-11
3.296390673e-11
3.296541658e-11
3.296694683e-11
3.296850057e-11
3.297007989e-11
3.297168613e-11
3.297332067e-11
3.297498439e-11
3.297667836e-11
3.297840367e-11
3.298016025e-11
3.298194921e-11
3.298377096e-11
3.298562679e-11
3.298753534e-11
3.298963962e-11
3.299178497e-11
3.299397345e-11
3.29962062e-11
3.299848396e-11
3.300080649e-11
3.300317296e-11
3.300558727e-11
3.300805221e-11
3.301056903e-11
3.301313941e-11
3.301576473e-11
3.301844704e-11
3.302118822e-11
3.302399065e-11
3.302685742e-11
3.302979041e-11
3.303279087e-11
3.303586029e-11
3.303900076e-11
3.304221435e-11
3.304550353e-11
3.304888528e-11
3.305235502e-11
3.305591018e-11
3.305955522e-11
3.306329421e-11
3.306713124e-11
3.307107022e-11
3.307511598e-11
3.307927252e-11
3.308354301e-11
3.308791658e-11
3.309241102e-11
3.309703148e-11
3.310178382e-11
3.310667439e-11
3.311170761e-11
3.311688912e-11
3.312222383e-11
3.312771777e-11
3.313337615e-11
3.313920507e-11
3.314520506e-11
3.315138705e-11
3.31577482e-11
3.316429333e-11
3.317107084e-11
3.317807426e-11
3.319118491e-11
3.316579743e-11
3.33416919e-11
3.281648057e-11
3.383555867e-11
3.280949006e-11
3.439199459e-11
3.280203357e-11
3.500649156e-11
3.279405952e-11
3.566116435e-11
3.278346163e-11
3.63781879e-11
3.277545204e-11
3.719736075e-11
3.276405782e-11
3.815393498e-11
3.275029218e-11
3.937020615e-11
3.272287363e-11
4.162826379e-11
3.270507489e-11
4.229021771e-11
3.267843974e-11
4.278106272e-11
3.266641091e-11
4.337327014e-11
3.272524127e-11
4.423999073e-11
3.292516653e-11
4.53651242e-11
3.31747792e-11
4.670323199e-11
3.328611817e-11
4.919026109e-11
3.331245747e-11
5.122171471e-11
3.338679396e-11
5.752700781e-11
3.358960983e-11
6.039661234e-11
3.415221422e-11
3.460094412e-11
3.487885284e-11
1.337855762e-10
3.479308747e-11
5.366527946e-06
0.000144859725
0.000466291397
0.0006668520648
0.0007546403639
0.0007732681431
0.0007500429541
0.0007020250738
0.0006405119199
0.0005731514742
0.0005055839443
0.0004411359081
0.0003822968985
0.0003297959007
0.0002840057298
0.0002446477014
0.0002111150795
0.0001826716853
0.0001586227197
0.0001382835752
0.0001210693625
0.0001064190054
9.39258568e-05
8.319800941e-05
7.395687213e-05
6.596737305e-05
5.902197014e-05
5.293537864e-05
4.758523194e-05
4.289655021e-05
3.879679692e-05
3.510724444e-05
3.17658873e-05
2.872830322e-05
2.586362706e-05
2.304796833e-05
2.046481051e-05
1.816365142e-05
1.613931256e-05
1.436592453e-05
1.281230873e-05
1.144844009e-05
1.024772298e-05
9.187425045e-06
8.248386883e-06
7.414511461e-06
6.672243497e-06
6.010112945e-06
5.418357739e-06
4.88861984e-06
4.413702473e-06
3.987376516e-06
3.604225e-06
3.259517325e-06
2.949106747e-06
2.669346129e-06
2.417018155e-06
2.189277043e-06
1.983599583e-06
1.797743714e-06
1.629713294e-06
1.477727971e-06
1.340197297e-06
1.215698397e-06
1.10295662e-06
1.000828709e-06
9.082881291e-07
8.244122113e-07
7.483708827e-07
6.794167395e-07
6.168762919e-07
5.601422219e-07
5.086665239e-07
4.619544152e-07
4.195589199e-07
3.810760448e-07
3.461404747e-07
3.144217264e-07
2.856207093e-07
2.594666433e-07
2.357142964e-07
2.141415054e-07
1.945469469e-07
1.767481355e-07
1.605796196e-07
1.458913585e-07
1.325472589e-07
1.204238545e-07
1.094091153e-07
9.940137164e-08
9.030834268e-08
8.204625777e-08
7.453906209e-08
6.771769806e-08
6.151945471e-08
5.588737908e-08
5.076974268e-08
4.611955829e-08
4.189414242e-08
3.805471813e-08
3.456605561e-08
3.139614568e-08
2.851590381e-08
2.589890199e-08
2.352112482e-08
2.136074872e-08
1.939794104e-08
1.761467817e-08
1.599457994e-08
1.452275952e-08
1.318568716e-08
1.197106614e-08
1.086772048e-08
9.865492592e-09
8.955150345e-09
8.128302958e-09
7.377324178e-09
6.695282646e-09
6.075878677e-09
5.513386621e-09
5.002602783e-09
4.538797667e-09
4.117673054e-09
3.73532254e-09
3.388196122e-09
3.073067458e-09
2.78700455e-09
2.527343056e-09
2.29166176e-09
2.077760522e-09
1.883640047e-09
1.707483786e-09
1.54764116e-09
1.402612487e-09
1.271035169e-09
1.151671235e-09
1.04339608e-09
9.451879993e-10
8.561188718e-10
7.753455661e-10
7.021022281e-10
6.356932952e-10
5.754870278e-10
5.209095866e-10
4.714399383e-10
4.266048176e-10
3.859745402e-10
3.491589701e-10
3.158038285e-10
2.855874359e-10
2.582178668e-10
2.334300095e-10
2.109832982e-10
1.906592787e-10
1.72259758e-10
1.556048023e-10
1.40531255e-10
1.268909754e-10
1.145495584e-10
1.033850614e-10
9.328684674e-11
8.415466922e-11
7.589740676e-11
6.843258655e-11
6.16853864e-11
5.558786723e-11
5.007862634e-11
4.510176883e-11
4.060679284e-11
3.654785931e-11
3.288341662e-11
2.957580313e-11
2.659097772e-11
2.389806807e-11
2.146903262e-11
1.927847295e-11
1.730351672e-11
1.552340185e-11
1.391931418e-11
1.247421997e-11
1.117269921e-11
1.000077544e-11
8.945837741e-12
7.99653269e-12
7.142510445e-12
6.374410873e-12
5.683826489e-12
5.063117911e-12
4.505357662e-12
4.004388605e-12
3.554588667e-12
3.150871741e-12
2.788620039e-12
2.463700248e-12
2.172363799e-12
1.911194156e-12
1.677219488e-12
1.467643486e-12
1.280003982e-12
1.112035538e-12
9.618726517e-13
8.275739041e-13
7.075929629e-13
6.003691796e-13
5.045756607e-13
4.19153948e-13
3.429310534e-13
2.750161027e-13
2.144395989e-13
1.605105241e-13
1.124834801e-13
6.97269923e-14
3.169548608e-14
0
0
0
0
0
0
0
0
0
0
0
0
0
0
0
0
0
0
0
0
0
0
0
0
0
0
0
0
0
0
0
0
0
0
0
0
0
0
0
0
0
0
0
0
0
0
0
0
0
0
0
0
0
0
0
0
0
0
0
0
0
0
0
0
0
0
0
0
0
0
0
0
0
0
0
0
0
0
0
0
0
0
0
0
0
0
0
0
0
0
0
0
0
0
0
0
0
0
0
0
0
0
0
0
0
0
0
0
0
0
0
0
0
0
0
0
0
0
0
0
0
0
0
0
0
0
0
0
0
0
0
0
0
0
0
0
0
0
0
0
0
0
0
0
0
0
0
0
0
0
0
0
0
0
0
0
0
0
0
0
0
0
0
0
0
0
0
0
0
0
0
0
0
0
0
0
0
0
0
0
0
0
0
0
0
0
0
0
0
0
0
0
0
0
0
0
0
0
0
0
0
0
0
0
0
0
0
0
0
0
0
0
0
0
0
0
0
0
0
0
0
0
0
0
0
0
5.817039107e-11
5.819491842e-11
5.824172858e-11
5.830852087e-11
5.839307071e-11
5.849333816e-11
5.860745909e-11
5.87338118e-11
5.887096045e-11
5.901767698e-11
5.917288146e-11
5.933568404e-11
5.950532971e-11
5.96811808e-11
5.986271054e-11
6.004948819e-11
6.024114675e-11
6.043742415e-11
6.063810979e-11
6.0843032e-11
6.105207422e-11
6.126513216e-11
6.148213534e-11
6.17030369e-11
6.192782651e-11
6.215649258e-11
6.238902396e-11
6.26254907e-11
6.286599104e-11
6.311062461e-11
6.335949196e-11
6.361269742e-11
6.387035159e-11
6.413256646e-11
6.439948078e-11
6.46712192e-11
6.494787717e-11
6.522955641e-11
6.551641277e-11
6.58086199e-11
6.610634603e-11
6.640976014e-11
6.671901285e-11
6.703426245e-11
6.735563344e-11
6.768321973e-11
6.801704213e-11
6.835700055e-11
6.870277566e-11
6.905369709e-11
6.941234486e-11
6.977790077e-11
7.014971328e-11
7.05287287e-11
7.091573361e-11
7.13113119e-11
7.171591095e-11
7.212993063e-11
7.255372819e-11
7.29876499e-11
7.343204019e-11
7.388722443e-11
7.435357546e-11
7.483145049e-11
7.532119554e-11
7.582303948e-11
7.633710027e-11
7.686453158e-11
7.740576127e-11
7.796128086e-11
7.853153221e-11
7.911677277e-11
7.97168752e-11
8.033320184e-11
8.096657742e-11
8.161766603e-11
8.228721416e-11
8.297584948e-11
8.368431855e-11
8.441350382e-11
8.5164403e-11
8.593817809e-11
8.673562531e-11
8.755758062e-11
8.840489754e-11
8.927865207e-11
9.017985674e-11
9.110961563e-11
9.209254341e-11
9.311022329e-11
9.416212157e-11
9.525007888e-11
9.637603852e-11
9.754192197e-11
9.874983317e-11
1.00001791e-10
1.013000589e-10
1.026466051e-10
1.043915683e-10
1.062223746e-10
1.081321451e-10
1.101256173e-10
1.122078258e-10
1.143835481e-10
1.166573692e-10
1.190341655e-10
1.215196181e-10
1.241193755e-10
1.268557445e-10
1.297948611e-10
1.328746906e-10
1.360991325e-10
1.394736525e-10
1.429981561e-10
1.466620319e-10
1.504545459e-10
1.543923915e-10
1.58369887e-10
1.627249175e-10
1.6619982e-10
1.709040083e-10
1.741512354e-10
1.794602994e-10
1.826597832e-10
1.887994119e-10
1.920664885e-10
1.999081187e-10
2.048081243e-10
2.171137724e-10
2.223933397e-10
2.37017061e-10
2.426295953e-10
2.599769481e-10
2.659903577e-10
2.870731107e-10
2.941397343e-10
3.243914313e-10
3.383187893e-10
3.81887138e-10
4.125974207e-10
4.963798497e-10
5.477979648e-10
6.697476026e-10
7.487129339e-10
9.955090392e-10
1.160070519e-09
1.585391342e-09
1.940285487e-09
2.989407462e-09
3.916784204e-09
6.746794882e-09
9.828985128e-09
1.912404523e-08
3.058761498e-08
6.871867929e-08
1.268561933e-07
3.399665007e-07
7.453885852e-07
1.609031867e-06
3.736234207e-06
1.347954455e-05
7.155918058e-05
0.0002901933236
0.0005309474402
0.0006846406359
0.0007585946407
0.0007760169712
0.0007557801328
0.000711477136
0.0006530149453
0.000587570809
0.0005205577672
0.0004560216206
0.000396200602
0.0003423243334
0.0002950757132
0.0002541760166
0.0002192436992
0.0001895641803
0.000164457747
0.0001432373055
0.0001252367465
0.0001099610666
9.694722558e-05
8.579553592e-05
7.618205306e-05
6.788395519e-05
6.075177027e-05
5.447723491e-05
4.893152608e-05
4.402241435e-05
3.963944983e-05
3.567469604e-05
3.20719858e-05
2.874895418e-05
2.567459023e-05
2.285563437e-05
2.032386175e-05
1.808184475e-05
1.610889074e-05
1.437524232e-05
1.285022301e-05
1.150571347e-05
1.031720825e-05
9.263810437e-06
8.327833643e-06
7.494309269e-06
6.750524236e-06
6.08562808e-06
5.490310032e-06
4.956538158e-06
4.477349006e-06
4.046678866e-06
3.659226253e-06
3.310339438e-06
2.995923739e-06
2.712364496e-06
2.456462685e-06
2.225380571e-06
2.016595713e-06
1.827861712e-06
1.657174606e-06
1.502743951e-06
1.362967812e-06
1.236411083e-06
1.121786605e-06
1.017938681e-06
9.238286284e-07
8.385220941e-07
7.611778812e-07
6.910380885e-07
6.274193857e-07
5.697052786e-07
5.173392472e-07
4.698186323e-07
4.266891987e-07
3.875402783e-07
3.520004315e-07
3.197335674e-07
2.904354679e-07
2.638306715e-07
2.396696777e-07
2.177264335e-07
1.977960755e-07
1.796928978e-07
1.63248522e-07
1.483102482e-07
1.34739568e-07
1.224108237e-07
1.112099962e-07
1.010336119e-07
9.178775401e-08
8.338716845e-08
7.575445576e-08
6.881933965e-08
6.251800462e-08
5.679249694e-08
5.159018117e-08
4.686324846e-08
4.256827085e-08
3.866579705e-08
3.511998621e-08
3.189827562e-08
2.897107924e-08
2.631151477e-08
2.389515517e-08
2.169980397e-08
1.970529064e-08
1.789328541e-08
1.624713076e-08
1.475168851e-08
1.339320116e-08
1.215916563e-08
1.10382189e-08
1.002003386e-08
9.095224771e-09
8.255261641e-09
7.492392017e-09
6.799570205e-09
6.170392786e-09
5.599040132e-09
5.080223376e-09
4.609135766e-09
4.181409113e-09
3.793073505e-09
3.440521356e-09
3.120474199e-09
2.829952702e-09
2.566249643e-09
2.326904849e-09
2.109682953e-09
1.912552737e-09
1.733668574e-09
1.571353603e-09
1.42408434e-09
1.290476499e-09
1.169272547e-09
1.059330068e-09
9.59611249e-10
8.69173346e-10
7.871599336e-10
7.127931503e-10
6.453665592e-10
5.842385073e-10
5.288261701e-10
4.786003803e-10
4.330805471e-10
3.918302503e-10
3.544533126e-10
3.205899444e-10
2.899134764e-10
2.621274968e-10
2.369627213e-10
2.141749335e-10
1.935422679e-10
1.748634892e-10
1.579559649e-10
1.426539451e-10
1.288070498e-10
1.162787724e-10
1.049452856e-10
9.469437814e-11
8.542416096e-11
7.704211856e-11
6.946459588e-11
6.261555274e-11
5.642607085e-11
5.083371917e-11
4.578186097e-11
4.121916009e-11
3.709906368e-11
3.337946635e-11
3.002214191e-11
2.699242419e-11
2.425901704e-11
2.179345504e-11
1.957001588e-11
1.756541942e-11
1.575861342e-11
1.413048535e-11
1.266374732e-11
1.134269799e-11
1.015320321e-11
9.082512296e-12
8.118963694e-12
7.252175688e-12
6.472641242e-12
5.771724944e-12
5.141756876e-12
4.575708312e-12
4.067269859e-12
3.610793862e-12
3.201046862e-12
2.833403452e-12
2.503600318e-12
2.207928367e-12
1.942899399e-12
1.705466277e-12
1.492795992e-12
1.302353518e-12
1.13197623e-12
9.795729601e-13
8.432690219e-13
7.215356696e-13
6.127595697e-13
5.155534959e-13
4.288920722e-13
3.515449608e-13
2.826344153e-13
2.211783486e-13
1.664554809e-13
1.177388621e-13
7.436923171e-14
3.576600859e-14
1.511726343e-15
0
0
0
0
0
0
0
0
0
0
0
0
0
0
0
0
0
0
0
0
0
0
0
0
0
0
0
0
0
0
0
0
0
0
0
0
0
0
0
0
0
0
0
0
0
0
0
0
0
0
0
0
0
0
0
0
0
0
0
0
0
0
0
0
0
0
0
0
0
0
0
0
0
0
0
0
0
0
0
0
0
0
0
0
0
0
0
0
0
0
0
0
0
0
0
0
0
0
0
0
0
0
0
0
0
0
0
0
0
0
0
0
0
0
0
0
0
0
0
0
0
0
0
0
0
0
0
0
0
0
0
0
0
0
0
0
0
0
0
0
0
0
0
0
0
0
0
0
0
0
0
0
0
0
0
0
0
0
0
0
0
0
0
0
0
0
0
0
0
0
0
0
0
0
0
0
0
0
0
0
0
0
0
0
0
0
0
0
0
0
0
0
0
0
0
0
0
0
0
0
0
0
0
0
0
0
0
0
0
0
0
0
0
0
0
0
0
0
0
0
0
0
0
0
0
8.65907475e-11
8.6648517e-11
8.675809781e-11
8.691394063e-11
8.711084097e-11
8.734404547e-11
8.760928532e-11
8.79027936e-11
8.822127183e-11
8.856186779e-11
8.892212719e-11
8.92999842e-11
8.969369263e-11
9.010179542e-11
9.052306901e-11
9.095651771e-11
9.140131891e-11
9.185685382e-11
9.232264889e-11
9.279832943e-11
9.328361798e-11
9.377828921e-11
9.428218931e-11
9.479522569e-11
9.531737081e-11
9.584864438e-11
9.639463193e-11
9.695428893e-11
9.752380056e-11
9.810340145e-11
9.869333013e-11
9.929383869e-11
9.990520713e-11
1.005277484e-10
1.01161809e-10
1.01807718e-10
1.024656956e-10
1.031359891e-10
1.038190059e-10
1.045151946e-10
1.05224997e-10
1.059488427e-10
1.066871326e-10
1.074402701e-10
1.082086245e-10
1.089925022e-10
1.097920909e-10
1.106073359e-10
1.114378006e-10
1.122822158e-10
1.131370802e-10
1.140043229e-10
1.148873873e-10
1.157879769e-10
1.167081683e-10
1.176492787e-10
1.186123356e-10
1.195982434e-10
1.206078428e-10
1.216419835e-10
1.227015599e-10
1.237873139e-10
1.249001132e-10
1.260409366e-10
1.27210781e-10
1.284106177e-10
1.296633097e-10
1.309636597e-10
1.322991951e-10
1.336712989e-10
1.350813913e-10
1.365885437e-10
1.386521925e-10
1.407829244e-10
1.429834855e-10
1.45256715e-10
1.476056393e-10
1.500333616e-10
1.525431585e-10
1.551387087e-10
1.578247322e-10
1.60608312e-10
1.634920044e-10
1.664789805e-10
1.69573426e-10
1.727802881e-10
1.761047683e-10
1.795523335e-10
1.831284115e-10
1.869289085e-10
1.909127934e-10
1.95059029e-10
1.993771679e-10
2.0387697e-10
2.085680951e-10
2.134612926e-10
2.185692316e-10
2.23901254e-10
2.294704489e-10
2.352862545e-10
2.413582134e-10
2.47704028e-10
2.543407208e-10
2.612845086e-10
2.686802361e-10
2.765882325e-10
2.848796811e-10
2.935726506e-10
3.02692515e-10
3.122631173e-10
3.231772008e-10
3.394095899e-10
3.565987355e-10
3.747757738e-10
3.939608289e-10
4.141654604e-10
4.358146385e-10
4.587423408e-10
4.826884132e-10
5.072573102e-10
5.332296719e-10
5.599429633e-10
5.887657431e-10
6.185244511e-10
6.511876611e-10
6.849617329e-10
7.225248167e-10
7.755378322e-10
8.462977318e-10
9.213676793e-10
1.00773226e-09
1.098220911e-09
1.203301866e-09
1.314634954e-09
1.447703009e-09
1.593686606e-09
1.840281923e-09
2.154668175e-09
2.557545556e-09
3.019825374e-09
3.60229753e-09
4.4932452e-09
5.725122778e-09
7.208453241e-09
9.472967659e-09
1.258127077e-08
1.700284208e-08
2.390184822e-08
3.439805944e-08
5.048515264e-08
7.832903843e-08
1.233708051e-07
2.05429303e-07
3.517254833e-07
6.415090818e-07
1.199688728e-06
2.411389296e-06
4.88996277e-06
1.025299516e-05
2.317438873e-05
6.078530881e-05
0.0001708281765
0.0003620923672
0.0005481980155
0.0006811536154
0.0007566396869
0.0007843656851
0.0007760845418
0.0007417854113
0.0006905169273
0.0006293630693
0.0005640034462
0.0004990308284
0.0004372210469
0.0003804874394
0.0003297526189
0.0002852375274
0.0002466778821
0.0002136355715
0.0001854170632
0.0001614549173
0.0001410641954
0.0001237019946
0.0001089304053
9.626239533e-05
8.529559865e-05
7.579115368e-05
6.750827567e-05
6.020638966e-05
5.375811622e-05
4.801276735e-05
4.286013901e-05
3.82652785e-05
3.415567049e-05
3.046619934e-05
2.715337595e-05
2.419129604e-05
2.156227894e-05
1.923978282e-05
1.719095742e-05
1.538229268e-05
1.378288175e-05
1.236551574e-05
1.110673049e-05
9.986455531e-06
8.987550527e-06
8.095337179e-06
7.29719171e-06
6.582211969e-06
5.940941368e-06
5.365143801e-06
4.847616783e-06
4.382042327e-06
3.962861289e-06
3.585168811e-06
3.24462674e-06
2.937389618e-06
2.660042184e-06
2.409545621e-06
2.183191722e-06
1.978563246e-06
1.793499725e-06
1.626067774e-06
1.474535192e-06
1.337348394e-06
1.213112628e-06
1.100574611e-06
9.986072376e-07
9.06196092e-07
8.224275391e-07
7.464781711e-07
6.776054404e-07
6.151393346e-07
5.584749841e-07
5.070660475e-07
4.604188381e-07
4.180870554e-07
3.796670792e-07
3.447937545e-07
3.131366145e-07
2.843964894e-07
2.583024658e-07
2.346091468e-07
2.130941945e-07
1.935561143e-07
1.758122618e-07
1.596970448e-07
1.450603028e-07
1.317658458e-07
1.196901329e-07
1.087210816e-07
9.875699033e-08
8.970556471e-08
8.148303738e-08
7.401337161e-08
6.722754015e-08
6.106287374e-08
5.546246933e-08
5.037465586e-08
4.57525092e-08
4.155341316e-08
3.773866133e-08
3.427309633e-08
3.112478239e-08
2.826470903e-08
2.566652167e-08
2.33062775e-08
2.116222408e-08
1.921459821e-08
1.744544348e-08
1.583844479e-08
1.437877778e-08
1.305297261e-08
1.184878983e-08
1.075510787e-08
9.761820829e-09
8.859745711e-09
8.040538046e-09
7.296615305e-09
6.621087296e-09
6.007692989e-09
5.450743151e-09
4.945068012e-09
4.485970027e-09
4.069180718e-09
3.690821496e-09
3.347368193e-09
3.035618596e-09
2.752663255e-09
2.495858599e-09
2.262802835e-09
2.051313776e-09
1.859408897e-09
1.685287056e-09
1.527312014e-09
1.383997236e-09
1.253992434e-09
1.136070958e-09
1.029118632e-09
9.321233938e-10
8.441659967e-10
7.64411539e-10
6.921017976e-10
6.265481315e-10
5.671252003e-10
5.132651346e-10
4.644523149e-10
4.202184869e-10
3.801386295e-10
3.438267213e-10
3.109323911e-10
2.811376692e-10
2.541537344e-10
2.29718605e-10
2.075944045e-10
1.875652718e-10
1.694353337e-10
1.530269086e-10
1.38178627e-10
1.247441963e-10
1.125908427e-10
1.01598183e-10
9.165699935e-11
8.266816287e-11
7.454188657e-11
6.719667232e-11
6.055863662e-11
5.456083227e-11
4.914260234e-11
4.424883451e-11
3.982963688e-11
3.583988756e-11
3.223856226e-11
2.898856408e-11
2.605627827e-11
2.341125286e-11
2.102583863e-11
1.887514079e-11
1.69365448e-11
1.518955476e-11
1.36156975e-11
1.219808851e-11
1.092157204e-11
9.772459878e-12
8.738335704e-12
7.807989385e-12
6.971199591e-12
6.218835477e-12
5.542537905e-12
4.934868922e-12
4.389002885e-12
3.898846795e-12
3.458867606e-12
3.064030862e-12
2.709842667e-12
2.39226716e-12
2.107617331e-12
1.852545687e-12
1.624099227e-12
1.419524391e-12
1.236467874e-12
1.072729282e-12
9.262556603e-13
7.954036527e-13
6.785179647e-13
5.740951549e-13
4.808993948e-13
3.977409629e-13
3.236623794e-13
2.576258953e-13
1.987741819e-13
1.463760772e-13
9.972987499e-14
5.824121726e-14
2.137618983e-14
0
0
0
0
0
0
0
0
0
0
0
0
0
0
0
0
0
0
0
0
0
0
0
0
0
0
0
0
0
0
0
0
0
0
0
0
0
0
0
0
0
0
0
0
0
0
0
0
0
0
0
0
0
0
0
0
0
0
0
0
0
0
0
0
0
0
0
0
0
0
0
0
0
0
0
0
0
0
0
0
0
0
0
0
0
0
0
0
0
0
0
0
0
0
0
0
0
0
0
0
0
0
0
0
0
0
0
0
0
0
0
0
0
0
0
0
0
0
0
0
0
0
0
0
0
0
0
0
0
0
0
0
0
0
0
0
0
0
0
0
0
0
0
0
0
0
0
0
0
0
0
0
0
0
0
0
0
0
0
0
0
0
0
0
0
0
0
0
0
0
0
0
0
0
0
0
0
0
0
0
0
0
0
0
0
0
0
0
0
0
0
0
0
0
0
0
0
0
0
0
0
0
0
0
0
0
0
0
0
0
0
0
0
0
0
0
0
0
0
0
0
0
0
0
0
1.240739816e-10
1.241773126e-10
1.24372537e-10
1.246493667e-10
1.249984324e-10
1.254112987e-10
1.258804545e-10
1.263992876e-10
1.269620262e-10
1.275636785e-10
1.281999703e-10
1.288672981e-10
1.29562638e-10
1.30283461e-10
1.310276482e-10
1.317934388e-10
1.325793973e-10
1.333844761e-10
1.342078942e-10
1.35049031e-10
1.359074135e-10
1.367826757e-10
1.376745357e-10
1.38582834e-10
1.395075805e-10
1.404489628e-10
1.414166573e-10
1.424088817e-10
1.434190431e-10
1.444474795e-10
1.45494595e-10
1.465608465e-10
1.476467457e-10
1.487528715e-10
1.49879906e-10
1.510287838e-10
1.521995936e-10
1.533923963e-10
1.546081957e-10
1.558479629e-10
1.571125281e-10
1.584026785e-10
1.5971917e-10
1.610627598e-10
1.624342093e-10
1.638342337e-10
1.652634005e-10
1.667219438e-10
1.682098815e-10
1.697270008e-10
1.712732177e-10
1.728500625e-10
1.746999412e-10
1.77214687e-10
1.797949043e-10
1.824440911e-10
1.851654301e-10
1.879618552e-10
1.908362164e-10
1.937913931e-10
1.96867627e-10
2.000393689e-10
2.033059099e-10
2.066715212e-10
2.10140348e-10
2.137165989e-10
2.17404176e-10
2.212077341e-10
2.251323985e-10
2.291833549e-10
2.333662376e-10
2.376874656e-10
2.421544958e-10
2.467714054e-10
2.515437878e-10
2.564779049e-10
2.615804787e-10
2.66858476e-10
2.723189305e-10
2.779681875e-10
2.838148069e-10
2.89985752e-10
2.964188089e-10
3.03095475e-10
3.100270719e-10
3.172260566e-10
3.247056418e-10
3.324796897e-10
3.405627652e-10
3.489707847e-10
3.577202598e-10
3.668282447e-10
3.763186247e-10
3.862154262e-10
3.965359846e-10
4.073427154e-10
4.189201306e-10
4.31023518e-10
4.436820859e-10
4.569259137e-10
4.792701297e-10
5.034515066e-10
5.290298151e-10
5.560992912e-10
5.847321338e-10
6.150176126e-10
6.470671757e-10
6.818866508e-10
7.188305144e-10
7.580252807e-10
7.995988008e-10
8.436824702e-10
8.903805245e-10
9.397915981e-10
9.920087166e-10
1.047114192e-09
1.106643903e-09
1.169720973e-09
1.23597874e-09
1.328542061e-09
1.44953853e-09
1.578278315e-09
1.716505297e-09
1.864322853e-09
2.024172252e-09
2.19789349e-09
2.389579076e-09
2.597046567e-09
2.825041791e-09
3.072999568e-09
3.457440629e-09
3.917704956e-09
4.435644937e-09
5.029969332e-09
5.715459515e-09
6.503475561e-09
7.54640043e-09
9.082328777e-09
1.095680657e-08
1.318227737e-08
1.606380768e-08
2.038153987e-08
2.576818366e-08
3.287517519e-08
4.344563342e-08
5.690555679e-08
7.813782992e-08
1.076512824e-07
1.522304126e-07
2.215696144e-07
3.311500737e-07
5.070891018e-07
8.069511356e-07
1.319571585e-06
2.247319566e-06
3.955949389e-06
7.219898173e-06
1.353013342e-05
2.621488921e-05
5.318083898e-05
0.0001121214711
0.0002223387081
0.0003720100709
0.000523607126
0.0006486114072
0.000735357285
0.0007833653301
0.0007968264228
0.0007821824231
0.0007458118022
0.0006943161773
0.0006340949944
0.0005703555996
0.0005068732417
0.0004466938801
0.000391359508
0.0003416547214
0.000297712515
0.0002593955893
0.0002262475772
0.000197673612
0.0001731638674
0.000152005361
0.000133755845
0.0001179376472
0.0001041679173
9.216652482e-05
8.16203672e-05
7.237823852e-05
6.427081132e-05
5.713198054e-05
5.082627453e-05
4.525131926e-05
4.030546986e-05
3.591487504e-05
3.201985649e-05
2.856844574e-05
2.551425149e-05
2.281269387e-05
2.042126011e-05
1.830120906e-05
1.641858348e-05
1.474396819e-05
1.325194383e-05
1.192056291e-05
1.073088127e-05
9.666482713e-06
8.713075692e-06
7.8581899e-06
7.090909843e-06
6.401658398e-06
5.781999256e-06
5.224491759e-06
4.722558399e-06
4.270373074e-06
3.862766153e-06
3.495142408e-06
3.1634122e-06
2.863930215e-06
2.593443325e-06
2.349044815e-06
2.128134679e-06
1.928384978e-06
1.747709258e-06
1.584235887e-06
1.436284554e-06
1.302345536e-06
1.181061407e-06
1.071210835e-06
9.716942471e-07
8.815211294e-07
7.99798695e-07
7.2572182e-07
6.585640979e-07
5.97669817e-07
5.42446856e-07
4.923602905e-07
4.469266846e-07
4.057089803e-07
3.683119182e-07
3.34377927e-07
3.035834408e-07
2.756355758e-07
2.502691577e-07
2.2724404e-07
2.063426929e-07
1.873680319e-07
1.701414586e-07
1.545011003e-07
1.403002132e-07
1.274057504e-07
1.156970634e-07
1.050647311e-07
9.540950175e-08
8.664133663e-08
7.867854427e-08
7.144699998e-08
6.4879436e-08
5.891480254e-08
5.349768744e-08
4.857779139e-08
4.410945242e-08
4.005121555e-08
3.6365442e-08
3.301795654e-08
2.99777263e-08
2.721657066e-08
2.470889764e-08
2.243146522e-08
2.036316449e-08
1.848482348e-08
1.677902834e-08
1.522996225e-08
1.382325808e-08
1.254586539e-08
1.138592954e-08
1.03326819e-08
9.376340173e-09
8.508017968e-09
7.719642736e-09
7.003881052e-09
6.354071028e-09
5.764160746e-09
5.228652461e-09
4.742551745e-09
4.301321641e-09
3.900840591e-09
3.537364472e-09
3.207492202e-09
2.908134192e-09
2.636483909e-09
2.389992049e-09
2.166342942e-09
1.963433153e-09
1.779352157e-09
1.612364606e-09
1.460894399e-09
1.323509996e-09
1.198911297e-09
1.085917563e-09
9.834565073e-10
8.905543295e-10
8.063267555e-10
7.299708118e-10
6.607574186e-10
5.980245459e-10
5.411711567e-10
4.896515045e-10
4.429702416e-10
4.006775878e-10
3.623652501e-10
3.276627536e-10
2.962336649e-10
2.677727427e-10
2.420030018e-10
2.186729108e-10
1.975544616e-10
1.784405525e-10
1.611434088e-10
1.454925857e-10
1.313335943e-10
1.185261745e-10
1.069430959e-10
9.646907767e-11
8.699949968e-11
7.843952442e-11
7.070312687e-11
6.371237964e-11
5.739656487e-11
5.169161076e-11
4.653944254e-11
4.188748066e-11
3.768801642e-11
3.389783942e-11
3.047779762e-11
2.739245614e-11
2.460963182e-11
2.210029918e-11
1.983814434e-11
1.779931541e-11
1.596225875e-11
1.43073888e-11
1.28170219e-11
1.147519194e-11
1.026746114e-11
9.180753208e-12
8.203155829e-12
7.324060864e-12
6.533749689e-12
5.823463731e-12
5.185316207e-12
4.612199528e-12
4.097630693e-12
3.635806188e-12
3.221431754e-12
2.849795286e-12
2.516647466e-12
2.218036467e-12
1.950555381e-12
1.710997176e-12
1.496564044e-12
1.304707607e-12
1.13307098e-12
9.796845726e-13
8.426065733e-13
7.201609062e-13
6.108686528e-13
5.133279716e-13
4.263711265e-13
3.488093435e-13
2.797055296e-13
2.181562098e-13
1.633819664e-13
1.146568404e-13
7.132125851e-14
3.276738053e-14
0
0
0
0
0
0
0
0
0
0
0
0
0
0
0
0
0
0
0
0
0
0
0
0
0
0
0
0
0
0
0
0
0
0
0
0
0
0
0
0
0
0
0
0
0
0
0
0
0
0
0
0
0
0
0
0
0
0
0
0
0
0
0
0
0
0
0
0
0
0
0
0
0
0
0
0
0
0
0
0
0
0
0
0
0
0
0
0
0
0
0
0
0
0
0
0
0
0
0
0
0
0
0
0
0
0
0
0
0
0
0
0
0
0
0
0
0
0
0
0
0
0
0
0
0
0
0
0
0
0
0
0
0
0
0
0
0
0
0
0
0
0
0
0
0
0
0
0
0
0
0
0
0
0
0
0
0
0
0
0
0
0
0
0
0
0
0
0
0
0
0
0
0
0
0
0
0
0
0
0
0
0
0
0
0
0
0
0
0
0
0
0
0
0
0
0
0
0
0
0
0
0
0
0
0
0
0
0
0
0
0
0
0
0
0
0
0
0
0
0
0
0
0
0
1.697638908e-10
1.699231409e-10
1.702231616e-10
1.706475886e-10
1.711818074e-10
1.718128307e-10
1.725291984e-10
1.733208718e-10
1.741791171e-10
1.750963857e-10
1.760662188e-10
1.770832173e-10
1.781428817e-10
1.792414475e-10
1.803757572e-10
1.81543128e-10
1.827410775e-10
1.839683222e-10
1.852238354e-10
1.865067363e-10
1.878163366e-10
1.891521057e-10
1.905136058e-10
1.919003611e-10
1.933124261e-10
1.947503881e-10
1.962148381e-10
1.977061288e-10
1.99224532e-10
2.007705082e-10
2.023446396e-10
2.039476e-10
2.055801416e-10
2.072430873e-10
2.089373078e-10
2.106691059e-10
2.124348415e-10
2.152282909e-10
2.183459142e-10
2.215386538e-10
2.248090278e-10
2.281595472e-10
2.315927142e-10
2.35111089e-10
2.387173994e-10
2.424149778e-10
2.462071354e-10
2.500942714e-10
2.540779358e-10
2.581600212e-10
2.62343209e-10
2.666321948e-10
2.710336598e-10
2.755544997e-10
2.801992848e-10
2.849735638e-10
2.898829564e-10
2.949325883e-10
3.001276374e-10
3.054734693e-10
3.109754644e-10
3.166633286e-10
3.225595818e-10
3.28640277e-10
3.349132043e-10
3.413871554e-10
3.480735753e-10
3.549788586e-10
3.621102087e-10
3.694769068e-10
3.770893009e-10
3.849586152e-10
3.930963887e-10
4.015131745e-10
4.10220113e-10
4.19229258e-10
4.285534768e-10
4.382062776e-10
4.482018152e-10
4.586297109e-10
4.695245109e-10
4.808264835e-10
4.925570073e-10
5.047380696e-10
5.173892811e-10
5.305357553e-10
5.44202983e-10
5.584172042e-10
5.732058026e-10
5.885975622e-10
6.046232739e-10
6.287498015e-10
6.59959048e-10
6.929865663e-10
7.277702823e-10
7.644070572e-10
8.029978099e-10
8.436674933e-10
8.865435827e-10
9.317627222e-10
9.794816039e-10
1.029853184e-09
1.083260989e-09
1.140706111e-09
1.201487676e-09
1.265809625e-09
1.333892455e-09
1.405976497e-09
1.482286282e-09
1.563081012e-09
1.648607709e-09
1.741109756e-09
1.839625733e-09
1.97835374e-09
2.162662003e-09
2.359562316e-09
2.56969544e-09
2.793558826e-09
3.033435135e-09
3.292671522e-09
3.569622112e-09
3.865873653e-09
4.183963984e-09
4.525974011e-09
4.895251585e-09
5.387856312e-09
6.069362723e-09
6.816490097e-09
7.639345223e-09
8.546358404e-09
9.551941512e-09
1.068206895e-08
1.196956236e-08
1.398095836e-08
1.63092932e-08
1.901777551e-08
2.223259711e-08
2.607182563e-08
3.192149336e-08
3.896849853e-08
4.746917301e-08
5.950963787e-08
7.536928577e-08
9.53913927e-08
1.251909813e-07
1.634897972e-07
2.205309881e-07
3.005119103e-07
4.168978612e-07
5.925520925e-07
8.617816837e-07
1.284462631e-06
1.962805631e-06
3.068820021e-06
4.930647293e-06
8.129212917e-06
1.373839044e-05
2.380404314e-05
4.238929754e-05
7.719511362e-05
0.0001389134661
0.0002326240411
0.0003494769247
0.0004732636735
0.0005885176819
0.0006840306629
0.0007532740276
0.00079423956
0.0008074756857
0.0007965915241
0.0007656793761
0.0007195173521
0.0006633893953
0.0006022124366
0.0005403305596
0.0004807008552
0.0004252051264
0.0003749227141
0.000330048584
0.0002903748621
0.0002555456313
0.0002250278953
0.0001982420782
0.0001747632037
0.000154233759
0.0001362829239
0.0001205906969
0.0001068369232
9.476734177e-05
8.416601788e-05
7.482724015e-05
6.65798768e-05
5.92972733e-05
5.285832433e-05
4.715657369e-05
4.210678861e-05
3.763051848e-05
3.365683637e-05
3.013053211e-05
2.699818777e-05
2.421176239e-05
2.172993237e-05
1.951694172e-05
1.754146718e-05
1.577607322e-05
1.41968679e-05
1.278295782e-05
1.151594755e-05
1.037966168e-05
9.359840149e-06
8.443923819e-06
7.620773881e-06
6.880532523e-06
6.214458794e-06
5.614790842e-06
5.074628392e-06
4.587825899e-06
4.148909174e-06
3.752994566e-06