/*--------------------------------*- C++ -*----------------------------------*\
| =========                 |                                                 |
| \\      /  F ield         | OpenFOAM: The Open Source CFD Toolbox           |
|  \\    /   O peration     | Version:  v2006                                 |
|   \\  /    A nd           | Website:  www.openfoam.com                      |
|    \\/     M anipulation  |                                                 |
\*---------------------------------------------------------------------------*/
FoamFile
{
    version     2.0;
    format      ascii;
    class       volScalarField;
    location    "0.1";
    object      CH3;
}
// * * * * * * * * * * * * * * * * * * * * * * * * * * * * * * * * * * * * * //

dimensions      [0 0 0 0 0 0 0];


internalField   nonuniform List<scalar> 
72000
(
5.89373408e-17
5.896027145e-17
5.900498967e-17
5.906960982e-17
5.915206358e-17
5.925030788e-17
5.936237472e-17
5.948650518e-17
5.962109798e-17
5.976477117e-17
5.991627908e-17
6.007459372e-17
6.023883345e-17
6.040824126e-17
6.058219818e-17
6.076018894e-17
6.094177672e-17
6.112664137e-17
6.1314519e-17
6.150519315e-17
6.169852934e-17
6.189444616e-17
6.209283588e-17
6.229363813e-17
6.24968303e-17
6.270236483e-17
6.29102185e-17
6.312045729e-17
6.333316253e-17
6.354843784e-17
6.376637542e-17
6.398706511e-17
6.421059028e-17
6.443701541e-17
6.466644876e-17
6.48990015e-17
6.513477721e-17
6.537387898e-17
6.561644881e-17
6.586260918e-17
6.611247825e-17
6.636618497e-17
6.662384274e-17
6.688559441e-17
6.715156172e-17
6.742187712e-17
6.769666696e-17
6.797607105e-17
6.826019155e-17
6.854911356e-17
6.884364068e-17
6.914363119e-17
6.944893562e-17
6.975975931e-17
7.007630664e-17
7.039875119e-17
7.072724662e-17
7.106198278e-17
7.140311681e-17
7.175079595e-17
7.210519605e-17
7.24664949e-17
7.283493947e-17
7.321072607e-17
7.359405812e-17
7.401594017e-17
7.471775494e-17
7.54341263e-17
7.616565452e-17
7.691284675e-17
7.767614312e-17
7.845605375e-17
7.925301673e-17
8.006753717e-17
8.090014355e-17
8.175128349e-17
8.262165584e-17
8.351164197e-17
8.442178545e-17
8.535263111e-17
8.630464216e-17
8.727859058e-17
8.827512513e-17
8.929505309e-17
9.033911925e-17
9.140813666e-17
9.250276799e-17
9.362364442e-17
9.477033901e-17
9.594436845e-17
9.714675843e-17
9.837857626e-17
9.964076787e-17
1.0093403e-16
1.022594332e-16
1.036177103e-16
1.050098646e-16
1.064368061e-16
1.078992814e-16
1.093985487e-16
1.109354188e-16
1.125106829e-16
1.14125014e-16
1.157788671e-16
1.174726793e-16
1.192066997e-16
1.209812181e-16
1.227959494e-16
1.24649803e-16
1.265400197e-16
1.284662955e-16
1.30425267e-16
1.324118114e-16
1.344192622e-16
1.36870037e-16
1.402443024e-16
1.423706697e-16
1.507000359e-16
1.36375749e-16
1.715911027e-16
1.395590876e-16
1.942887905e-16
1.420383276e-16
2.192465272e-16
1.442289036e-16
2.462626101e-16
1.462623649e-16
2.763485971e-16
1.483729809e-16
3.110596474e-16
1.503554529e-16
3.519129862e-16
1.522888205e-16
4.04033278e-16
1.540541057e-16
5.013664202e-16
1.598310947e-16
5.631409516e-16
1.709090713e-16
6.394537573e-16
1.872557441e-16
7.37205563e-16
2.146623307e-16
9.456627375e-16
2.61538877e-16
1.250893666e-15
3.200656444e-16
1.648800606e-15
4.099524568e-16
2.635445882e-15
5.488759074e-16
4.328751627e-15
8.213799459e-16
9.426963924e-15
1.397625808e-15
2.077540195e-14
2.785690407e-15
4.024623125e-15
5.575523675e-15
8.06633558e-13
5.41309924e-14
8.320029254e-07
6.551510913e-06
7.416548572e-06
4.591398396e-06
2.432735802e-06
1.133653477e-06
4.765244009e-07
1.679685245e-07
4.891681181e-08
1.319632406e-08
2.219903509e-09
5.11806212e-10
6.574270263e-11
1.05649803e-11
3.243286707e-12
1.030592867e-12
3.062262849e-13
1.314761439e-13
7.970581994e-14
5.144694349e-14
3.311371064e-14
2.379414169e-14
1.684442046e-14
1.30978949e-14
1.039241503e-14
8.253371062e-15
6.641590146e-15
5.518657023e-15
4.581756994e-15
3.80080343e-15
3.150498049e-15
2.586219657e-15
2.09310993e-15
1.761884463e-15
1.534424798e-15
1.313238343e-15
1.121925398e-15
9.615955041e-16
8.282502785e-16
7.17168124e-16
6.241298151e-16
5.456751054e-16
4.790552418e-16
4.221079367e-16
3.731310347e-16
3.307766565e-16
2.939686176e-16
2.618398693e-16
2.336855047e-16
2.089274338e-16
1.870876895e-16
1.677681114e-16
1.506347164e-16
1.35405566e-16
1.218412627e-16
1.09737436e-16
9.891875364e-17
8.923410852e-17
8.055272367e-17
7.276097721e-17
6.57597977e-17
5.946251448e-17
5.379307337e-17
4.868454775e-17
4.407788945e-17
3.992087588e-17
3.616721848e-17
3.277580439e-17
2.971004887e-17
2.693733997e-17
2.442856049e-17
2.215767514e-17
2.010137269e-17
1.823875487e-17
1.655106511e-17
1.502145116e-17
1.363475711e-17
1.237734034e-17
1.123691039e-17
1.020238653e-17
9.263771774e-18
8.412041098e-18
7.639042183e-18
6.937407066e-18
6.300473383e-18
5.722214078e-18
5.19717456e-18
4.720416447e-18
4.287467161e-18
3.894274691e-18
3.537166979e-18
3.212815391e-18
2.918201856e-18
2.650589276e-18
2.407494846e-18
2.186666013e-18
1.986058759e-18
1.803817997e-18
1.638259875e-18
1.487855754e-18
1.351217746e-18
1.227085609e-18
1.114314886e-18
1.011866192e-18
9.18795474e-19
8.342452147e-19
7.574364433e-19
6.87661506e-19
6.242774964e-19
5.667003068e-19
5.143992323e-19
4.668920661e-19
4.237406609e-19
3.845468884e-19
3.489489727e-19
3.166181741e-19
2.872557623e-19
2.605902748e-19
2.363750283e-19
2.143858521e-19
1.944190399e-19
1.762894733e-19
1.598289357e-19
1.448845625e-19
1.313174505e-19
1.19001374e-19
1.07821634e-19
9.767401133e-20
8.846380529e-20
8.010496886e-20
7.251931627e-20
6.563581285e-20
5.938991861e-20
5.37229975e-20
4.858177654e-20
4.391785813e-20
3.968727862e-20
3.585009922e-20
3.2370041e-20
2.921414881e-20
2.63524893e-20
2.375787731e-20
2.140562303e-20
1.927330066e-20
1.734054836e-20
1.558887208e-20
1.400148099e-20
1.256313008e-20
1.125997606e-20
1.007944989e-20
9.01014494e-21
8.041702926e-21
7.164724499e-21
6.370674781e-21
5.651810363e-21
5.001101557e-21
4.412173787e-21
3.87923956e-21
3.397048069e-21
2.960835425e-21
2.566279485e-21
2.209463722e-21
1.886828795e-21
1.595152641e-21
1.331512213e-21
1.093253713e-21
8.77977987e-22
6.835018914e-22
5.07852366e-22
3.492387414e-22
2.060378639e-22
7.677857617e-23
0
0
0
0
0
0
0
0
0
0
0
0
0
0
0
0
0
0
0
0
0
0
0
0
0
0
0
0
0
0
0
0
0
0
0
0
0
0
0
0
0
0
0
0
0
0
0
0
0
0
0
0
0
0
0
0
0
0
0
0
0
0
0
0
0
0
0
0
0
0
0
0
0
0
0
0
0
0
0
0
0
0
0
0
0
0
0
0
0
0
0
0
0
0
0
0
0
0
0
0
0
0
0
0
0
0
0
0
0
0
0
0
0
0
0
0
0
0
0
0
0
0
0
0
0
0
0
0
0
0
0
0
0
0
0
0
0
0
0
0
0
0
0
0
0
0
0
0
0
0
0
0
0
0
0
0
0
0
0
0
0
0
0
0
0
0
0
0
0
0
0
0
0
0
0
0
0
0
0
0
0
0
0
0
0
0
0
0
0
0
0
0
0
0
0
0
0
0
0
0
0
0
0
0
0
0
0
0
0
0
0
0
0
0
0
0
0
0
0
0
0
0
0
0
0
0
0
0
0
0
0
0
0
0
0
0
0
0
0
0
0
0
0
0
0
0
0
0
0
0
0
0
0
0
0
0
0
0
0
0
0
0
0
0
0
0
0
4.409410118e-15
4.421283647e-15
4.444018403e-15
4.476584477e-15
4.517985519e-15
4.567309759e-15
4.623725036e-15
4.686510775e-15
4.755028974e-15
4.828736377e-15
4.907154658e-15
4.989893515e-15
5.076622471e-15
5.167065101e-15
5.260995372e-15
5.358233547e-15
5.45862785e-15
5.562078181e-15
5.668509215e-15
5.777864746e-15
5.890118108e-15
6.005247614e-15
6.123251648e-15
6.244139335e-15
6.367938075e-15
6.494673024e-15
6.624364193e-15
6.757087142e-15
6.892939078e-15
7.03201637e-15
7.174415416e-15
7.320235108e-15
7.469578994e-15
7.622552688e-15
7.779278996e-15
7.939876894e-15
8.104454044e-15
8.273125021e-15
8.446034578e-15
8.623337214e-15
8.805187587e-15
8.991745572e-15
9.183162563e-15
9.379600165e-15
9.581202968e-15
9.788103652e-15
1.000040088e-14
1.021813206e-14
1.044121887e-14
1.066939518e-14
1.095551982e-14
1.127980556e-14
1.161381805e-14
1.195830334e-14
1.231396389e-14
1.268140745e-14
1.3061184e-14
1.345384234e-14
1.385991104e-14
1.427992174e-14
1.471442242e-14
1.516398812e-14
1.562925628e-14
1.611086047e-14
1.660944448e-14
1.712558622e-14
1.765974446e-14
1.821313943e-14
1.878661264e-14
1.938102963e-14
1.999723219e-14
2.063595393e-14
2.129766194e-14
2.198392723e-14
2.269598218e-14
2.343496024e-14
2.420213929e-14
2.49986802e-14
2.582588557e-14
2.66852098e-14
2.757822575e-14
2.850673728e-14
2.947231488e-14
3.047665507e-14
3.152145546e-14
3.260870489e-14
3.374034258e-14
3.491849084e-14
3.658681315e-14
3.837599695e-14
4.024770695e-14
4.220670188e-14
4.42578258e-14
4.640601829e-14
4.865677755e-14
5.101552608e-14
5.348832032e-14
5.608109995e-14
6.131424759e-14
6.701321169e-14
7.312673803e-14
7.968300122e-14
8.671217144e-14
9.424460548e-14
1.023108369e-13
1.109433142e-13
1.201784561e-13
1.300533508e-13
1.411121667e-13
1.553230919e-13
1.706534072e-13
1.871509343e-13
2.048661646e-13
2.238204019e-13
2.439777837e-13
2.652791445e-13
2.877603737e-13
3.108426185e-13
3.361585109e-13
3.567366494e-13
3.84194588e-13
4.03624646e-13
4.349751918e-13
4.543602579e-13
4.912690723e-13
5.113879936e-13
5.670408817e-13
6.141024787e-13
7.405842252e-13
7.976917512e-13
9.601155269e-13
1.024122038e-12
1.228058713e-12
1.301059689e-12
1.565547349e-12
1.66204555e-12
2.07986164e-12
2.295132877e-12
2.986924504e-12
3.588050695e-12
5.495015942e-12
6.807055753e-12
9.962771063e-12
1.225506961e-11
2.073991151e-11
2.726470423e-11
4.50322362e-11
6.271672969e-11
1.187616035e-10
1.77140525e-10
3.728076861e-10
6.225054148e-10
1.459654112e-09
2.685273049e-09
7.246063983e-09
1.557093527e-08
5.026654769e-08
1.289855147e-07
3.193865581e-07
8.38803873e-07
3.204617757e-06
1.259117365e-05
2.76691908e-05
2.978669097e-05
2.411868901e-05
1.715835293e-05
1.09769084e-05
6.247078891e-06
3.124337933e-06
1.300830747e-06
4.681075175e-07
1.371789266e-07
3.112474492e-08
6.975278573e-09
1.374735465e-09
1.629069767e-10
4.201116881e-11
5.146046985e-12
2.175323056e-12
7.285409161e-13
2.437030198e-13
1.550937916e-13
9.558662138e-14
5.390587706e-14
2.558305847e-14
1.325290773e-14
1.080584536e-14
8.863344848e-15
7.275737045e-15
5.966856018e-15
4.908923512e-15
4.159580466e-15
3.531284512e-15
3.001647965e-15
2.547170541e-15
2.156341366e-15
1.823620052e-15
1.545578228e-15
1.315550876e-15
1.125532628e-15
9.680422928e-16
8.367823148e-16
7.266842101e-16
6.337397955e-16
5.547926413e-16
4.873506294e-16
4.29434175e-16
3.794590173e-16
3.361474016e-16
2.984608526e-16
2.655491713e-16
2.367114642e-16
2.11366245e-16
1.890281981e-16
1.692900067e-16
1.518080311e-16
1.362909307e-16
1.224905726e-16
1.101947057e-16
9.922103494e-17
8.941239116e-17
8.063277823e-17
7.276411984e-17
6.570356919e-17
5.93612747e-17
5.365851546e-17
4.852613891e-17
4.390324628e-17
3.973608222e-17
3.597709337e-17
3.258412702e-17
2.951974664e-17
2.675064509e-17
2.424714053e-17
2.198274092e-17
1.993376778e-17
1.80790293e-17
1.6399536e-17
1.487825244e-17
1.349988016e-17
1.225066719e-17
1.111824062e-17
1.009145907e-17
9.16028241e-18
8.315656539e-18
7.549411248e-18
6.854169512e-18
6.223266808e-18
5.650679276e-18
5.130959557e-18
4.659179539e-18
4.230879098e-18
3.842020191e-18
3.488945698e-18
3.16834248e-18
2.877208167e-18
2.612821333e-18
2.372714593e-18
2.154650413e-18
1.956599303e-18
1.776720125e-18
1.613342342e-18
1.464949977e-18
1.330167112e-18
1.207744809e-18
1.096549245e-18
9.955510061e-19
9.038153759e-19
8.204935589e-19
7.448147197e-19
6.760787732e-19
6.136498558e-19
5.569503988e-19
5.054557631e-19
4.586893626e-19
4.162182474e-19
3.776491021e-19
3.426246012e-19
3.108201118e-19
2.819406938e-19
2.557183811e-19
2.319097175e-19
2.102935027e-19
1.906687691e-19
1.72852919e-19
1.566800571e-19
1.419994562e-19
1.286741702e-19
1.16579784e-19
1.056032577e-19
9.564189753e-20
8.660240416e-20
7.840001646e-20
7.095773445e-20
6.42056104e-20
5.80800974e-20
5.252347353e-20
4.748330692e-20
4.291197187e-20
3.876621002e-20
3.500672862e-20
3.159784224e-20
2.850714437e-20
2.570520326e-20
2.316528864e-20
2.086313166e-20
1.877669355e-20
1.688596269e-20
1.517277295e-20
1.362062866e-20
1.221455373e-20
1.094095835e-20
9.787499276e-21
8.742980608e-21
7.797233647e-21
6.941034297e-21
6.166011551e-21
5.464568673e-21
4.829813425e-21
4.255490289e-21
3.735924721e-21
3.26597338e-21
2.840967248e-21
2.45666798e-21
2.109240627e-21
1.795201232e-21
1.51139184e-21
1.25495124e-21
1.023284174e-21
8.140382713e-22
6.250805802e-22
4.544810515e-22
3.004881938e-22
1.615139565e-22
3.612350977e-23
0
0
0
0
0
0
0
0
0
0
0
0
0
0
0
0
0
0
0
0
0
0
0
0
0
0
0
0
0
0
0
0
0
0
0
0
0
0
0
0
0
0
0
0
0
0
0
0
0
0
0
0
0
0
0
0
0
0
0
0
0
0
0
0
0
0
0
0
0
0
0
0
0
0
0
0
0
0
0
0
0
0
0
0
0
0
0
0
0
0
0
0
0
0
0
0
0
0
0
0
0
0
0
0
0
0
0
0
0
0
0
0
0
0
0
0
0
0
0
0
0
0
0
0
0
0
0
0
0
0
0
0
0
0
0
0
0
0
0
0
0
0
0
0
0
0
0
0
0
0
0
0
0
0
0
0
0
0
0
0
0
0
0
0
0
0
0
0
0
0
0
0
0
0
0
0
0
0
0
0
0
0
0
0
0
0
0
0
0
0
0
0
0
0
0
0
0
0
0
0
0
0
0
0
0
0
0
0
0
0
0
0
0
0
0
0
0
0
0
0
0
0
0
0
0
0
0
0
0
0
0
0
0
0
0
0
0
0
0
0
0
0
0
0
0
0
0
0
0
0
0
0
0
0
0
0
0
0
0
0
0
0
0
0
0
5.530506181e-14
5.544815129e-14
5.572021239e-14
5.610831471e-14
5.6600329e-14
5.718517786e-14
5.785291258e-14
5.85947644e-14
5.940305429e-14
6.027114956e-14
6.119334284e-14
6.216485011e-14
6.318163342e-14
6.424035089e-14
6.533821324e-14
6.647300039e-14
6.764289693e-14
6.884659932e-14
7.008317068e-14
7.135192577e-14
7.265244902e-14
7.398445867e-14
7.534787994e-14
7.674280041e-14
7.816946439e-14
7.962824053e-14
8.131939435e-14
8.320103709e-14
8.512925325e-14
8.710547987e-14
8.913118264e-14
9.1207874e-14
9.333717239e-14
9.552081892e-14
9.776067647e-14
1.000586248e-13
1.024164039e-13
1.048359015e-13
1.073194248e-13
1.098693862e-13
1.124882552e-13
1.15178549e-13
1.179427331e-13
1.207833705e-13
1.237029685e-13
1.267039134e-13
1.297883907e-13
1.329579838e-13
1.362132834e-13
1.395526061e-13
1.429681161e-13
1.464665042e-13
1.500588952e-13
1.537518783e-13
1.575533911e-13
1.614693957e-13
1.655051863e-13
1.696658567e-13
1.739563726e-13
1.783817508e-13
1.829468442e-13
1.876571633e-13
1.925185529e-13
1.975372728e-13
2.027197577e-13
2.080724897e-13
2.14476168e-13
2.21682307e-13
2.29150004e-13
2.368906391e-13
2.449161014e-13
2.542138555e-13
2.726756525e-13
2.921214223e-13
3.125999962e-13
3.341624425e-13
3.56863065e-13
3.807583375e-13
4.059078903e-13
4.323767992e-13
4.602419635e-13
4.896054079e-13
5.205291977e-13
5.530830718e-13
5.873482166e-13
6.234161173e-13
6.613833864e-13
7.01352572e-13
7.434291781e-13
7.935563896e-13
8.487754921e-13
9.073498854e-13
9.694884247e-13
1.035410843e-12
1.10534461e-12
1.17953606e-12
1.258262158e-12
1.341776035e-12
1.430382931e-12
1.524348235e-12
1.623943904e-12
1.729558593e-12
1.841584623e-12
1.960414505e-12
2.097199482e-12
2.256044331e-12
2.425258773e-12
2.605392656e-12
2.797156088e-12
3.001230995e-12
3.251802425e-12
3.705219119e-12
4.196704667e-12
4.727846909e-12
5.299829641e-12
5.913426922e-12
6.613785348e-12
7.386128862e-12
8.205863156e-12
9.057164934e-12
9.969195795e-12
1.091680075e-11
1.195360453e-11
1.303412849e-11
1.423836691e-11
1.549431885e-11
1.691417535e-11
1.917508733e-11
2.238239483e-11
2.592580832e-11
3.015298691e-11
3.465820507e-11
4.003418659e-11
4.583051509e-11
5.297235702e-11
6.098139148e-11
7.576691526e-11
9.602438679e-11
1.23505871e-10
1.560908083e-10
1.985851091e-10
2.705468917e-10
3.748017069e-10
5.074371474e-10
7.26173411e-10
1.044948899e-09
1.533463736e-09
2.356252334e-09
3.703139681e-09
5.959663628e-09
1.02475207e-08
1.789455003e-08
3.339259126e-08
6.427389891e-08
1.326025221e-07
2.800954273e-07
6.351874101e-07
1.428116254e-06
3.253039145e-06
7.699336865e-06
1.951555493e-05
4.480353613e-05
6.998338904e-05
7.773358515e-05
7.204392209e-05
5.983953274e-05
4.536310995e-05
3.125794481e-05
1.947616831e-05
1.079177134e-05
5.080930289e-06
2.1139049e-06
7.231575903e-07
2.018704012e-07
4.733010415e-08
1.004316419e-08
1.916512239e-09
2.746114832e-10
4.908300834e-11
1.229317858e-11
3.0767282e-12
1.060502731e-12
5.651727928e-13
2.079948033e-13
1.040362545e-13
7.363526758e-14
5.013606423e-14
3.197298087e-14
1.760393503e-14
6.827087432e-15
5.72977439e-15
4.819368188e-15
4.065572711e-15
3.438082033e-15
2.912731701e-15
2.471998428e-15
2.103085913e-15
1.795797239e-15
1.540211284e-15
1.327145905e-15
1.148725995e-15
9.985018808e-16
8.712995079e-16
7.629956563e-16
6.703029926e-16
5.905897572e-16
5.217354692e-16
4.620194812e-16
4.100361431e-16
3.64629493e-16
3.248429538e-16
2.898800935e-16
2.590742975e-16
2.31864716e-16
2.077771952e-16
1.864090562e-16
1.674168512e-16
1.505064865e-16
1.35425161e-16
1.219547939e-16
1.099066132e-16
9.911669266e-17
8.944225111e-17
8.075856639e-17
7.295639796e-17
6.593982192e-17
5.962440572e-17
5.393566434e-17
4.880774918e-17
4.418233178e-17
4.000764927e-17
3.623768541e-17
3.283146595e-17
2.975245158e-17
2.696801106e-17
2.444896577e-17
2.216919211e-17
2.010527506e-17
1.823620518e-17
1.654311294e-17
1.500903536e-17
1.361871058e-17
1.235839636e-17
1.121570992e-17
1.017948591e-17
9.239650576e-18
8.387109759e-18
7.613649302e-18
6.911846375e-18
6.274990083e-18
5.697010763e-18
5.172416581e-18
4.696236763e-18
4.263970693e-18
3.871542222e-18
3.51525859e-18
3.191773552e-18
2.898054092e-18
2.631350544e-18
2.389169603e-18
2.169250013e-18
1.969540624e-18
1.788180579e-18
1.623481408e-18
1.473910879e-18
1.338078363e-18
1.214721608e-18
1.10269478e-18
1.000957632e-18
9.085656894e-19
8.246613806e-19
7.484659744e-19
6.792723043e-19
6.164381466e-19
5.593802313e-19
5.075688073e-19
4.60522715e-19
4.178049143e-19
3.790184266e-19
3.438026544e-19
3.118300406e-19
2.828030388e-19
2.564513553e-19
2.32529456e-19
2.108142946e-19
1.911032517e-19
1.732122667e-19
1.569741344e-19
1.422369681e-19
1.288627912e-19
1.167262697e-19
1.057135518e-19
9.572122038e-20
8.665533574e-20
7.843057211e-20
7.096942363e-20
6.420149663e-20
5.806285289e-20
5.249542341e-20
4.744646826e-20
4.286809015e-20
3.87167911e-20
3.495307181e-20
3.15410621e-20
2.844819158e-20
2.564488601e-20
2.310429413e-20
2.080203456e-20
1.871597647e-20
1.682602382e-20
1.511393641e-20
1.356316041e-20
1.215866352e-20
1.088680832e-20
9.735214408e-21
8.692647368e-21
7.748913178e-21
6.894764016e-21
6.121803867e-21
5.422419488e-21
4.789702327e-21
4.217387671e-21
3.699792383e-21
3.231759594e-21
2.808616605e-21
2.426123429e-21
2.080436068e-21
1.768070792e-21
1.485870636e-21
1.230969387e-21
1.000771305e-21
7.929273131e-22
6.05303884e-22
4.359705235e-22
2.831780218e-22
1.453418314e-22
2.10242946e-23
0
0
0
0
0
0
0
0
0
0
0
0
0
0
0
0
0
0
0
0
0
0
0
0
0
0
0
0
0
0
0
0
0
0
0
0
0
0
0
0
0
0
0
0
0
0
0
0
0
0
0
0
0
0
0
0
0
0
0
0
0
0
0
0
0
0
0
0
0
0
0
0
0
0
0
0
0
0
0
0
0
0
0
0
0
0
0
0
0
0
0
0
0
0
0
0
0
0
0
0
0
0
0
0
0
0
0
0
0
0
0
0
0
0
0
0
0
0
0
0
0
0
0
0
0
0
0
0
0
0
0
0
0
0
0
0
0
0
0
0
0
0
0
0
0
0
0
0
0
0
0
0
0
0
0
0
0
0
0
0
0
0
0
0
0
0
0
0
0
0
0
0
0
0
0
0
0
0
0
0
0
0
0
0
0
0
0
0
0
0
0
0
0
0
0
0
0
0
0
0
0
0
0
0
0
0
0
0
0
0
0
0
0
0
0
0
0
0
0
0
0
0
0
0
0
0
0
0
0
0
0
0
0
0
0
0
0
0
0
0
0
0
0
0
0
0
0
0
0
0
0
0
0
0
0
0
0
0
0
0
0
0
0
2.96200103e-13
2.969453694e-13
2.983559511e-13
3.003611423e-13
3.028967676e-13
3.059050962e-13
3.093347051e-13
3.13140328e-13
3.172824413e-13
3.217268732e-13
3.264443702e-13
3.314102975e-13
3.366040199e-13
3.420083849e-13
3.476091374e-13
3.533946026e-13
3.593554188e-13
3.654849863e-13
3.717786918e-13
3.782331387e-13
3.848461334e-13
3.916163575e-13
3.985432012e-13
4.056270798e-13
4.128695837e-13
4.202736535e-13
4.285779662e-13
4.376268572e-13
4.468898909e-13
4.56372588e-13
4.660812083e-13
4.760225381e-13
4.862038931e-13
4.966331793e-13
5.073190249e-13
5.182713488e-13
5.294966199e-13
5.410007583e-13
5.527958457e-13
5.648938596e-13
5.773061375e-13
5.900440165e-13
6.031187612e-13
6.165419123e-13
6.303252802e-13
6.444804522e-13
6.590184437e-13
6.739482684e-13
6.892775414e-13
7.050122574e-13
7.211593709e-13
7.377377355e-13
7.61999997e-13
8.058904453e-13
8.514333525e-13
8.987166965e-13
9.478247491e-13
9.988391065e-13
1.051841556e-12
1.106916106e-12
1.168453163e-12
1.233215792e-12
1.300844764e-12
1.371480739e-12
1.445264927e-12
1.522343353e-12
1.60286057e-12
1.686977913e-12
1.774869346e-12
1.866715065e-12
1.96270908e-12
2.063066496e-12
2.168029831e-12
2.277776383e-12
2.392519468e-12
2.512491538e-12
2.637940511e-12
2.769124865e-12
2.906309742e-12
3.049748376e-12
3.199752114e-12
3.371717609e-12
3.556449279e-12
3.750577365e-12
3.954590853e-12
4.169020739e-12
4.394431647e-12
4.631421085e-12
4.880621505e-12
5.142720928e-12
5.418421379e-12
5.708454494e-12
6.013750218e-12
6.335277601e-12
6.673867242e-12
7.036531713e-12
7.46238839e-12
7.912512927e-12
8.388347222e-12
8.891396267e-12
9.916653876e-12
1.105231906e-11
1.227362084e-11
1.358661482e-11
1.499651291e-11
1.650938283e-11
1.813405724e-11
2.001945139e-11
2.205108794e-11
2.423814193e-11
2.658990709e-11
2.911581948e-11
3.182394731e-11
3.472181887e-11
3.781627673e-11
4.111307926e-11
4.48893108e-11
4.897584307e-11
5.330169988e-11
5.975515093e-11
6.856081575e-11
7.804925438e-11
8.836326563e-11
9.951957505e-11
1.11724905e-10
1.253896294e-10
1.409537951e-10
1.580229423e-10
1.770509838e-10
1.980113863e-10
2.325746635e-10
2.74983236e-10
3.235401481e-10
3.822769837e-10
4.516333125e-10
5.331466355e-10
6.449023925e-10
8.201150996e-10
1.044864927e-09
1.31922007e-09
1.697198711e-09
2.29411818e-09
3.078695899e-09
4.179259772e-09
5.920811205e-09
8.270656799e-09
1.228525137e-08
1.82851765e-08
2.806187831e-08
4.453017221e-08
7.289763682e-08
1.225183423e-07
2.148170371e-07
3.872996336e-07
7.267022249e-07
1.400124737e-06
2.776099277e-06
5.583799734e-06
1.143783531e-05
2.399468298e-05
5.018116033e-05
9.170762165e-05
0.0001313629229
0.0001523597755
0.0001538299967
0.0001412171612
0.0001201165688
9.509577796e-05
6.965582839e-05
4.667139686e-05
2.822823523e-05
1.511204678e-05
6.859409935e-06
2.78295184e-06
9.124148675e-07
2.423674801e-07
5.881937724e-08
1.178219558e-08
2.006653338e-09
5.425129579e-10
9.404983639e-11
1.591105941e-11
5.815047956e-12
1.87361989e-12
6.608744091e-13
3.876094369e-13
1.756743463e-13
7.190458734e-14
5.283614115e-14
3.744383528e-14
2.493354659e-14
1.470977429e-14
6.335203664e-15
3.878231047e-15
3.310275888e-15
2.834894984e-15
2.436607268e-15
2.102581727e-15
1.821737031e-15
1.584638106e-15
1.383480571e-15
1.211950265e-15
1.06496677e-15
9.384355097e-16
8.290438635e-16
7.340995556e-16
6.513992893e-16
5.79126892e-16
5.157768461e-16
4.600937541e-16
4.110253551e-16
3.676843084e-16
3.293193256e-16
2.952914009e-16
2.65054734e-16
2.381413125e-16
2.141483019e-16
1.927278414e-16
1.735785219e-16
1.564383997e-16
1.410791603e-16
1.273012618e-16
1.14929867e-16
1.038114069e-16
9.381068996e-17
8.480844974e-17
7.669925678e-17
6.938973908e-17
6.279705553e-17
5.684758788e-17
5.147581364e-17
4.662333045e-17
4.22380115e-17
3.827327349e-17
3.468743621e-17
3.144316735e-17
2.85069939e-17
2.584887442e-17
2.344182325e-17
2.126157967e-17
1.928631586e-17
1.749637917e-17
1.587406302e-17
1.440340462e-17
1.307000487e-17
1.186086821e-17
1.076426009e-17
9.769579552e-18
8.867245924e-18
8.048596852e-18
7.305797657e-18
6.631759742e-18
6.020067543e-18
5.464912913e-18
4.961036199e-18
4.503673198e-18
4.088507578e-18
3.711627794e-18
3.369488507e-18
3.058875657e-18
2.776875017e-18
2.520843789e-18
2.288384984e-18
2.077324229e-18
1.885688883e-18
1.711689084e-18
1.553700651e-18
1.410249596e-18
1.279998122e-18
1.161731927e-18
1.05434874e-18
9.568478844e-19
8.683208944e-19
7.879429432e-19
7.149651127e-19
6.487073775e-19
5.885522405e-19
5.339389618e-19
4.843583233e-19
4.393478874e-19
3.984876816e-19
3.613962965e-19
3.277273358e-19
2.971662001e-19
2.694271604e-19
2.442507144e-19
2.214011706e-19
2.006644648e-19
1.818461803e-19
1.647697396e-19
1.492747698e-19
1.352156193e-19
1.224600063e-19
1.1088779e-19
1.003898634e-19
9.086713681e-20
8.22296242e-20
7.439560418e-20
6.729086618e-20
6.084802041e-20
5.500587345e-20
4.970885765e-20
4.490651895e-20
4.055304586e-20
3.660684556e-20
3.303015422e-20
2.978868879e-20
2.685132385e-20
2.418980764e-20
2.177849141e-20
1.959409353e-20
1.761548713e-20
1.582349127e-20
1.420070193e-20
1.273132618e-20
1.140102663e-20
1.019680211e-20
9.106848604e-21
8.12046122e-21
7.227925218e-21
6.420432651e-21
5.689989648e-21
5.029345294e-21
4.431927448e-21
3.891773395e-21
3.403477362e-21
2.962136685e-21
2.563308812e-21
2.202963778e-21
1.87744972e-21
1.583456617e-21
1.317986561e-21
1.078320669e-21
8.619960596e-22
6.66781251e-22
4.906559209e-22
3.317870283e-22
1.885187693e-22
5.93506837e-23
0
0
0
0
0
0
0
0
0
0
0
0
0
0
0
0
0
0
0
0
0
0
0
0
0
0
0
0
0
0
0
0
0
0
0
0
0
0
0
0
0
0
0
0
0
0
0
0
0
0
0
0
0
0
0
0
0
0
0
0
0
0
0
0
0
0
0
0
0
0
0
0
0
0
0
0
0
0
0
0
0
0
0
0
0
0
0
0
0
0
0
0
0
0
0
0
0
0
0
0
0
0
0
0
0
0
0
0
0
0
0
0
0
0
0
0
0
0
0
0
0
0
0
0
0
0
0
0
0
0
0
0
0
0
0
0
0
0
0
0
0
0
0
0
0
0
0
0
0
0
0
0
0
0
0
0
0
0
0
0
0
0
0
0
0
0
0
0
0
0
0
0
0
0
0
0
0
0
0
0
0
0
0
0
0
0
0
0
0
0
0
0
0
0
0
0
0
0
0
0
0
0
0
0
0
0
0
0
0
0
0
0
0
0
0
0
0
0
0
0
0
0
0
0
0
0
0
0
0
0
0
0
0
0
0
0
0
0
0
0
0
0
0
0
0
0
0
0
0
0
0
0
0
0
0
0
0
0
0
0
0
9.618862743e-13
9.642719102e-13
9.687726971e-13
9.751527341e-13
9.832024234e-13
9.927358133e-13
1.003588829e-12
1.015617706e-12
1.028697333e-12
1.042719626e-12
1.057592137e-12
1.073237456e-12
1.089591077e-12
1.106599363e-12
1.124217722e-12
1.142408787e-12
1.161138548e-12
1.180389952e-12
1.20015019e-12
1.220409088e-12
1.241159784e-12
1.262398228e-12
1.284122335e-12
1.306330447e-12
1.329027889e-12
1.35222724e-12
1.375942479e-12
1.400183993e-12
1.424960839e-12
1.450285404e-12
1.47617221e-12
1.502637381e-12
1.529698405e-12
1.55737403e-12
1.58568406e-12
1.618345309e-12
1.652061485e-12
1.72987178e-12
1.821604534e-12
1.916469026e-12
2.0145808e-12
2.116057528e-12
2.221018837e-12
2.329588337e-12
2.441896806e-12
2.55809486e-12
2.67833534e-12
2.802688668e-12
2.931260104e-12
3.064166792e-12
3.201551874e-12
3.34362282e-12
3.490652512e-12
3.642925989e-12
3.800661219e-12
3.964110915e-12
4.133534997e-12
4.309183395e-12
4.491312637e-12
4.680190682e-12
4.87609328e-12
5.086108186e-12
5.314386851e-12
5.552007746e-12
5.799396976e-12
6.057023371e-12
6.325452905e-12
6.605099313e-12
6.896411248e-12
7.199916404e-12
7.516190624e-12
7.845852845e-12
8.189546937e-12
8.547896838e-12
8.921560458e-12
9.311242028e-12
9.717690026e-12
1.014169164e-11
1.05840745e-11
1.107041382e-11
1.16060035e-11
1.216662436e-11
1.27536322e-11
1.336843084e-11
1.401236645e-11
1.468704612e-11
1.539413437e-11
1.613536735e-11
1.691256994e-11
1.772766576e-11
1.858269599e-11
2.003477645e-11
2.205217333e-11
2.427387513e-11
2.664563824e-11
2.917646031e-11
3.187580226e-11
3.475475618e-11
3.782484356e-11
4.109842518e-11
4.458942425e-11
4.831176908e-11
5.234395657e-11
5.693243952e-11
6.184299528e-11
6.709625308e-11
7.27143672e-11
7.87213648e-11
8.514006309e-11
9.199602039e-11
9.931434148e-11
1.077588916e-10
1.169509447e-10
1.303560894e-10
1.486566841e-10
1.684636382e-10
1.898538141e-10
2.128895642e-10
2.382003843e-10
2.666996085e-10
2.974939342e-10
3.307940744e-10
3.669352547e-10
4.062044926e-10
4.490561377e-10
5.083319632e-10
5.951084095e-10
6.919283504e-10
8.004067577e-10
9.219585998e-10
1.058933131e-09
1.218676606e-09
1.409001654e-09
1.714560377e-09
2.076976165e-09
2.516190635e-09
3.067267036e-09
3.743232528e-09
4.824539026e-09
6.198587139e-09
7.93223098e-09
1.053544075e-08
1.414191247e-08
1.897298865e-08
2.660686323e-08
3.707109769e-08
5.35411037e-08
7.828134471e-08
1.169239166e-07
1.793516563e-07
2.816506076e-07
4.524207956e-07
7.455672317e-07
1.252683108e-06
2.154730345e-06
3.783675489e-06
6.771837545e-06
1.236401797e-05
2.311798974e-05
4.408594506e-05
8.233938423e-05
0.0001388252439
0.0001999469142
0.0002460118439
0.0002669203631
0.00026304905
0.0002403469836
0.0002062330213
0.0001675316587
0.0001285258505
9.231881655e-05
6.115583906e-05
3.670549589e-05
1.960989103e-05
9.096170703e-06
3.653918194e-06
1.244429228e-06
3.850692618e-07
1.029356311e-07
2.455149951e-08
5.089897754e-09
8.377264248e-10
1.910332592e-10
4.831622127e-11
6.709545114e-12
3.641981119e-12
1.216547109e-12
4.595921537e-13
2.836286659e-13
1.408707984e-13
5.52469798e-14
4.199729947e-14
3.09225903e-14
2.162297474e-14
1.377648867e-14
7.132911612e-15
3.018742407e-15
2.631984817e-15
2.302527147e-15
2.020647859e-15
1.778333539e-15
1.569120057e-15
1.387769193e-15
1.229991483e-15
1.092254626e-15
9.716445377e-16
8.657392792e-16
7.725080831e-16
6.902422738e-16
6.174961221e-16
5.530429213e-16
4.958332398e-16
4.449680576e-16
3.996740113e-16
3.592834401e-16
3.232181064e-16
2.909754261e-16
2.621176674e-16
2.362624096e-16
2.130747767e-16
1.922608098e-16
1.735618998e-16
1.567501096e-16
1.416241116e-16
1.280057694e-16
1.157372031e-16
1.04678256e-16
9.470432867e-17
8.570448798e-17
7.757984155e-17
7.024212702e-17
6.361247451e-17
5.762033215e-17
5.220252537e-17
4.730242899e-17
4.286924753e-17
3.885737575e-17
3.52258362e-17
3.193778287e-17
2.896006238e-17
2.626282493e-17
2.381918007e-17
2.160488849e-17
1.959809014e-17
1.777906076e-17
1.612999532e-17
1.46348145e-17
1.327899144e-17
1.204939758e-17
1.093416321e-17
9.922553888e-18
9.004858769e-18
8.17229053e-18
7.416895466e-18
6.731472662e-18
6.109501157e-18
5.545074704e-18
5.032842442e-18
4.567955987e-18
4.146021387e-18
3.763055884e-18
3.415448885e-18
3.09992673e-18
2.813520811e-18
2.553538869e-18
2.317538945e-18
2.103305891e-18
1.908830094e-18
1.732288243e-18
1.572025909e-18
1.426541804e-18
1.294473458e-18
1.174584365e-18
1.065752218e-18
9.669583246e-19
8.772779859e-19
7.958717876e-19
7.219777069e-19
6.549039315e-19
5.940223921e-19
5.387628535e-19
4.88607585e-19
4.430865103e-19
4.01772814e-19
3.64278951e-19
3.302530342e-19
2.993755424e-19
2.713563453e-19
2.45931998e-19
2.22863287e-19
2.019329977e-19
1.829438926e-19
1.657168811e-19
1.500893392e-19
1.359136077e-19
1.230556097e-19
1.113936073e-19
1.008170647e-19
9.122562026e-20
8.252815154e-20
7.464192865e-20
6.749183995e-20
6.100969248e-20
5.513358017e-20
4.980730314e-20
4.497984304e-20
4.060488819e-20
3.664039901e-20
3.304822053e-20
2.979371792e-20
2.684545755e-20
2.417491153e-20
2.175618879e-20
1.956579657e-20
1.758241468e-20
1.578669898e-20
1.416109852e-20
1.268968658e-20
1.135801694e-20
1.015298303e-20
9.062698283e-21
8.07637898e-21
7.184244692e-21
6.377427027e-21
5.647882224e-21
4.988317702e-21
4.392122418e-21
3.853300761e-21
3.366416547e-21
2.926545063e-21
2.529221013e-21
2.170399499e-21
1.84641375e-21
1.553940547e-21
1.289970052e-21
1.051776462e-21
8.368899546e-22
6.430732733e-22
4.683004248e-22
3.107397586e-22
1.687305371e-22
4.076910656e-23
0
0
0
0
0
0
0
0
0
0
0
0
0
0
0
0
0
0
0
0
0
0
0
0
0
0
0
0
0
0
0
0
0
0
0
0
0
0
0
0
0
0
0
0
0
0
0
0
0
0
0
0
0
0
0
0
0
0
0
0
0
0
0
0
0
0
0
0
0
0
0
0
0
0
0
0
0
0
0
0
0
0
0
0
0
0
0
0
0
0
0
0
0
0
0
0
0
0
0
0
0
0
0
0
0
0
0
0
0
0
0
0