/*--------------------------------*- C++ -*----------------------------------*\
| =========                 |                                                 |
| \\      /  F ield         | OpenFOAM: The Open Source CFD Toolbox           |
|  \\    /   O peration     | Version:  v2006                                 |
|   \\  /    A nd           | Website:  www.openfoam.com                      |
|    \\/     M anipulation  |                                                 |
\*---------------------------------------------------------------------------*/
FoamFile
{
    version     2.0;
    format      ascii;
    class       volScalarField;
    location    "0.1";
    object      CH3O2H;
}
// * * * * * * * * * * * * * * * * * * * * * * * * * * * * * * * * * * * * * //

dimensions      [0 0 0 0 0 0 0];


internalField   nonuniform List<scalar> 
72000
(
5.442902463e-13
5.442968395e-13
5.443094514e-13
5.44327381e-13
5.443499919e-13
5.443767137e-13
5.444070337e-13
5.444405208e-13
5.444767818e-13
5.445154917e-13
5.445563638e-13
5.445991611e-13
5.446436863e-13
5.44689772e-13
5.447372765e-13
5.447860896e-13
5.448361176e-13
5.448872794e-13
5.449395163e-13
5.449927777e-13
5.450470292e-13
5.451024524e-13
5.45158848e-13
5.452161581e-13
5.452743651e-13
5.453334598e-13
5.453934217e-13
5.454542604e-13
5.455159965e-13
5.455786428e-13
5.456422132e-13
5.457067224e-13
5.457721881e-13
5.458386292e-13
5.459060688e-13
5.459745248e-13
5.460440033e-13
5.461145114e-13
5.461860712e-13
5.462587127e-13
5.463324634e-13
5.464073488e-13
5.464833884e-13
5.465606e-13
5.466389865e-13
5.467185463e-13
5.467992516e-13
5.468810168e-13
5.469636858e-13
5.470470139e-13
5.471357479e-13
5.472278994e-13
5.473210209e-13
5.474153705e-13
5.4751117e-13
5.476085698e-13
5.477076644e-13
5.478085485e-13
5.479112811e-13
5.480159372e-13
5.481225906e-13
5.482312269e-13
5.483419162e-13
5.484546801e-13
5.485696069e-13
5.486884339e-13
5.488246845e-13
5.489638197e-13
5.491059878e-13
5.492512707e-13
5.493997214e-13
5.49551317e-13
5.497059878e-13
5.498640304e-13
5.500256576e-13
5.501909633e-13
5.503600687e-13
5.505330829e-13
5.507101622e-13
5.50891452e-13
5.510771379e-13
5.512674553e-13
5.514625465e-13
5.516625009e-13
5.518674284e-13
5.520774868e-13
5.522928352e-13
5.525136708e-13
5.52741395e-13
5.52975612e-13
5.532161056e-13
5.534632197e-13
5.537172779e-13
5.539786138e-13
5.542475365e-13
5.545244443e-13
5.548096613e-13
5.55103449e-13
5.554049213e-13
5.557155262e-13
5.560356983e-13
5.563659332e-13
5.567067774e-13
5.570586307e-13
5.574219958e-13
5.577973292e-13
5.581851815e-13
5.585860622e-13
5.590005929e-13
5.594290013e-13
5.598722941e-13
5.60330444e-13
5.608041514e-13
5.612979062e-13
5.618165485e-13
5.628635142e-13
5.606417342e-13
5.755929345e-13
5.305768996e-13
6.179578321e-13
5.297325118e-13
6.660409745e-13
5.288904193e-13
7.194166926e-13
5.280172619e-13
7.765594073e-13
5.269147133e-13
8.394242566e-13
5.260318915e-13
9.115105634e-13
5.248473749e-13
9.959614065e-13
5.234436036e-13
1.103620098e-12
5.207974787e-13
1.304100554e-12
5.186627127e-13
1.370874017e-12
5.151899204e-13
1.427708607e-12
5.125480368e-13
1.497655054e-12
5.134564999e-13
1.610454071e-12
5.209208595e-13
1.76246643e-12
5.302403352e-13
1.946997373e-12
5.296991262e-13
2.285034022e-12
5.210934019e-13
2.616837091e-12
5.070442428e-13
3.56200748e-12
4.82475698e-13
4.162706234e-12
4.3248613e-13
3.886225207e-13
3.286204785e-13
2.653549372e-11
5.161219863e-13
1.579309391e-05
0.0005170099652
0.001026860223
0.001061787882
0.001044902103
0.001024373016
0.0009960961911
0.0009548785589
0.0008995001746
0.0008296821258
0.0007537529023
0.0006795300217
0.0006053313805
0.0005323656302
0.0004695204808
0.0004135945882
0.0003625796731
0.0003167486365
0.0002782691514
0.0002446361905
0.0002155445336
0.0001901359199
0.0001684507172
0.0001491976266
0.0001324437364
0.0001178995907
0.0001053230754
9.452571955e-05
8.504270568e-05
7.673745598e-05
6.947820056e-05
6.294874453e-05
5.703783584e-05
5.162525505e-05
4.649005463e-05
4.144481423e-05
3.681302536e-05
3.268385492e-05
2.904908126e-05
2.586317714e-05
2.307082019e-05
2.061854623e-05
1.845889902e-05
1.655125806e-05
1.486135085e-05
1.336035834e-05
1.202399475e-05
1.083169755e-05
9.765956531e-06
8.811772571e-06
7.956224788e-06
7.188125111e-06
6.49774061e-06
5.876568758e-06
5.317154165e-06
4.812937865e-06
4.358132413e-06
3.947617529e-06
3.576852363e-06
3.241801261e-06
2.938870589e-06
2.664854687e-06
2.416889418e-06
2.192412073e-06
1.989126625e-06
1.804973506e-06
1.638103225e-06
1.486853277e-06
1.349727869e-06
1.225380076e-06
1.112596086e-06
1.010281278e-06
9.174478742e-07
8.332039805e-07
7.567438401e-07
6.873391452e-07
6.24331288e-07
5.671244339e-07
5.151793264e-07
4.680077369e-07
4.251674871e-07
3.86257982e-07
3.509161955e-07
3.18813061e-07
2.896502223e-07
2.631571072e-07
2.390882904e-07
2.172211136e-07
1.973535394e-07
1.793022116e-07
1.629007037e-07
1.479979352e-07
1.344567394e-07
1.221525676e-07
1.109723164e-07
1.008132665e-07
9.158212007e-08
8.319413012e-08
7.557231123e-08
6.864672342e-08
6.235382398e-08
5.663587875e-08
5.14404283e-08
4.671980448e-08
4.243069046e-08
3.85337226e-08
3.499312817e-08
3.177639728e-08
2.885398424e-08
2.619903685e-08
2.378715063e-08
2.159614511e-08
1.960586131e-08
1.779797713e-08
1.615583973e-08
1.466431384e-08
1.330964319e-08
1.207932496e-08
1.096199567e-08
9.947327294e-09
9.025933278e-09
8.18928242e-09
7.429621454e-09
6.739903862e-09
6.113726004e-09
5.545268054e-09
5.029241133e-09
4.560839161e-09
4.13569461e-09
3.749838741e-09
3.399665101e-09
3.081896875e-09
2.793556638e-09
2.531939159e-09
2.294586481e-09
2.079265456e-09
1.883947434e-09
1.706789381e-09
1.546117075e-09
1.400409602e-09
1.268285447e-09
1.148489892e-09
1.039883348e-09
9.414306695e-10
8.521919665e-10
7.713135173e-10
6.98020215e-10
6.316082936e-10
5.714386692e-10
5.169310625e-10
4.675588686e-10
4.22843851e-10
3.823520516e-10
3.45689399e-10
3.124983713e-10
2.82454384e-10
2.552631178e-10
2.306573398e-10
2.083945951e-10
1.8825491e-10
1.700387037e-10
1.53565143e-10
1.386698507e-10
1.252040535e-10
1.130327787e-10
1.020334695e-10
9.209536137e-11
8.311762414e-11
7.500915701e-11
6.768727022e-11
6.107700807e-11
5.5110432e-11
4.972613512e-11
4.486842651e-11
4.048672127e-11
3.653520254e-11
3.297261103e-11
2.97614939e-11
2.686791203e-11
2.426113806e-11
2.19133556e-11
1.979935219e-11
1.789637895e-11
1.618395566e-11
1.464341203e-11
1.325786311e-11
1.201214276e-11
1.089247023e-11
9.886348815e-12
8.982672069e-12
8.171298361e-12
7.443052861e-12
6.789605376e-12
6.203499902e-12
5.677974383e-12
5.206865497e-12
4.784812836e-12
4.406771857e-12
4.068301149e-12
3.765313951e-12
3.494445936e-12
3.252194281e-12
3.035770074e-12
2.842357578e-12
2.669563228e-12
2.515478436e-12
2.377986703e-12
2.255481419e-12
2.146213163e-12
2.048935912e-12
1.962304814e-12
1.885180747e-12
1.816579668e-12
1.755609644e-12
1.701470176e-12
1.653439748e-12
1.610707468e-12
1.572749761e-12
1.539119123e-12
1.509390382e-12
1.483125693e-12
1.459940224e-12
1.439392942e-12
1.421336933e-12
1.405317493e-12
1.39117894e-12
1.378716542e-12
1.367730306e-12
1.358043074e-12
1.34946711e-12
1.342001102e-12
1.3353507e-12
1.329593707e-12
1.32447499e-12
1.319967575e-12
1.316026455e-12
1.312703637e-12
1.30973442e-12
1.30715153e-12
1.304917647e-12
1.303064886e-12
1.301342466e-12
1.299816697e-12
1.298457782e-12
1.297277177e-12
1.296250308e-12
1.295349312e-12
1.294617804e-12
1.293982263e-12
1.293422874e-12
1.292957081e-12
1.292578013e-12
1.292319649e-12
1.292210244e-12
1.292018173e-12
1.291776394e-12
1.291481573e-12
1.291375596e-12
1.291157057e-12
1.291114802e-12
1.291052247e-12
1.290912178e-12
1.290727207e-12
1.290501216e-12
1.290461213e-12
1.290538216e-12
1.290505385e-12
1.290446484e-12
1.290308366e-12
1.290161239e-12
1.290226204e-12
1.290199301e-12
1.290111427e-12
1.28991663e-12
1.289850437e-12
1.289833533e-12
1.28989477e-12
1.289863973e-12
1.289997146e-12
1.290000153e-12
1.28994858e-12
1.289902378e-12
1.289993688e-12
1.289960178e-12
1.289874118e-12
1.2897352e-12
1.28976707e-12
1.289720393e-12
1.289720937e-12
1.289776854e-12
1.289950843e-12
1.290006148e-12
1.289960154e-12
1.289796672e-12
1.289803505e-12
1.289973666e-12
1.29008042e-12
1.290137088e-12
1.290129059e-12
1.290097677e-12
1.290005241e-12
1.290044224e-12
1.289999468e-12
1.289823949e-12
1.289742132e-12
1.289780696e-12
1.289934116e-12
1.289882552e-12
1.289887339e-12
1.29002165e-12
1.290086989e-12
1.290103744e-12
1.290046224e-12
1.290074363e-12
1.290237941e-12
1.290223578e-12
1.290296056e-12
1.290182872e-12
1.29017018e-12
1.290241949e-12
1.290185097e-12
1.290322108e-12
1.290421012e-12
1.290445686e-12
1.290392943e-12
1.290232971e-12
1.290201202e-12
1.290013479e-12
1.289967387e-12
1.290031573e-12
1.290012188e-12
1.289859896e-12
1.289815224e-12
1.289860204e-12
1.289786569e-12
1.289796631e-12
1.289929551e-12
1.28989459e-12
1.289992203e-12
1.289921379e-12
1.290000538e-12
1.290025087e-12
1.289976099e-12
1.290100335e-12
1.290149126e-12
1.290163794e-12
1.290100124e-12
1.290109323e-12
1.290160925e-12
1.290144948e-12
1.290266665e-12
1.290211581e-12
1.290215659e-12
1.290267347e-12
1.290131616e-12
1.29010292e-12
1.290114903e-12
1.290250633e-12
1.290286036e-12
1.290166172e-12
1.290136406e-12
1.290138743e-12
1.290218597e-12
1.290157796e-12
1.290048896e-12
1.290061505e-12
1.290113497e-12
1.290238609e-12
1.290258649e-12
1.290167144e-12
1.290085231e-12
1.290200087e-12
1.290191151e-12
1.290360851e-12
1.290419635e-12
1.290365372e-12
1.290498458e-12
1.290503802e-12
1.290379358e-12
1.29043703e-12
1.290436334e-12
1.290368213e-12
1.290177247e-12
1.29012261e-12
1.290177846e-12
1.290357512e-12
1.290372958e-12
1.290269669e-12
1.290211748e-12
1.290273345e-12
1.29018517e-12
1.289936674e-12
1.289770133e-12
1.289720255e-12
1.289720241e-12
1.289749996e-12
1.289891043e-12
1.289845256e-12
1.289874633e-12
1.289941934e-12
1.290043556e-12
1.289984772e-12
1.289932776e-12
1.289965633e-12
1.290071009e-12
1.290288708e-12
1.290390925e-12
1.290368199e-12
1.290184291e-12
1.290072151e-12
1.290019979e-12
1.289998534e-12
1.290007498e-12
1.28979599e-12
1.28972727e-12
1.289719853e-12
1.289825441e-12
1.289813542e-12
1.289739727e-12
1.289843186e-12
1.289762203e-12
1.289729693e-12
1.289793281e-12
1.289736972e-12
1.289790176e-12
1.289858965e-12
1.289943385e-12
1.289810897e-12
1.289738253e-12
1.289771026e-12
1.289950705e-12
1.290001486e-12
1.28994614e-12
1.289808184e-12
1.289756776e-12
1.289825123e-12
1.28972282e-12
1.289720106e-12
1.289721944e-12
3.867523899e-12
3.874153281e-12
3.886804231e-12
3.904863303e-12
3.927745414e-12
3.954919693e-12
3.985904339e-12
4.020283007e-12
4.05768865e-12
4.097808717e-12
4.140368841e-12
4.18514415e-12
4.231944689e-12
4.280610467e-12
4.331010293e-12
4.383037555e-12
4.436602044e-12
4.491641534e-12
4.548107218e-12
4.605960305e-12
4.665176641e-12
4.725735152e-12
4.787623553e-12
4.850836296e-12
4.915378332e-12
4.9812544e-12
5.048469958e-12
5.117052593e-12
5.187037838e-12
5.258462476e-12
5.331364233e-12
5.405782487e-12
5.481758922e-12
5.5593361e-12
5.638564971e-12
5.719492575e-12
5.802157325e-12
5.886599807e-12
5.972877759e-12
6.061055242e-12
6.151195267e-12
6.243361589e-12
6.33761302e-12
6.434011151e-12
6.532607772e-12
6.633445481e-12
6.736544129e-12
6.841885496e-12
6.949381664e-12
7.058832154e-12
7.174439298e-12
7.294716624e-12
7.417632884e-12
7.543517641e-12
7.672653804e-12
7.805262216e-12
7.941522287e-12
8.081600651e-12
8.225651878e-12
8.373828805e-12
8.526285799e-12
8.683173804e-12
8.844662321e-12
9.010917601e-12
9.182104483e-12
9.358350364e-12
9.539744446e-12
9.726730912e-12
9.919515936e-12
1.011832878e-11
1.032338434e-11
1.053483692e-11
1.075270933e-11
1.097754307e-11
1.120970012e-11
1.144949066e-11
1.169726065e-11
1.195331607e-11
1.22180102e-11
1.249175014e-11
1.277498927e-11
1.306824917e-11
1.337192776e-11
1.368644586e-11
1.401223368e-11
1.4349812e-11
1.469968319e-11
1.506239348e-11
1.54672183e-11
1.589077317e-11
1.633117709e-11
1.678938177e-11
1.726638548e-11
1.776319288e-11
1.8280907e-11
1.88206079e-11
1.938349953e-11
1.997069138e-11
2.129523563e-11
2.271861952e-11
2.422358303e-11
2.581555448e-11
2.75003351e-11
2.928362666e-11
3.117110009e-11
3.316875268e-11
3.528335133e-11
3.752183387e-11
3.991592333e-11
4.256672208e-11
4.538303587e-11
4.837138168e-11
5.15398443e-11
5.489113511e-11
5.841742926e-11
6.211030567e-11
6.598831866e-11
6.994652105e-11
7.432615608e-11
7.784929121e-11
8.265759905e-11
8.599883579e-11
9.149518813e-11
9.482835477e-11
1.012572233e-10
1.046996623e-10
1.143255766e-10
1.224292697e-10
1.430125487e-10
1.51902899e-10
1.767450042e-10
1.863504936e-10
2.162445171e-10
2.266706441e-10
2.634915469e-10
2.758323595e-10
3.294448353e-10
3.542425981e-10
4.375756788e-10
5.072084023e-10
7.034912974e-10
8.233661028e-10
1.117177994e-09
1.306459111e-09
1.968221783e-09
2.411839669e-09
3.587216867e-09
4.546223257e-09
7.628705921e-09
1.016634252e-08
1.839179685e-08
2.683845456e-08
5.248485101e-08
8.050461495e-08
1.728049336e-07
2.904890152e-07
7.028290729e-07
1.320372233e-06
2.423095083e-06
4.826941403e-06
1.914300765e-05
0.0001638665912
0.0006251144017
0.0008509790387
0.0008777981368
0.0008664270044
0.0008504147999
0.0008298664332
0.0008009945218
0.0007618537145
0.0007122343736
0.0006596969106
0.0006035963367
0.0005447501873
0.000488893724
0.0004374615764
0.0003885525197
0.0003444050876
0.0003047497973
0.0002707454947
0.0002401842983
0.0002123607154
0.0001886383886
0.0001684244647
0.0001509832979
0.0001349054173
0.0001201942262
0.0001075726749
9.648942331e-05
8.670945664e-05
7.806811395e-05
7.036851739e-05
6.339024309e-05
5.703771771e-05
5.116929456e-05
4.573175024e-05
4.073831335e-05
3.624738191e-05
3.22656686e-05
2.875823033e-05
2.567354263e-05
2.295803941e-05
2.056239901e-05
1.844351437e-05
1.656454945e-05
1.48942768e-05
1.340623184e-05
1.207791158e-05
1.089009012e-05
9.826254287e-06
8.872146863e-06
8.015397592e-06
7.245226823e-06
6.552203718e-06
5.928048263e-06
5.365467903e-06
4.85802169e-06
4.400006601e-06
3.986361499e-06
3.612585787e-06
3.274669917e-06
2.969035859e-06
2.692485823e-06
2.442157888e-06
2.21548751e-06
2.010173974e-06
1.824151085e-06
1.655561478e-06
1.502734029e-06
1.364163971e-06
1.238495325e-06
1.124505345e-06
1.021090735e-06
9.272554059e-07
8.420995656e-07
7.648100189e-07
6.946514933e-07
6.309588921e-07
5.731303621e-07
5.206210838e-07
4.729377014e-07
4.296333253e-07
3.903030384e-07
3.545798578e-07
3.221311007e-07
2.926551099e-07
2.658783043e-07
2.415525176e-07
2.194525989e-07
1.993742434e-07
1.811320351e-07
1.645576778e-07
1.494983936e-07
1.35815476e-07
1.233829807e-07
1.120865386e-07
1.018222835e-07
9.249587877e-08
8.402163613e-08
7.632171777e-08
6.932541197e-08
6.296847713e-08
5.719254639e-08
5.194458752e-08
4.717641389e-08
4.284423934e-08
3.890827542e-08
3.533236485e-08
3.208364963e-08
2.913226907e-08
2.645108576e-08
2.401543709e-08
2.180290895e-08
1.979313085e-08
1.796758912e-08
1.630945759e-08
1.480344411e-08
1.343565029e-08
1.219344474e-08
1.106534741e-08
1.004092481e-08
9.110694918e-09
8.266040019e-09
7.499128609e-09
6.802843187e-09
6.170715816e-09
5.596868593e-09
5.075959893e-09
4.603135936e-09
4.17398585e-09
3.784501799e-09
3.431041954e-09
3.11029722e-09
2.819261079e-09
2.555201996e-09
2.315638e-09
2.098314376e-09
1.901182802e-09
1.722382501e-09
1.560223143e-09
1.413169164e-09
1.279825858e-09
1.158926583e-09
1.049320849e-09
9.499636428e-10
8.599061571e-10
7.78286682e-10
7.043227034e-10
6.373038635e-10
5.765850463e-10
5.215805203e-10
4.717588078e-10
4.266370681e-10
3.857774106e-10
3.487820176e-10
3.152900636e-10
2.849740784e-10
2.575368629e-10
2.327087764e-10
2.102450534e-10
1.89923663e-10
1.715434045e-10
1.549215836e-10
1.398923116e-10
1.263055914e-10
1.140250769e-10
1.029271923e-10
9.289999498e-11
8.384193109e-11
7.566095115e-11
6.827358219e-11
6.160432719e-11
5.558464362e-11
5.015237178e-11
4.525139661e-11
4.083067668e-11
3.68440903e-11
3.324989489e-11
3.00103432e-11
2.709116502e-11
2.44613621e-11
2.209278008e-11
1.996007601e-11
1.804038819e-11
1.631280563e-11
1.475871502e-11
1.336106929e-11
1.210438365e-11
1.097490688e-11
9.960035708e-12
9.04845747e-12
8.230046818e-12
7.49541885e-12
6.83628066e-12
6.244987094e-12
5.714889209e-12
5.239731583e-12
4.814051458e-12
4.432768476e-12
4.091336984e-12
3.78588117e-12
3.512650781e-12
3.268283993e-12
3.050041931e-12
2.855029913e-12
2.680759985e-12
2.525396746e-12
2.386731879e-12
2.263193304e-12
2.153018502e-12
2.054915402e-12
1.967580331e-12
1.889830952e-12
1.820626172e-12
1.759219144e-12
1.704559818e-12
1.656115832e-12
1.613012675e-12
1.574838634e-12
1.541004623e-12
1.511089815e-12
1.484586675e-12
1.46121919e-12
1.440516602e-12
1.42227164e-12
1.406107849e-12
1.391850236e-12
1.379281505e-12
1.368158985e-12
1.358395055e-12
1.349774155e-12
1.342283689e-12
1.335567211e-12
1.329748267e-12
1.324657313e-12
1.32017816e-12
1.316212314e-12
1.312830762e-12
1.309824333e-12
1.307277626e-12
1.305011617e-12
1.303099299e-12
1.30134766e-12
1.299806587e-12
1.29844906e-12
1.297278264e-12
1.296301003e-12
1.29534292e-12
1.294673153e-12
1.294044978e-12
1.293487677e-12
1.293008649e-12
1.292619376e-12
1.292325489e-12
1.292125357e-12
1.291908275e-12
1.29168263e-12
1.291459703e-12
1.291325553e-12
1.29115919e-12
1.291123091e-12
1.29099494e-12
1.290783664e-12
1.290621504e-12
1.29048527e-12
1.29046219e-12
1.290484298e-12
1.290395459e-12
1.29035734e-12
1.29018203e-12
1.290106796e-12
1.290169883e-12
1.290092746e-12
1.290085955e-12
1.289931238e-12
1.289911482e-12
1.289807414e-12
1.289820636e-12
1.289860252e-12
1.289978788e-12
1.290050886e-12
1.290017812e-12
1.289916751e-12
1.289955751e-12
1.289852475e-12
1.289764955e-12
1.289722871e-12
1.289722553e-12
1.289722221e-12
1.289787549e-12
1.289789608e-12
1.289924619e-12
1.289941806e-12
1.289907306e-12
1.289784821e-12
1.289799545e-12
1.289876617e-12
1.289979961e-12
1.290046487e-12
1.289997443e-12
1.289995218e-12
1.290032016e-12
1.289961832e-12
1.289964881e-12
1.289887907e-12
1.289780035e-12
1.289828494e-12
1.289974666e-12
1.289985326e-12
1.289906832e-12
1.289933704e-12
1.289969706e-12
1.29001307e-12
1.290086733e-12
1.290089737e-12
1.29025009e-12
1.29029806e-12
1.290308748e-12
1.29025535e-12
1.290239402e-12
1.290219708e-12
1.29014699e-12
1.290196868e-12
1.290334146e-12
1.290362187e-12
1.290341507e-12
1.290264661e-12
1.29019654e-12
1.29003257e-12
1.290018279e-12
1.28995806e-12
1.289985589e-12
1.28991446e-12
1.28987392e-12
1.289825628e-12
1.289866545e-12
1.289819045e-12
1.289940443e-12
1.289914751e-12
1.290005504e-12
1.289925034e-12
1.289920441e-12
1.289937726e-12
1.289954384e-12
1.29000621e-12
1.290041559e-12
1.290076754e-12
1.290189956e-12
1.290221255e-12
1.290206739e-12
1.290160478e-12
1.290282029e-12
1.290309416e-12
1.290317446e-12
1.290306744e-12
1.290190399e-12
1.290215354e-12
1.290147773e-12
1.290179933e-12
1.290277366e-12
1.290221923e-12
1.290240627e-12
1.290223259e-12
1.290209342e-12
1.290167494e-12
1.290083324e-12
1.290183931e-12
1.290202704e-12
1.290181812e-12
1.290208338e-12
1.290064879e-12
1.290035027e-12
1.290168131e-12
1.290170481e-12
1.290311154e-12
1.290377022e-12
1.290331024e-12
1.29046773e-12
1.290475746e-12
1.290355532e-12
1.290347447e-12
1.290339265e-12
1.290319741e-12
1.290204258e-12
1.290176382e-12
1.290203019e-12
1.29035161e-12
1.290400263e-12
1.290368867e-12
1.290257853e-12
1.290281361e-12
1.29017984e-12
1.290027437e-12
1.28981107e-12
1.289726177e-12
1.289741402e-12
1.28980176e-12
1.289928111e-12
1.289904703e-12
1.289997447e-12
1.290066181e-12
1.290043774e-12
1.2900919e-12
1.290010845e-12
1.290044926e-12
1.290122887e-12
1.290239315e-12
1.290363537e-12
1.290363523e-12
1.290269434e-12
1.290167844e-12
1.290149766e-12
1.290128391e-12
1.290054299e-12
1.289829958e-12
1.289736297e-12
1.289723159e-12
1.289783852e-12
1.289728253e-12
1.289726125e-12
1.289868192e-12
1.289865507e-12
1.289757787e-12
1.289751789e-12
1.289785635e-12
1.289938013e-12
1.290004144e-12
1.28999546e-12
1.289921493e-12
1.289771759e-12
1.289782419e-12
1.289935493e-12
1.289945444e-12
1.289869888e-12
1.289887914e-12
1.289800947e-12
1.28983915e-12
1.289758223e-12
1.289794395e-12
1.289775691e-12
1.367504275e-11
1.370068955e-11
1.374935534e-11
1.381861186e-11
1.390619812e-11
1.401006063e-11
1.41283631e-11
1.425949052e-11
1.440203248e-11
1.455477204e-11
1.471666412e-11
1.488683133e-11
1.506453392e-11
1.524915662e-11
1.544018451e-11
1.563720105e-11
1.583986461e-11
1.604792307e-11
1.6261188e-11
1.64795141e-11
1.67027988e-11
1.693096228e-11
1.71639565e-11
1.740176117e-11
1.764438603e-11
1.789186274e-11
1.814866282e-11
1.841397263e-11
1.868471405e-11
1.896102761e-11
1.92430569e-11
1.953095321e-11
1.982488249e-11
2.012502794e-11
2.043159045e-11
2.07447644e-11
2.10646937e-11
2.139153703e-11
2.172553202e-11
2.206693831e-11
2.241601469e-11
2.277301655e-11
2.313818745e-11
2.351177463e-11
2.389401086e-11
2.428510011e-11
2.468519029e-11
2.509431137e-11
2.551230517e-11
2.593859985e-11
2.637151092e-11
2.681204015e-11
2.726195363e-11
2.772216347e-11
2.8193778e-11
2.867753404e-11
2.917402965e-11
2.968380659e-11
3.020737905e-11
3.074526953e-11
3.129802369e-11
3.186612529e-11
3.245012546e-11
3.305063705e-11
3.366828817e-11
3.43036996e-11
3.49730808e-11
3.567273361e-11
3.639370394e-11
3.713687768e-11
3.790317006e-11
3.882347338e-11
4.093228346e-11
4.31239851e-11
4.54022978e-11
4.777109086e-11
5.023447633e-11
5.279671909e-11
5.54623395e-11
5.823638422e-11
6.112521154e-11
6.413814615e-11
6.72789158e-11
7.055203103e-11
7.396336355e-11
7.751973986e-11
8.122837802e-11
8.50968508e-11
8.913271636e-11
9.342116746e-11
9.79341779e-11
1.026588445e-10
1.076083203e-10
1.127961029e-10
1.18235642e-10
1.239419358e-10
1.299325761e-10
1.362208488e-10
1.428250078e-10
1.497588641e-10
1.570364926e-10
1.646825276e-10
1.727209414e-10
1.811748787e-10
1.901524809e-10
1.997090935e-10
2.097740804e-10
2.203733327e-10
2.315418994e-10
2.433133797e-10
2.582001102e-10
2.874170408e-10
3.1851115e-10
3.515557373e-10
3.86606319e-10
4.23707266e-10
4.630410516e-10
5.045426803e-10
5.480851112e-10
5.930191223e-10
6.406788796e-10
6.899161595e-10
7.430936706e-10
7.981823033e-10
8.585969504e-10
9.212459161e-10
9.907880147e-10
1.106073615e-09
1.268982401e-09
1.439278509e-09
1.631927518e-09
1.833484914e-09
2.064726534e-09
2.308976628e-09
2.596460705e-09
2.909513546e-09
3.492041767e-09
4.226910127e-09
5.129957451e-09
6.149461999e-09
7.40625211e-09
9.366345121e-09
1.206455692e-08
1.514449013e-08
1.973944984e-08
2.599129595e-08
3.408022418e-08
4.668683999e-08
6.44062599e-08
8.917859708e-08
1.284200252e-07
1.842530137e-07
2.707081463e-07
3.986434923e-07
6.002283502e-07
8.882381057e-07
1.362498796e-06
2.106232227e-06
3.60962423e-06
8.203107254e-06
2.980789454e-05
0.0001321302547
0.0003321164914
0.0004800250485
0.0005539942189
0.0005902407508
0.0006104275697
0.0006206225516
0.0006198782654
0.0006078301281
0.0005868800498
0.0005588672715
0.0005243693674
0.0004863003866
0.000447475218
0.0004081099258
0.0003696205754
0.000333588819
0.0003005932236
0.0002692387488
0.0002420343323
0.0002167666145
0.0001946327616
0.0001756939244
0.0001577095477
0.000141505383
0.0001273844783
0.0001151721248
0.0001043517232
9.464629237e-05
8.463521718e-05
7.563708948e-05
6.759654196e-05
6.039162731e-05
5.391216322e-05
4.808496035e-05
4.286723102e-05
3.823035894e-05
3.412964301e-05
3.050873028e-05
2.730964463e-05
2.447865337e-05
2.196829971e-05
1.973756112e-05
1.775128286e-05
1.597939595e-05
1.439611608e-05
1.297924177e-05
1.170957891e-05
1.057046232e-05
9.547364767e-06
8.627571882e-06
7.799922348e-06
7.054588684e-06
6.382894591e-06
5.777161771e-06
5.230580332e-06
4.737099249e-06
4.291332025e-06
3.88847619e-06
3.524243598e-06
3.194800261e-06
2.89671405e-06
2.626909055e-06
2.382625768e-06
2.161386177e-06
1.960963075e-06
1.779353052e-06
1.614752638e-06
1.465537229e-06
1.330242407e-06
1.207547351e-06
1.096260086e-06
9.953043801e-07
9.037080137e-07
8.205923629e-07
7.451630502e-07
6.767015911e-07
6.145579108e-07
5.581436364e-07
5.069260728e-07
4.604228002e-07
4.181968043e-07
3.798521084e-07
3.45029835e-07
3.134046602e-07
2.846816172e-07
2.58593213e-07
2.348968301e-07
2.13372374e-07
1.938201558e-07
1.760589738e-07
1.599243809e-07
1.452671178e-07
1.319516949e-07
1.19855109e-07
1.08865683e-07
9.888201243e-08
8.98120137e-08
8.15720608e-08
7.408620316e-08
6.728545658e-08
6.110716073e-08
5.549439581e-08
5.039545481e-08
4.576336356e-08
4.155544585e-08
3.773292887e-08
3.426058501e-08
3.110640672e-08
2.824131163e-08
2.563887432e-08
2.327508354e-08
2.112812101e-08
1.917816096e-08
1.7407188e-08
1.579883172e-08
1.43382164e-08
1.301182448e-08
1.180737252e-08
1.071369859e-08
9.72066005e-09
8.819040249e-09
8.000464354e-09
7.257322405e-09
6.582699491e-09
5.970312524e-09
5.414452374e-09
4.909931834e-09
4.452037685e-09
4.036487754e-09
3.659391375e-09
3.31721384e-09
3.006743817e-09
2.72506397e-09
2.469523858e-09
2.237715957e-09
2.027453171e-09
1.836748935e-09
1.663798743e-09
1.506963568e-09
1.364754768e-09
1.235820415e-09
1.11893264e-09
1.012976439e-09
9.169392741e-10
8.299017725e-10
7.510290084e-10
6.795631456e-10
6.148158796e-10
5.561624738e-10
5.030359664e-10
4.549213626e-10
4.113515292e-10
3.719023099e-10
3.361888047e-10
3.038617529e-10
2.746043327e-10
2.481288034e-10
2.24174311e-10
2.02504105e-10
1.829035303e-10
1.651778396e-10
1.491502735e-10
1.346607333e-10
1.215638977e-10
1.097280239e-10
9.903373811e-11
8.937288358e-11
8.064718678e-11
7.276768448e-11
6.565392147e-11
5.923274519e-11
5.343800822e-11
4.820977199e-11
4.349373737e-11
3.92406012e-11
3.540597566e-11
3.194953681e-11
2.883473788e-11
2.602864108e-11
2.350113683e-11
2.12252017e-11
1.917642964e-11
1.733268153e-11
1.567396953e-11
1.418206666e-11
1.284069349e-11
1.16349437e-11
1.055155679e-11
9.578361144e-12
8.704493562e-12
7.920088407e-12
7.216168107e-12
6.584720393e-12
6.018550234e-12
5.511083302e-12
5.056350212e-12
4.649086699e-12
4.284381704e-12
3.958041391e-12
3.666142266e-12
3.405021894e-12
3.171753819e-12
2.963385323e-12
2.777234155e-12
2.61109857e-12
2.462856798e-12
2.330804184e-12
2.21308804e-12
2.108179546e-12
2.014775944e-12
1.931625722e-12
1.857669757e-12
1.791956648e-12
1.733477389e-12
1.681623593e-12
1.635597542e-12
1.594772042e-12
1.558571556e-12
1.526579685e-12
1.498297935e-12
1.47324795e-12
1.451055278e-12
1.431426393e-12
1.41418368e-12
1.398956043e-12
1.385501194e-12
1.37362596e-12
1.363112567e-12
1.353872948e-12
1.345840241e-12
1.338734701e-12
1.332517098e-12
1.327084013e-12
1.322315724e-12
1.318065544e-12
1.314437971e-12
1.311210674e-12
1.308485515e-12
1.306033065e-12
1.303936628e-12
1.30200812e-12
1.300418727e-12
1.298997834e-12
1.29782026e-12
1.29671841e-12
1.295703353e-12
1.295006703e-12
1.294340787e-12
1.293743921e-12
1.293227697e-12
1.292805377e-12
1.292467213e-12
1.292272824e-12
1.292024761e-12
1.291776852e-12
1.291543751e-12
1.291371384e-12
1.291171199e-12
1.291099983e-12
1.290959607e-12
1.29079061e-12
1.290645393e-12
1.290503115e-12
1.290389514e-12
1.290416254e-12
1.290364433e-12
1.290277762e-12
1.29012434e-12
1.290037589e-12
1.290104711e-12
1.290083195e-12
1.290051692e-12
1.289980962e-12
1.289929268e-12
1.289823013e-12
1.289887085e-12
1.289943023e-12
1.290005441e-12
1.290044195e-12
1.290008619e-12
1.289939726e-12
1.289933288e-12
1.289873076e-12
1.289773019e-12
1.289781121e-12
1.289769198e-12
1.289802445e-12
1.289760819e-12
1.289828805e-12
1.289825898e-12
1.289789203e-12
1.289784205e-12
1.289797036e-12
1.289863824e-12
1.289914135e-12
1.289891935e-12
1.289917014e-12
1.289990192e-12
1.290000853e-12
1.290011181e-12
1.28996421e-12
1.289867666e-12
1.289840542e-12
1.289824285e-12
1.289886103e-12
1.289989497e-12
1.290013295e-12
1.289985669e-12
1.289989884e-12
1.290014628e-12
1.290043365e-12
1.290034581e-12
1.290108396e-12
1.29020938e-12
1.290256295e-12
1.290235044e-12
1.290128439e-12
1.290145571e-12
1.290100255e-12
1.290149676e-12
1.290128273e-12
1.290196425e-12
1.290171235e-12
1.290201281e-12
1.290145613e-12
1.29014968e-12
1.290065942e-12
1.289952615e-12
1.289950611e-12
1.289906216e-12
1.289793111e-12
1.289779111e-12
1.289847889e-12
1.289886079e-12
1.289830522e-12
1.28992656e-12
1.289990497e-12
1.290022159e-12
1.289936179e-12
1.289985084e-12
1.290014309e-12
1.290058732e-12
1.290090644e-12
1.29009145e-12
1.290069112e-12
1.290192878e-12
1.290206892e-12
1.290118447e-12
1.290172751e-12
1.290226526e-12
1.29026104e-12
1.290273594e-12
1.290286718e-12
1.290254111e-12
1.290265356e-12
1.29024071e-12
1.290197886e-12
1.2902847e-12
1.2902297e-12
1.290232068e-12
1.290166688e-12
1.290083043e-12
1.29006264e-12
1.290090363e-12
1.290224052e-12
1.290251997e-12
1.290221587e-12
1.290170066e-12
1.290001514e-12
1.289977227e-12
1.290108285e-12
1.290164119e-12
1.290170367e-12
1.290286254e-12
1.290265294e-12
1.290398397e-12
1.290431659e-12
1.290387111e-12
1.290251474e-12
1.29021561e-12
1.290229987e-12
1.290309122e-12
1.290321661e-12
1.290264976e-12
1.290295592e-12
1.290342785e-12
1.290392247e-12
1.290321454e-12
1.290249394e-12
1.29006761e-12
1.290014687e-12
1.289879804e-12
1.289787255e-12
1.289876617e-12
1.289947593e-12
1.290005307e-12
1.290015981e-12
1.290001033e-12
1.290125729e-12
1.290144042e-12
1.290176316e-12
1.290128913e-12
1.290225734e-12
1.290300829e-12
1.29034159e-12
1.290313434e-12
1.290299434e-12
1.290261958e-12
1.290246625e-12
1.290138393e-12
1.290153106e-12
1.290090426e-12
1.289884788e-12
1.289827466e-12
1.289722446e-12
1.289721888e-12
1.289732884e-12
1.289734165e-12
1.289882231e-12
1.289920545e-12
1.289815469e-12
1.28983274e-12
1.289881033e-12
1.290014846e-12
1.29004702e-12
1.289960026e-12
1.289930565e-12
1.289812853e-12
1.289810222e-12
1.289901478e-12
1.289864974e-12
1.28985874e-12
1.289901969e-12
1.289876558e-12
1.28981556e-12
1.289837146e-12
1.289761466e-12
1.289772351e-12
3.180238608e-11
3.185897887e-11
3.19659231e-11
3.21176309e-11
3.230903966e-11
3.253561084e-11
3.279331669e-11
3.307862093e-11
3.338844306e-11
3.372012338e-11
3.407138822e-11
3.444032479e-11
3.482533143e-11
3.522507141e-11
3.563842725e-11
3.606447261e-11
3.650245605e-11
3.695183799e-11
3.741222339e-11
3.788330335e-11
3.836484808e-11
3.885668501e-11
3.935868675e-11
3.987079293e-11
4.039303957e-11
4.092556378e-11
4.146959725e-11
4.202513468e-11
4.259159815e-11
4.316920735e-11
4.375822001e-11
4.435892509e-11
4.497164451e-11
4.559674076e-11