/*--------------------------------*- C++ -*----------------------------------*\
| =========                 |                                                 |
| \\      /  F ield         | OpenFOAM: The Open Source CFD Toolbox           |
|  \\    /   O peration     | Version:  v2006                                 |
|   \\  /    A nd           | Website:  www.openfoam.com                      |
|    \\/     M anipulation  |                                                 |
\*---------------------------------------------------------------------------*/
FoamFile
{
    version     2.0;
    format      ascii;
    class       volScalarField;
    location    "0.1";
    object      CH3OH;
}
// * * * * * * * * * * * * * * * * * * * * * * * * * * * * * * * * * * * * * //

dimensions      [0 0 0 0 0 0 0];


internalField   nonuniform List<scalar> 
72000
(
3.254219567e-11
3.254266066e-11
3.25435535e-11
3.254482692e-11
3.254643662e-11
3.25483421e-11
3.255050647e-11
3.255289828e-11
3.255548886e-11
3.25582543e-11
3.256117335e-11
3.256422852e-11
3.256740508e-11
3.257069055e-11
3.257407441e-11
3.257754838e-11
3.258110538e-11
3.258473956e-11
3.258844653e-11
3.259222256e-11
3.259606514e-11
3.259998427e-11
3.260396819e-11
3.260801339e-11
3.261211876e-11
3.261628359e-11
3.262050663e-11
3.262478867e-11
3.26291312e-11
3.263353535e-11
3.263800226e-11
3.264253312e-11
3.264712926e-11
3.265179199e-11
3.265652305e-11
3.266132389e-11
3.266619526e-11
3.267113795e-11
3.267615379e-11
3.268124494e-11
3.268641343e-11
3.26916612e-11
3.26969898e-11
3.27024008e-11
3.270789484e-11
3.271347233e-11
3.271913221e-11
3.272487015e-11
3.273067773e-11
3.27365414e-11
3.274273324e-11
3.274914e-11
3.275562244e-11
3.2762196e-11
3.276887402e-11
3.277566571e-11
3.278257701e-11
3.278961402e-11
3.27967807e-11
3.280408185e-11
3.281152234e-11
3.281910205e-11
3.28268259e-11
3.283469588e-11
3.284271777e-11
3.28510336e-11
3.286074584e-11
3.287066159e-11
3.288079091e-11
3.28911398e-11
3.290171245e-11
3.291250894e-11
3.292352648e-11
3.293478327e-11
3.294629279e-11
3.295806157e-11
3.297009836e-11
3.298241036e-11
3.299500788e-11
3.300790061e-11
3.30211003e-11
3.303462237e-11
3.30484766e-11
3.306267025e-11
3.307721153e-11
3.309211157e-11
3.310738114e-11
3.312303307e-11
3.313914539e-11
3.315569979e-11
3.31726868e-11
3.319012875e-11
3.320804647e-11
3.322646063e-11
3.324539159e-11
3.326486375e-11
3.328489809e-11
3.330551177e-11
3.332665666e-11
3.334841794e-11
3.337082224e-11
3.339389957e-11
3.341768244e-11
3.34421945e-11
3.346746508e-11
3.34935204e-11
3.352039208e-11
3.354810774e-11
3.357669909e-11
3.360617089e-11
3.363657869e-11
3.366791116e-11
3.370019298e-11
3.373365786e-11
3.376890189e-11
3.383496427e-11
3.371369388e-11
3.457550276e-11
3.20033148e-11
3.7010264e-11
3.196296415e-11
3.976990591e-11
3.19211726e-11
4.283144001e-11
3.18770018e-11
4.610820295e-11
3.181958527e-11
4.971237753e-11
3.177474862e-11
5.384430719e-11
3.171267129e-11
5.868395255e-11
3.163818805e-11
6.485224922e-11
3.149352597e-11
7.633625956e-11
3.138709259e-11
8.017781321e-11
3.121820191e-11
8.346112436e-11
3.110857459e-11
8.750402359e-11
3.122294084e-11
9.400166413e-11
3.174811885e-11
1.027494988e-10
3.240381926e-11
1.133804739e-10
3.25243223e-11
1.329620054e-10
3.223792702e-11
1.524504418e-10
3.176986853e-11
2.079070691e-10
3.096672709e-11
2.469180143e-10
2.945705915e-11
2.829674479e-11
2.690536119e-11
1.903093697e-09
8.6091192e-11
0.0002094443125
0.0007957621925
0.000873453508
0.0007820021862
0.000674772776
0.0005776514062
0.0004933757957
0.0004210054558
0.0003590139267
0.0003059283333
0.0002605937108
0.0002220162199
0.0001892084056
0.0001614152903
0.000137989259
0.0001182822541
0.0001017235758
8.781452377e-05
7.614287113e-05
6.6311932e-05
5.800533912e-05
5.095618452e-05
4.494818833e-05
3.979792838e-05
3.536328541e-05
3.152986317e-05
2.820041494e-05
2.528862913e-05
2.272976429e-05
2.048772112e-05
1.852761527e-05
1.676388816e-05
1.516681248e-05
1.371534959e-05
1.234688255e-05
1.10020874e-05
9.768497097e-06
8.669691374e-06
7.703154219e-06
6.856500961e-06
6.114821215e-06
5.463762492e-06
4.890614943e-06
4.384516956e-06
3.936315433e-06
3.538321223e-06
3.184060006e-06
2.868053949e-06
2.585641317e-06
2.332831162e-06
2.106187282e-06
1.902735686e-06
1.719890281e-06
1.555392772e-06
1.407263677e-06
1.27376208e-06
1.153352292e-06
1.044676016e-06
9.465289517e-07
8.578410207e-07
7.776595383e-07
7.051348275e-07
6.395078593e-07
5.80099589e-07
5.263017193e-07
4.775686668e-07
4.334105543e-07
3.933870778e-07
3.571021237e-07
3.241990323e-07
2.943564177e-07
2.672844731e-07
2.427216966e-07
2.204319851e-07
2.002020494e-07
1.818391114e-07
1.651688504e-07
1.500335671e-07
1.362905426e-07
1.238105675e-07
1.124766234e-07
1.021826998e-07
9.28327311e-08
8.433964013e-08
7.66244783e-08
6.961565058e-08
6.32482172e-08
5.746326378e-08
5.220733293e-08
4.7431911e-08
4.309296436e-08
3.915052022e-08
3.556828749e-08
3.231331402e-08
2.935567603e-08
2.666819729e-08
2.42261945e-08
2.200724679e-08
1.999098686e-08
1.815891152e-08
1.649421012e-08
1.498160882e-08
1.360722935e-08
1.2358461e-08
1.122384433e-08
1.019296574e-08
9.256361643e-09
8.405431689e-09
7.632359711e-09
6.930042127e-09
6.292022907e-09
5.712434389e-09
5.185943699e-09
4.707703909e-09
4.273309687e-09
3.878757173e-09
3.52040732e-09
3.19495266e-09
2.899387148e-09
2.630978646e-09
2.387244085e-09
2.165926667e-09
1.964975389e-09
1.782526212e-09
1.61688516e-09
1.466512703e-09
1.330009761e-09
1.206104974e-09
1.093642997e-09
9.915739734e-10
8.989438883e-10
8.148859256e-10
7.386124679e-10
6.694079022e-10
6.066220273e-10
5.496641119e-10
4.979975198e-10
4.51134717e-10
4.086328248e-10
3.700895197e-10
3.351393532e-10
3.034504181e-10
2.747212624e-10
2.486780624e-10
2.250721925e-10
2.036778207e-10
1.84289911e-10
1.667222989e-10
1.508059303e-10
1.363873065e-10
1.233271269e-10
1.114988859e-10
1.007877907e-10
9.108959935e-11
8.23097385e-11
7.436234748e-11
6.716957142e-11
6.066072066e-11
5.477165991e-11
4.944420072e-11
4.462554913e-11
4.026787019e-11
3.632768233e-11
3.276563125e-11
2.954601339e-11
2.663640958e-11
2.400751978e-11
2.163267208e-11
1.948776804e-11
1.755093422e-11
1.580234304e-11
1.422402315e-11
1.279973084e-11
1.15147345e-11
1.035565326e-11
9.3103675e-12
8.367963041e-12
7.518532666e-12
6.753098646e-12
6.063532842e-12
5.44247714e-12
4.883262256e-12
4.379870537e-12
3.926884383e-12
3.519365062e-12
3.152846109e-12
2.823315663e-12
2.527128369e-12
2.260978575e-12
2.02192825e-12
1.807294666e-12
1.614650842e-12
1.441793259e-12
1.286749596e-12
1.147731116e-12
1.023107506e-12
9.114607034e-13
8.114563526e-13
7.219195656e-13
6.417693164e-13
5.701154785e-13
5.060316072e-13
4.487798569e-13
3.976154913e-13
3.519053467e-13
3.11144395e-13
2.747728793e-13
2.423657197e-13
2.13460261e-13
1.877267942e-13
1.648096178e-13
1.444074057e-13
1.262598285e-13
1.101309261e-13
9.580893163e-14
8.310297093e-14
7.179864381e-14
6.175740169e-14
5.286080912e-14
4.499637065e-14
3.804826796e-14
3.191470915e-14
2.647909131e-14
2.170244814e-14
1.746461609e-14
1.372435671e-14
1.042751003e-14
7.521173826e-15
4.958486941e-15
2.689811471e-15
7.147097302e-16
0
0
0
0
0
0
0
0
0
0
0
0
0
0
0
0
0
0
0
0
0
0
0
0
0
0
0
0
0
0
0
0
0
0
0
0
0
0
0
0
0
0
0
0
0
0
0
0
0
0
0
0
0
0
0
0
0
0
0
0
0
0
0
0
0
0
0
0
0
0
0
0
0
0
0
0
0
0
0
0
0
0
0
0
0
0
0
0
0
0
0
0
0
0
0
0
0
0
0
0
0
0
0
0
0
0
0
0
0
0
0
0
0
0
0
0
0
0
0
0
0
0
0
0
0
0
0
0
0
0
0
0
0
0
0
0
0
0
0
0
0
0
0
0
0
0
0
0
0
0
0
0
0
0
0
0
0
0
0
0
0
0
0
0
0
0
0
0
0
0
0
0
0
0
0
0
0
0
0
0
0
0
0
0
0
0
0
0
0
0
0
0
0
0
0
0
0
0
0
0
0
0
0
0
0
0
0
0
2.197948617e-10
2.201540923e-10
2.208396596e-10
2.218183233e-10
2.230583409e-10
2.245308846e-10
2.262097753e-10
2.280723785e-10
2.300987317e-10
2.322718305e-10
2.345767454e-10
2.370012359e-10
2.395349581e-10
2.421691989e-10
2.448968101e-10
2.477119814e-10
2.506097943e-10
2.535868487e-10
2.566404739e-10
2.597685447e-10
2.629697315e-10
2.662428722e-10
2.695872849e-10
2.730026502e-10
2.764892151e-10
2.800472138e-10
2.836769139e-10
2.87379789e-10
2.91157746e-10
2.950127543e-10
2.989468311e-10
3.029620801e-10
3.070607282e-10
3.112450478e-10
3.155177626e-10
3.198813863e-10
3.2433797e-10
3.288896822e-10
3.335396106e-10
3.38291179e-10
3.431477535e-10
3.481127403e-10
3.531892779e-10
3.583806553e-10
3.636896332e-10
3.691184801e-10
3.746682467e-10
3.803379457e-10
3.861228582e-10
3.920122421e-10
3.982322329e-10
4.047024513e-10
4.113134088e-10
4.180827117e-10
4.250254648e-10
4.32153444e-10
4.394762034e-10
4.470026113e-10
4.547408843e-10
4.626991416e-10
4.708855811e-10
4.793082193e-10
4.879760647e-10
4.968979454e-10
5.060826105e-10
5.155368034e-10
5.252652137e-10
5.352914995e-10
5.456266112e-10
5.562827183e-10
5.672712162e-10
5.786002612e-10
5.902709862e-10
6.023122095e-10
6.147431566e-10
6.275802773e-10
6.408419306e-10
6.545443265e-10
6.687061922e-10
6.833491192e-10
6.984971535e-10
7.14177974e-10
7.304126592e-10
7.472235042e-10
7.646332878e-10
7.826696113e-10
8.013590788e-10
8.207306228e-10
8.423641655e-10
8.649950816e-10
8.885208785e-10
9.129920019e-10
9.384613332e-10
9.649820658e-10
9.926126156e-10
1.021410137e-09
1.051438361e-09
1.082755966e-09
1.149719363e-09
1.221547072e-09
1.297411273e-09
1.377578727e-09
1.462334426e-09
1.551957974e-09
1.646726904e-09
1.746934855e-09
1.852913781e-09
1.965003312e-09
2.084831448e-09
2.217601543e-09
2.35851421e-09
2.507883405e-09
2.666099734e-09
2.833286376e-09
3.00904389e-09
3.192941513e-09
3.385878897e-09
3.582644415e-09
3.800110142e-09
3.974960677e-09
4.213300594e-09
4.378890341e-09
4.651021809e-09
4.816032756e-09
5.134065196e-09
5.304337174e-09
5.769903618e-09
6.147948023e-09
7.108103283e-09
7.522789609e-09
8.680319837e-09
9.127523151e-09
1.051837038e-08
1.100321059e-08
1.271433174e-08
1.328859804e-08
1.577805979e-08
1.693091382e-08
2.07468447e-08
2.382766543e-08
3.246917678e-08
3.775275046e-08
5.060121617e-08
5.889103314e-08
8.678077526e-08
1.053595502e-07
1.541088554e-07
1.938001475e-07
3.156276004e-07
4.175362048e-07
7.303572484e-07
1.04932686e-06
1.976560167e-06
2.997753392e-06
6.157452846e-06
1.021289966e-05
2.305696482e-05
4.188534086e-05
7.312086782e-05
0.0001301387684
0.0002956542025
0.0006273885563
0.0008348562796
0.0008247826355
0.0007441781912
0.000653579329
0.0005687169449
0.0004926520232
0.0004252515036
0.0003658905842
0.0003137821946
0.0002685054069
0.0002294150583
0.0001958871462
0.0001673409594
0.0001431355728
0.0001226818581
0.0001054631303
9.099041675e-05
7.883433742e-05
6.85927872e-05
5.993427019e-05
5.259840952e-05
4.635571509e-05
4.101257176e-05
3.640728852e-05
3.243124622e-05
2.9015723e-05
2.601243916e-05
2.335918525e-05
2.101140961e-05
1.891607032e-05
1.702135233e-05
1.530019766e-05
1.371314078e-05
1.22452358e-05
1.089957802e-05
9.691250171e-06
8.621405898e-06
7.680107226e-06
6.853103497e-06
6.125717969e-06
5.484504605e-06
4.917750002e-06
4.41546873e-06
3.969211795e-06
3.571830254e-06
3.217253744e-06
2.900302328e-06
2.616531931e-06
2.362109521e-06
2.133712484e-06
1.928447919e-06
1.743786896e-06
1.577510684e-06
1.427666452e-06
1.292530459e-06
1.170577303e-06
1.060453955e-06
9.60957805e-07
8.710179125e-07
7.896789709e-07
7.160875006e-07
6.49479916e-07
5.891721799e-07
5.345507962e-07
4.850649439e-07
4.402195875e-07
3.995694258e-07
3.627135637e-07
3.292908102e-07
2.989755184e-07
2.714738969e-07
2.465207391e-07
2.238765082e-07
2.033247458e-07
1.846697564e-07
1.677345395e-07
1.523589402e-07
1.383979927e-07
1.25720435e-07
1.142073763e-07
1.037510994e-07
9.425398439e-08
8.562754053e-08
7.779153384e-08
7.067320147e-08
6.420654302e-08
5.833168152e-08
5.299428602e-08
4.814505052e-08
4.373922293e-08
3.973617903e-08
3.609903733e-08
3.279431058e-08
2.979159014e-08
2.70632605e-08
2.458424038e-08
2.233174835e-08
2.028509053e-08
1.842546792e-08
1.673580192e-08
1.5200576e-08
1.380569201e-08
1.253834014e-08
1.138688058e-08
1.034073635e-08
9.390295871e-09
8.526824707e-09
7.742385258e-09
7.02976391e-09
6.382404956e-09
5.79435043e-09
5.260185639e-09
4.774989488e-09
4.33428948e-09
3.934020886e-09
3.570489486e-09
3.240337846e-09
2.940514583e-09
2.668246504e-09
2.421013332e-09
2.196524526e-09
1.992698533e-09
1.807643584e-09
1.639640566e-09
1.4871272e-09
1.34868375e-09
1.223020149e-09
1.108964053e-09
1.005450243e-09
9.115107845e-10
8.262661792e-10
7.48917352e-10
6.787383155e-10
6.150694135e-10
5.573113922e-10
5.049198532e-10
4.574002451e-10
4.143033192e-10
3.752209605e-10
3.397824919e-10
3.076512724e-10
2.785215325e-10
2.521155364e-10
2.281811173e-10
2.064892573e-10
1.868319867e-10
1.690205129e-10
1.528833836e-10
1.382649291e-10
1.250238986e-10
1.130319683e-10
1.021727602e-10
9.234054746e-11
8.3439434e-11
7.538238874e-11
6.809042578e-11
6.149188346e-11
5.552171133e-11
5.012090104e-11
4.523597981e-11
4.081839371e-11
3.68240555e-11
3.321310058e-11
2.994929288e-11
2.699979024e-11
2.433484196e-11
2.192745852e-11
1.975317629e-11
1.778981108e-11
1.601729815e-11
1.441742126e-11
1.297366063e-11
1.167110256e-11
1.049618214e-11
9.436641752e-12
8.481387542e-12
7.620387395e-12
6.844533465e-12
6.145587431e-12
5.516066976e-12
4.949236679e-12
4.439020432e-12
3.97986101e-12
3.566811244e-12
3.195340659e-12
2.861334106e-12
2.561136668e-12
2.291398878e-12
2.049114106e-12
1.831591108e-12
1.63633589e-12
1.461144318e-12
1.30398472e-12
1.163089676e-12
1.036796879e-12
9.236543108e-13
8.223119041e-13
7.315616126e-13
6.503729791e-13
5.777494458e-13
5.127976319e-13
4.547891673e-13
4.029551279e-13
3.566344155e-13
3.153385875e-13
2.784812098e-13
2.456441087e-13
2.1635919e-13
1.902828102e-13
1.670685382e-13
1.464021979e-13
1.280071164e-13
1.11684456e-13
9.715556059e-14
8.427853522e-14
7.28213559e-14
6.26742353e-14
5.368070885e-14
4.572883067e-14
3.868385036e-14
3.247220552e-14
2.69690199e-14
2.211901536e-14
1.782233573e-14
1.403233823e-14
1.069127054e-14
7.734727181e-15
5.139258115e-15
2.847680705e-15
8.564116355e-16
0
0
0
0
0
0
0
0
0
0
0
0
0
0
0
0
0
0
0
0
0
0
0
0
0
0
0
0
0
0
0
0
0
0
0
0
0
0
0
0
0
0
0
0
0
0
0
0
0
0
0
0
0
0
0
0
0
0
0
0
0
0
0
0
0
0
0
0
0
0
0
0
0
0
0
0
0
0
0
0
0
0
0
0
0
0
0
0
0
0
0
0
0
0
0
0
0
0
0
0
0
0
0
0
0
0
0
0
0
0
0
0
0
0
0
0
0
0
0
0
0
0
0
0
0
0
0
0
0
0
0
0
0
0
0
0
0
0
0
0
0
0
0
0
0
0
0
0
0
0
0
0
0
0
0
0
0
0
0
0
0
0
0
0
0
0
0
0
0
0
0
0
0
0
0
0
0
0
0
0
0
0
0
0
0
0
0
0
0
0
0
0
0
0
0
0
0
0
0
0
0
0
0
0
0
0
0
0
7.534419825e-10
7.548170774e-10
7.574264833e-10
7.611400711e-10
7.658365875e-10
7.714058433e-10
7.777492602e-10
7.847801139e-10
7.924226434e-10
8.0061147e-10
8.092904352e-10
8.184123848e-10
8.279375548e-10
8.378328682e-10
8.480706397e-10
8.586284746e-10
8.694879985e-10
8.806356428e-10
8.92061261e-10
9.037570251e-10
9.157174102e-10
9.279381133e-10
9.404165472e-10
9.531516104e-10
9.661438051e-10
9.793948064e-10
9.931956646e-10
1.007491325e-09
1.022079384e-09
1.036967443e-09
1.05216327e-09
1.067675039e-09
1.083511709e-09
1.099683164e-09
1.11620023e-09
1.133073399e-09
1.150310508e-09
1.167920199e-09
1.18591531e-09
1.204309837e-09
1.223117744e-09
1.242352824e-09
1.262028239e-09
1.282157361e-09
1.302752791e-09
1.323825603e-09
1.345383913e-09
1.367429571e-09
1.389954427e-09
1.412928331e-09
1.436261958e-09
1.460008817e-09
1.4842631e-09
1.509073592e-09
1.534499565e-09
1.560580531e-09
1.587348636e-09
1.614833048e-09
1.643061462e-09
1.672062002e-09
1.701863928e-09
1.73249348e-09
1.763980452e-09
1.796357925e-09
1.829659796e-09
1.863919579e-09
1.900293405e-09
1.938497884e-09
1.977872666e-09
2.018466411e-09
2.060329417e-09
2.109707765e-09
2.215925112e-09
2.326293019e-09
2.440997224e-09
2.560230905e-09
2.684199422e-09
2.813115584e-09
2.947204824e-09
3.086718596e-09
3.23197304e-09
3.383430258e-09
3.541278271e-09
3.705743806e-09
3.877120127e-09
4.055748003e-09
4.241987538e-09
4.436216872e-09
4.638813973e-09
4.856007122e-09
5.085285824e-09
5.325352361e-09
5.576873455e-09
5.840534441e-09
6.117020076e-09
6.407091809e-09
6.711639959e-09
7.031347221e-09
7.367141849e-09
7.719732205e-09
8.089840068e-09
8.478712119e-09
8.88756393e-09
9.317571281e-09
9.778371314e-09
1.027411902e-08
1.079652317e-08
1.1346936e-08
1.1927185e-08
1.253901846e-08
1.32936408e-08
1.468724335e-08
1.617017142e-08
1.774581339e-08
1.941666864e-08
2.118462435e-08
2.307719796e-08
2.508419062e-08
2.718918803e-08
2.935934452e-08
3.166087699e-08
3.403698688e-08
3.660498947e-08
3.92642726e-08
4.218463035e-08
4.521216849e-08
4.857890746e-08
5.384121678e-08
6.113413943e-08
6.881769911e-08
7.757712973e-08
8.674731648e-08
9.732201091e-08
1.08506264e-07
1.217566746e-07
1.362317818e-07
1.617520272e-07
1.940215237e-07
2.343814726e-07
2.801862748e-07
3.371046209e-07
4.233762735e-07
5.412070298e-07
6.787888501e-07
8.824831589e-07
1.155634583e-06
1.524193431e-06
2.078373118e-06
2.875630261e-06
4.016212212e-06
5.840628328e-06
8.524486849e-06
1.288738215e-05
1.965978713e-05
3.108298993e-05
4.912270198e-05
8.016761438e-05
0.0001283094607
0.0002042066912
0.0003268987068
0.0005157250571
0.0007123187531
0.0007960876492
0.0007769184073
0.0007146834138
0.0006413143322
0.0005690594767
0.0005018474941
0.0004405176227
0.0003850428678
0.0003351991209
0.0002905598555
0.0002509423936
0.000216115981
0.0001858071091
0.0001596910156
0.0001373622845
0.0001183797231
0.0001022910824
8.866014906e-05
7.71299444e-05
6.73445452e-05
5.902987219e-05
5.19682966e-05
4.591413537e-05
4.067558882e-05
3.613891469e-05
3.218638783e-05
2.870490269e-05
2.563202286e-05
2.288792027e-05
2.042794084e-05
1.823499402e-05
1.627421369e-05
1.451434567e-05
1.293449891e-05
1.152221081e-05
1.026897064e-05
9.162053461e-06
8.185737251e-06
7.323997713e-06
6.562063343e-06
5.886935629e-06
5.287409266e-06
4.753902875e-06
4.27823638e-06
3.853406676e-06
3.47339244e-06
3.132994751e-06
2.827704995e-06
2.553597198e-06
2.307238689e-06
2.085618817e-06
1.886088909e-06
1.706312323e-06
1.54422263e-06
1.397988276e-06
1.265982759e-06
1.146758975e-06
1.039027352e-06
9.41636949e-07
8.535591436e-07
7.73873479e-07
7.017553194e-07
6.364650924e-07
5.773388636e-07
5.237800596e-07
4.752521853e-07
4.312723988e-07
3.914058375e-07
3.552605925e-07
3.224832477e-07
2.927549154e-07
2.657877161e-07
2.413216294e-07
2.191216972e-07
1.989755158e-07
1.806909953e-07
1.640943535e-07
1.490283173e-07
1.353505092e-07
1.229319997e-07
1.116560027e-07
1.014167067e-07
9.211821974e-08
8.367362062e-08
7.600410368e-08
6.903820702e-08
6.271111754e-08
5.696404174e-08
5.174363921e-08
4.700150981e-08
4.269373029e-08
3.878043538e-08
3.522543875e-08
3.199588994e-08
2.90619642e-08
2.639658091e-08
2.397514938e-08
2.177533795e-08
1.977686512e-08
1.796131006e-08
1.631194093e-08
1.481355906e-08
1.345235793e-08
1.221579498e-08
1.109247544e-08
1.007204693e-08
9.145103772e-09
8.303100154e-09
7.538271383e-09
6.843562227e-09
6.212562083e-09
5.639445903e-09
5.118920661e-09
4.646176705e-09
4.216843601e-09
3.826949989e-09
3.47288713e-09
3.151375784e-09
2.859436138e-09
2.594360513e-09
2.353688453e-09
2.135184245e-09
1.936816381e-09
1.756738909e-09
1.593274557e-09
1.444899279e-09
1.310228365e-09
1.188003642e-09
1.077082009e-09
9.764248806e-10
8.850886977e-10
8.02216227e-10
7.270287181e-10
6.588186693e-10
5.969434243e-10
5.408191703e-10
4.899156247e-10
4.437511051e-10
4.018881025e-10
3.63929252e-10
3.295136823e-10
2.983136392e-10
2.700314958e-10
2.443969778e-10
2.211646792e-10
2.001117363e-10
1.810358626e-10
1.637533328e-10
1.480973892e-10
1.339166955e-10
1.21073788e-10
1.094439778e-10
9.891404792e-11
8.938126019e-11
8.075238919e-11
7.294286797e-11
6.5875893e-11
5.948183665e-11
5.36975055e-11
4.846560351e-11
4.373414865e-11
3.945596062e-11
3.558830556e-11
3.209239455e-11
2.893306284e-11
2.607844708e-11
2.349967779e-11
2.117052425e-11
1.906724047e-11
1.716835091e-11
1.545433004e-11
1.390752167e-11
1.251192697e-11
1.125305236e-11
1.011773819e-11
9.094135946e-12
8.171482309e-12
7.340022277e-12
6.590963693e-12
5.916270254e-12
5.308728667e-12
4.761824145e-12
4.269647197e-12
3.826862447e-12
3.428605e-12
3.070529159e-12
2.748656348e-12
2.459446616e-12
2.19965127e-12
1.966370434e-12
1.75697069e-12
1.569055863e-12
1.400487144e-12
1.249343751e-12
1.113870862e-12
9.924752171e-13
8.83751417e-13
7.863888408e-13
6.992675789e-13
6.213403602e-13
5.516299798e-13
4.893545117e-13
4.337260542e-13
3.840289615e-13
3.396751546e-13
3.000983661e-13
2.648430416e-13
2.334151322e-13
2.054065877e-13
1.804694713e-13
1.5826979e-13
1.385247007e-13
1.20980125e-13
1.053671045e-13
9.152267291e-14
7.923414646e-14
6.833407146e-14
5.866882035e-14
5.0126952e-14
4.257552607e-14
3.588705637e-14
2.996160917e-14
2.472073005e-14
2.011664968e-14
1.60506493e-14
1.245807515e-14
9.287325256e-15
6.480360808e-15
4.013433681e-15
1.868450448e-15
0
0
0
0
0
0
0
0
0
0
0
0
0
0
0
0
0
0
0
0
0
0
0
0
0
0
0
0
0
0
0
0
0
0
0
0
0
0
0
0
0
0
0
0
0
0
0
0
0
0
0
0
0
0
0
0
0
0
0
0
0
0
0
0
0
0
0
0
0
0
0
0
0
0
0
0
0
0
0
0
0
0
0
0
0
0
0
0
0
0
0
0
0
0
0
0
0
0
0
0
0
0
0
0
0
0
0
0
0
0
0
0
0
0
0
0
0
0
0
0
0
0
0
0
0
0
0
0
0
0
0
0
0
0
0
0
0
0
0
0
0
0
0
0
0
0
0
0
0
0
0
0
0
0
0
0
0
0
0
0
0
0
0
0
0
0
0
0
0
0
0
0
0
0
0
0
0
0
0
0
0
0
0
0
0
0
0
0
0
0
0
0
0
0
0
0
0
0
0
0
0
0
0
0
0
0
0
0
1.771871888e-09
1.775033346e-09
1.781008439e-09
1.78948602e-09
1.800184029e-09
1.812849437e-09
1.827257557e-09
1.843211028e-09
1.860537862e-09
1.879089524e-09
1.898739004e-09
1.919379426e-09
1.940921277e-09
1.963289869e-09
1.986422787e-09
2.010268343e-09
2.034784637e-09
2.059941594e-09
2.085717253e-09
2.112094511e-09
2.139060755e-09
2.166606626e-09
2.194725343e-09
2.223413923e-09
2.252674719e-09
2.282515719e-09
2.313442514e-09
2.345359483e-09
2.377917347e-09
2.411129515e-09
2.445011633e-09
2.479581142e-09
2.514857364e-09
2.5508619e-09
2.587619797e-09
2.62516429e-09
2.663501898e-09
2.702638241e-09
2.742609437e-09
2.783450758e-09
2.825193159e-09
2.867866434e-09
2.911499539e-09
2.956121694e-09
3.001762459e-09
3.048450068e-09
3.09620818e-09
3.145049739e-09
3.194980714e-09
3.245999535e-09
3.298108888e-09
3.35136475e-09
3.431679335e-09
3.581016963e-09
3.734683298e-09
3.892917074e-09
4.055936949e-09
4.223945543e-09
4.397140888e-09
4.575723823e-09
4.76221943e-09
4.955069262e-09
5.154256228e-09
5.360072566e-09
5.57280568e-09
5.792748455e-09
6.020172144e-09
6.255403742e-09
6.498804587e-09
6.750739632e-09
7.011604874e-09
7.281850609e-09
7.56199852e-09
7.852343713e-09
8.15328473e-09
8.465266924e-09
8.788768296e-09
9.124285936e-09
9.472324191e-09
9.833345192e-09
1.020795958e-08
1.06043496e-08
1.101852583e-08
1.144936577e-08
1.189766645e-08
1.23643039e-08
1.285020796e-08
1.335635474e-08
1.388377064e-08
1.443357541e-08
1.500694378e-08
1.560509199e-08
1.622971009e-08
1.688249803e-08
1.756469092e-08
1.828011551e-08
1.904496621e-08
1.984572671e-08
2.068442655e-08
2.156315835e-08
2.343323271e-08
2.547164777e-08
2.762642604e-08
2.990549637e-08
3.231469427e-08
3.486142868e-08
3.755457425e-08
4.044902359e-08
4.35142868e-08
4.676062482e-08
5.01984527e-08
5.383859439e-08
5.768949536e-08
6.175931001e-08
6.605598294e-08
7.058686175e-08
7.541103003e-08
8.049734029e-08
8.583422084e-08
9.381205944e-08
1.0458751e-07
1.16004653e-07
1.28207067e-07
1.412003843e-07
1.55182915e-07
1.701919082e-07
1.865135067e-07
2.040639766e-07
2.232044638e-07
2.438807846e-07
2.770820471e-07
3.167864612e-07
3.609508676e-07
4.100907256e-07
4.658042586e-07
5.287967248e-07
6.116027946e-07
7.322183954e-07
8.739816301e-07
1.038263408e-06
1.242652196e-06
1.543490149e-06
1.902551148e-06
2.354519675e-06
2.999811184e-06
3.776754586e-06
4.927570287e-06
6.415585203e-06
8.493578883e-06
1.144174119e-05
1.562222555e-05
2.156436454e-05
3.033970762e-05
4.304784754e-05
6.206531372e-05
9.028509249e-05
0.0001323822039
0.0001938182989
0.000282949098
0.000407340666
0.0005567399193
0.0006819202216
0.0007382623076
0.0007327785226
0.0006926940103
0.0006379094148
0.0005791430112
0.0005211958724
0.0004661867879
0.0004148733429
0.0003675107654
0.0003241358864
0.0002847234057
0.0002490646932
0.0002171795409
0.0001888923435
0.0001640391521
0.0001424429352
0.0001238091827
0.0001078013328
9.40875571e-05
8.237508766e-05
7.228700014e-05
6.360108255e-05
5.607211961e-05
4.952381982e-05
4.382355285e-05
3.881309284e-05
3.441837056e-05
3.056547617e-05
2.717460159e-05
2.418075645e-05
2.153483938e-05
1.918114936e-05
1.708973524e-05
1.523474519e-05
1.359132036e-05
1.213728397e-05
1.085133497e-05
9.713170367e-06
8.704296539e-06
7.808509535e-06
7.011777856e-06
6.301980282e-06
5.668654491e-06
5.102772367e-06
4.596512543e-06
4.14306751e-06
3.736498504e-06
3.371608169e-06
3.043837156e-06
2.749169818e-06
2.484064901e-06
2.24539232e-06
2.03037986e-06
1.836567904e-06
1.661770314e-06
1.504041624e-06
1.361647859e-06
1.233041687e-06
1.116840622e-06
1.011808113e-06
9.168370526e-07
8.30935216e-07
7.532125675e-07
6.828700788e-07
6.191898578e-07
5.6152645e-07
5.092991228e-07
4.619850519e-07
4.191132742e-07
3.802593002e-07
3.45040326e-07
3.131109786e-07
2.841595e-07
2.579043687e-07
2.34091259e-07
2.124903265e-07
1.928937775e-07
1.75113692e-07
1.589800686e-07
1.443390736e-07
1.310514611e-07
1.189911589e-07
1.080439944e-07
9.810654739e-08
8.908511805e-08
8.089479537e-08
7.345862028e-08
6.670682632e-08
6.057615886e-08
5.50092578e-08
4.995410091e-08
4.536350065e-08
4.119464955e-08
3.740870869e-08
3.397043657e-08
3.084785166e-08
2.801192862e-08
2.543632238e-08
2.309711869e-08
2.0972608e-08
1.90430809e-08
1.729064234e-08
1.56990439e-08
1.425353121e-08
1.29407059e-08
1.174840036e-08
1.066556423e-08
9.68216132e-09
8.789076316e-09
7.978029801e-09
7.241501638e-09
6.572660952e-09
5.965302863e-09
5.413791029e-09
4.913005455e-09
4.458295086e-09
4.04543483e-09
3.67058653e-09
3.330263447e-09
3.021298124e-09
2.740813115e-09
2.486194458e-09
2.255067494e-09
2.045275071e-09
1.854857542e-09
1.68203471e-09
1.525189483e-09
1.382852869e-09
1.253690458e-09
1.136490143e-09
1.030150899e-09
9.336726106e-10
8.46146885e-10
7.667486184e-10
6.94728424e-10
6.294056487e-10
5.701621326e-10
5.164364701e-10
4.677188202e-10
4.235461683e-10
3.834980671e-10
3.471927251e-10
3.14283485e-10
2.844555695e-10
2.574232015e-10
2.329268931e-10
2.107311194e-10
1.906220215e-10
1.724054665e-10
1.559053031e-10
1.409615655e-10
1.27429119e-10
1.151762643e-10
1.04083404e-10
9.404212606e-11
8.495395848e-11
7.672961888e-11
6.928806477e-11
6.255584049e-11
5.646625557e-11
5.095881489e-11
4.597870524e-11
4.147618211e-11
3.740615254e-11
3.372771358e-11
3.040381267e-11
2.740082506e-11
2.468828609e-11
2.223858256e-11
2.002671422e-11
1.802999666e-11
1.622788436e-11
1.460176143e-11
1.313477947e-11
1.181163602e-11
1.061853028e-11
9.542950676e-12
8.573556197e-12
7.700098672e-12
6.913265551e-12
6.204648676e-12
5.56665663e-12
4.992424676e-12
4.475735404e-12
4.010924657e-12
3.592948739e-12
3.217186615e-12
2.879473793e-12
2.576060356e-12
2.30356691e-12
2.058910901e-12
1.839332969e-12
1.642315776e-12
1.46561893e-12
1.307222077e-12
1.165246071e-12
1.038071196e-12
9.24172485e-13
8.222197454e-13
7.310013244e-13
6.493964907e-13
5.764689865e-13
5.112953969e-13
4.530788188e-13
4.011161525e-13
3.547407932e-13
3.133976428e-13
2.765213069e-13
2.436663418e-13
2.144031534e-13
1.883611995e-13
1.651953002e-13
1.445918251e-13
1.262617092e-13
1.099949825e-13
9.556415207e-14
8.276652564e-14
7.141766903e-14
6.135814884e-14
5.24616892e-14
4.457679954e-14
3.760657649e-14
3.145539165e-14
2.6018086e-14
2.122523932e-14
1.699555744e-14
1.326769202e-14
9.969611022e-15
7.064250201e-15
4.52398554e-15
2.288713182e-15
3.32973455e-16
0
0
0
0
0
0
0
0
0
0
0
0
0
0
0
0
0
0
0
0
0
0
0
0
0
0
0
0
0
0
0
0
0
0
0
0
0
0
0
0
0
0
0
0
0
0
0
0
0
0
0
0
0
0
0
0
0
0
0
0
0
0
0
0
0
0
0
0
0
0
0
0
0
0
0
0
0
0
0
0
0
0
0
0
0
0
0
0
0
0
0
0
0
0
0
0
0
0
0
0
0
0
0
0
0
0
0
0
0
0
0
0
0
0
0
0
0
0
0
0
0
0
0
0
0
0
0
0
0
0
0
0
0
0
0
0
0
0
0
0
0
0
0
0
0
0
0
0
0
0
0
0
0
0
0
0
0
0
0
0
0
0
0
0
0
0
0
0
0
0
0
0
0
0
0
0
0
0
0
0
0
0
0
0
0
0
0
0
0
0
0
0
0
0
0
0
0
0
0
0
0
0
0
0
0
0
3.271561529e-09
3.277215033e-09
3.287869105e-09
3.302947832e-09
3.321938442e-09
3.344386315e-09
3.369890987e-09
3.398102159e-09
3.428715369e-09
3.461467713e-09
3.496134425e-09
3.532527871e-09
3.570491907e-09
3.609896125e-09
3.650631355e-09
3.692605012e-09
3.735731325e-09
3.779967234e-09
3.825278753e-09
3.871636998e-09
3.919019942e-09
3.967411168e-09
4.016797584e-09
4.067164733e-09
4.118517259e-09
4.170879081e-09
4.22427447e-09
4.278719108e-09
4.33422577e-09
4.39081421e-09
4.448508723e-09
4.507337068e-09
4.567329995e-09
4.628520982e-09
4.690945423e-09
4.75623975e-09
4.823003482e-09
4.992252102e-09
5.191993011e-09
5.396754232e-09
5.606704629e-09
5.822012408e-09
6.0428454e-09
6.269375395e-09
6.501786062e-09
6.740304028e-09
6.985154369e-09
7.236356361e-09
7.494010693e-09
7.758242205e-09
8.029230343e-09
8.307294138e-09
8.592890284e-09
8.886490639e-09
9.188406251e-09
9.499016123e-09
9.81870399e-09
1.014781828e-08
1.048671071e-08
1.083574528e-08
1.119528429e-08
1.156793947e-08
1.195540877e-08
1.2355187e-08
1.276779964e-08
1.319384125e-08
1.363409173e-08
1.408897605e-08
1.455897529e-08
1.504471519e-08
1.554689496e-08
1.606627401e-08
1.660363264e-08
1.715968122e-08
1.773517006e-08
1.833091222e-08
1.894777636e-08
1.958667483e-08
2.024856378e-08
2.093941172e-08
2.166118931e-08
2.240979864e-08
2.318665475e-08
2.399321384e-08
2.483076402e-08
2.570096751e-08
2.660550801e-08
2.754611664e-08
2.852459906e-08
2.954285364e-08
3.060291506e-08
3.24377379e-08
3.493093969e-08
3.755209658e-08
4.030085225e-08
4.318396876e-08
4.620845149e-08
4.938328459e-08
5.271753576e-08
5.622092145e-08
5.990470033e-08
6.377972224e-08
6.786507015e-08
7.220078586e-08
7.67669214e-08
8.157722071e-08
8.664661008e-08
9.199140871e-08
9.762673844e-08
1.035703829e-07
1.098389806e-07
1.164905379e-07
1.235162795e-07
1.338931136e-07
1.480006162e-07
1.629531238e-07
1.787940205e-07
1.955557776e-07
2.133041538e-07
2.321322737e-07
2.520978806e-07
2.733003659e-07
2.958993421e-07
3.200204929e-07
3.458691259e-07
3.806997888e-07
4.286473276e-07
4.805088413e-07
5.368567433e-07
5.981413259e-07
6.651593005e-07
7.386822048e-07
8.1998421e-07
9.482386421e-07
1.093529778e-06
1.257207636e-06
1.443395222e-06
1.660178292e-06
1.983193405e-06
2.354305274e-06
2.783127811e-06
3.362997014e-06
4.090762941e-06
4.955366866e-06
6.166716638e-06
7.613516302e-06
9.620020161e-06
1.218854569e-05
1.55685182e-05
2.013572547e-05
2.632259402e-05
3.480857308e-05
4.642055138e-05
6.236985009e-05
8.452612881e-05
0.0001153057969
0.0001580290534
0.0002169018791
0.0002968013663
0.0003987091527
0.0005105022997