/*--------------------------------*- C++ -*----------------------------------*\
| =========                 |                                                 |
| \\      /  F ield         | OpenFOAM: The Open Source CFD Toolbox           |
|  \\    /   O peration     | Version:  v2006                                 |
|   \\  /    A nd           | Website:  www.openfoam.com                      |
|    \\/     M anipulation  |                                                 |
\*---------------------------------------------------------------------------*/
FoamFile
{
    version     2.0;
    format      ascii;
    class       volScalarField;
    location    "0.1";
    object      CH3O2;
}
// * * * * * * * * * * * * * * * * * * * * * * * * * * * * * * * * * * * * * //

dimensions      [0 0 0 0 0 0 0];


internalField   nonuniform List<scalar> 
72000
(
1.321164244e-13
1.3211977e-13
1.321262402e-13
1.321355252e-13
1.321473139e-13
1.321613118e-13
1.321772433e-13
1.32194868e-13
1.32213967e-13
1.322343544e-13
1.32255864e-13
1.322783586e-13
1.323017218e-13
1.323258542e-13
1.323506733e-13
1.323761122e-13
1.324021141e-13
1.324286347e-13
1.324556391e-13
1.324830984e-13
1.325109938e-13
1.325393582e-13
1.32568139e-13
1.325973185e-13
1.32626891e-13
1.326568503e-13
1.3268719e-13
1.327179177e-13
1.327490446e-13
1.32780582e-13
1.328125404e-13
1.328449306e-13
1.328777632e-13
1.329110476e-13
1.329447979e-13
1.32979027e-13
1.330137449e-13
1.330489615e-13
1.330846933e-13
1.331209572e-13
1.331577686e-13
1.331951439e-13
1.332330966e-13
1.332716424e-13
1.333107919e-13
1.333505556e-13
1.333909379e-13
1.334319316e-13
1.33473511e-13
1.335156296e-13
1.335593903e-13
1.336043468e-13
1.336499523e-13
1.336962802e-13
1.337433957e-13
1.337913459e-13
1.338401639e-13
1.338898861e-13
1.339405383e-13
1.339921488e-13
1.340447481e-13
1.340983478e-13
1.341529834e-13
1.342086756e-13
1.342654606e-13
1.343243008e-13
1.343926162e-13
1.344623489e-13
1.345335638e-13
1.346063059e-13
1.346806103e-13
1.347564986e-13
1.348339785e-13
1.349131427e-13
1.349940664e-13
1.35076794e-13
1.351613894e-13
1.352478968e-13
1.353363794e-13
1.354268982e-13
1.355195186e-13
1.356143336e-13
1.357114089e-13
1.358108069e-13
1.359125913e-13
1.360168398e-13
1.361236226e-13
1.362330163e-13
1.363453068e-13
1.364604869e-13
1.365785629e-13
1.366996672e-13
1.368239208e-13
1.369514338e-13
1.370823304e-13
1.372167366e-13
1.373547763e-13
1.374965544e-13
1.376419145e-13
1.377912418e-13
1.379446735e-13
1.381023593e-13
1.382644536e-13
1.384310663e-13
1.38602329e-13
1.387783529e-13
1.389592715e-13
1.391451784e-13
1.393361478e-13
1.395320774e-13
1.397331677e-13
1.399392276e-13
1.401501299e-13
1.403664908e-13
1.405895911e-13
1.409383102e-13
1.405102671e-13
1.441470613e-13
1.335658264e-13
1.543429408e-13
1.334925557e-13
1.6586291e-13
1.333946918e-13
1.786281314e-13
1.332797734e-13
1.922887844e-13
1.33108462e-13
2.073140281e-13
1.329891492e-13
2.245358242e-13
1.327985208e-13
2.447029947e-13
1.325579061e-13
2.703985653e-13
1.320366001e-13
3.182249637e-13
1.317772861e-13
3.346783295e-13
1.314207568e-13
3.491076529e-13
1.314446557e-13
3.669337685e-13
1.324896195e-13
3.950407659e-13
1.353001473e-13
4.326610356e-13
1.388091751e-13
4.783563361e-13
1.400187751e-13
5.597780993e-13
1.3944784e-13
6.365428798e-13
1.369785014e-13
8.438820489e-13
1.296460636e-13
9.223195665e-13
1.090156181e-13
9.016951016e-14
6.752575649e-14
3.428179086e-12
7.01094867e-14
1.595364551e-06
0.0001563330551
0.001525231984
0.003111131117
0.003960809705
0.00426052977
0.004215039844
0.003968412305
0.003616214599
0.003224870852
0.002830425449
0.002450405283
0.002109083679
0.00181158197
0.001549163183
0.001325211745
0.001138459979
0.0009830664121
0.0008506801667
0.0007399260571
0.0006469253996
0.0005684119951
0.0005014293752
0.0004446009611
0.0003958404091
0.000353753018
0.0003169359473
0.0002841088606
0.0002552597512
0.0002299816361
0.0002078811039
0.0001879944821
0.000169986494
0.0001536241369
0.000138214239
0.0001230919344
0.0001092364536
9.690723061e-05
8.607144909e-05
7.658668164e-05
6.828318478e-05
6.099825366e-05
5.458816673e-05
4.89303207e-05
4.392154192e-05
3.947525973e-05
3.551865525e-05
3.199017319e-05
2.883747151e-05
2.601577275e-05
2.348654923e-05
2.121647584e-05
1.917658988e-05
1.734161225e-05
1.568939478e-05
1.42004664e-05
1.285765764e-05
1.16457873e-05
1.055139933e-05
9.562540567e-06
8.668571733e-06
7.860005958e-06
7.128370125e-06
6.466085318e-06
5.866363304e-06
5.323116561e-06
4.83087982e-06
4.384741425e-06
3.980283124e-06
3.613527093e-06
3.280889211e-06
2.979137763e-06
2.705356863e-06
2.456913984e-06
2.231431098e-06
2.026758958e-06
1.840954175e-06
1.672258726e-06
1.51908164e-06
1.37998258e-06
1.253657146e-06
1.138923662e-06
1.034711329e-06
9.40049552e-07
8.540583555e-07
7.759397358e-07
7.049698781e-07
6.404921315e-07
5.819106728e-07
5.286847839e-07
4.803236819e-07
4.363818466e-07
3.96454794e-07
3.601752549e-07
3.272097137e-07
2.97255278e-07
2.700368405e-07
2.453045096e-07
2.228312818e-07
2.024109297e-07
1.838560902e-07
1.669965284e-07
1.516775631e-07
1.377586412e-07
1.251120402e-07
1.136216943e-07
1.031821259e-07
9.369747819e-08
8.508063475e-08
7.725242098e-08
7.01408796e-08
6.368061096e-08
5.781217588e-08
5.248155126e-08
4.763963586e-08
4.324180309e-08
3.924749236e-08
3.56198388e-08
3.232533704e-08
2.933353466e-08
2.661675524e-08
2.414984435e-08
2.19099413e-08
1.987626926e-08
1.802994695e-08
1.635381444e-08
1.483227733e-08
1.345116474e-08
1.219759886e-08
1.105987774e-08
1.002736762e-08
9.090406678e-09
8.24021586e-09
7.468818679e-09
6.768967733e-09
6.13407849e-09
5.55816937e-09
5.035806098e-09
4.562052142e-09
4.132423005e-09
3.742845215e-09
3.389619161e-09
3.069384697e-09
2.779089632e-09
2.515962645e-09
2.277486481e-09
2.061375686e-09
1.865555159e-09
1.688140518e-09
1.527420767e-09
1.381843176e-09
1.249997629e-09
1.130604569e-09
1.022502047e-09
9.246358821e-10
8.360490122e-10
7.558736145e-10
6.833217322e-10
6.176784674e-10
5.5829521e-10
5.045834798e-10
4.560100762e-10
4.120903191e-10
3.723855383e-10
3.36497756e-10
3.040656028e-10
2.747624821e-10
2.482910862e-10
2.243827977e-10
2.027937989e-10
1.833030766e-10
1.65710308e-10
1.498344306e-10
1.355112355e-10
1.225915683e-10
1.109403336e-10
1.00435876e-10
9.096776318e-11
8.243592285e-11
7.474975299e-11
6.782723467e-11
6.15940268e-11
5.598305256e-11
5.093392524e-11
4.639159393e-11
4.230627169e-11
3.863324058e-11
3.533186695e-11
3.236530301e-11
2.970080158e-11
2.730845946e-11
2.51612241e-11
2.323453304e-11
2.150640192e-11
1.995689238e-11
1.856783095e-11
1.732341318e-11
1.620876431e-11
1.521078874e-11
1.43174361e-11
1.351878834e-11
1.280451563e-11
1.216639582e-11
1.159612546e-11
1.108664702e-11
1.063233459e-11
1.022694632e-11
9.865746008e-12
9.543574161e-12
9.256757907e-12
9.001331373e-12
8.773935759e-12
8.57166983e-12
8.391903871e-12
8.232277723e-12
8.090664103e-12
7.964670947e-12
7.852754994e-12
7.753597389e-12
7.66594476e-12
7.588506064e-12
7.520146534e-12
7.459565092e-12
7.406329671e-12
7.359098277e-12
7.317412486e-12
7.280668665e-12
7.248277107e-12
7.219715431e-12
7.194429844e-12
7.172417439e-12
7.152809073e-12
7.135835478e-12
7.120743267e-12
7.107453263e-12
7.095833035e-12
7.086036738e-12
7.077282451e-12
7.069667263e-12
7.063081217e-12
7.057619483e-12
7.052541176e-12
7.048042507e-12
7.044035556e-12
7.040554363e-12
7.037526485e-12
7.034869676e-12
7.032713012e-12
7.030839223e-12
7.029189878e-12
7.027816647e-12
7.026699229e-12
7.025938164e-12
7.025616976e-12
7.025051177e-12
7.024338189e-12
7.023468237e-12
7.023156197e-12
7.022511297e-12
7.022387258e-12
7.02220313e-12
7.021789774e-12
7.021243655e-12
7.020576209e-12
7.020458361e-12
7.020686256e-12
7.020589498e-12
7.020415662e-12
7.020007662e-12
7.019572979e-12
7.019765149e-12
7.019685766e-12
7.01942617e-12
7.018850548e-12
7.018655006e-12
7.018605099e-12
7.018786123e-12
7.018695113e-12
7.019088739e-12
7.019097646e-12
7.018945238e-12
7.018808704e-12
7.019078603e-12
7.018979576e-12
7.018725237e-12
7.018314654e-12
7.01840885e-12
7.018270903e-12
7.018272516e-12
7.018437779e-12
7.018952027e-12
7.019115476e-12
7.018979544e-12
7.018496361e-12
7.018516543e-12
7.019019467e-12
7.019334964e-12
7.019502442e-12
7.019478713e-12
7.01938597e-12
7.019112772e-12
7.019228001e-12
7.019095735e-12
7.018576978e-12
7.018335166e-12
7.018449142e-12
7.018902594e-12
7.018750178e-12
7.018764318e-12
7.019161282e-12
7.019354384e-12
7.019403897e-12
7.019233875e-12
7.019317029e-12
7.019800493e-12
7.019758025e-12
7.01997224e-12
7.019637725e-12
7.019600217e-12
7.019812337e-12
7.019644289e-12
7.02004923e-12
7.020341519e-12
7.020414441e-12
7.020258566e-12
7.019785783e-12
7.019691917e-12
7.019137104e-12
7.01900089e-12
7.019190613e-12
7.019133324e-12
7.018683219e-12
7.018551194e-12
7.01868415e-12
7.018466508e-12
7.01849624e-12
7.018889096e-12
7.018785752e-12
7.019074261e-12
7.018864917e-12
7.019098873e-12
7.019171434e-12
7.019026634e-12
7.019393826e-12
7.019538016e-12
7.019581366e-12
7.019393176e-12
7.019420372e-12
7.01957286e-12
7.019525642e-12
7.019885379e-12
7.019722572e-12
7.019734617e-12
7.019887394e-12
7.01948624e-12
7.019401434e-12
7.019436847e-12
7.019838001e-12
7.019942629e-12
7.019588372e-12
7.019500428e-12
7.019507313e-12
7.019743324e-12
7.019563639e-12
7.019241772e-12
7.019279039e-12
7.019432698e-12
7.019802467e-12
7.01986169e-12
7.019591229e-12
7.019349136e-12
7.01968861e-12
7.019662177e-12
7.020163729e-12
7.020337451e-12
7.020177058e-12
7.020570396e-12
7.020586188e-12
7.020218394e-12
7.020388858e-12
7.020386803e-12
7.020185484e-12
7.019621082e-12
7.019459606e-12
7.019622855e-12
7.020153858e-12
7.020199504e-12
7.019894239e-12
7.019723053e-12
7.01990512e-12
7.019644538e-12
7.018910121e-12
7.018417918e-12
7.018270502e-12
7.018270462e-12
7.018358414e-12
7.01877528e-12
7.018639949e-12
7.01872677e-12
7.018925673e-12
7.019226027e-12
7.019052305e-12
7.018898597e-12
7.01899569e-12
7.019307118e-12
7.019950525e-12
7.020252604e-12
7.020185444e-12
7.019641914e-12
7.019310504e-12
7.019156323e-12
7.019092951e-12
7.019119465e-12
7.018494346e-12
7.018291254e-12
7.018269338e-12
7.018581416e-12
7.018546243e-12
7.01832808e-12
7.018633874e-12
7.018394517e-12
7.018298428e-12
7.018486377e-12
7.018319942e-12
7.018477189e-12
7.018680482e-12
7.01892999e-12
7.018538427e-12
7.01832373e-12
7.018420582e-12
7.018951625e-12
7.019101698e-12
7.018938127e-12
7.01853041e-12
7.018378483e-12
7.018580493e-12
7.018278125e-12
7.018270108e-12
7.018275549e-12
9.188293258e-13
9.203004828e-13
9.231078978e-13
9.271151902e-13
9.321920911e-13
9.382202622e-13
9.450922211e-13
9.527150163e-13
9.610066625e-13
9.698973108e-13
9.793256338e-13
9.892413348e-13
9.996019048e-13
1.010371528e-12
1.021520808e-12
1.033025838e-12
1.044866371e-12
1.057028378e-12
1.069500819e-12
1.082274892e-12
1.095345044e-12
1.108706412e-12
1.122356093e-12
1.136292666e-12
1.150517028e-12
1.165030026e-12
1.179832657e-12
1.194930812e-12
1.210332135e-12
1.226044526e-12
1.24207608e-12
1.258435243e-12
1.275130955e-12
1.292172341e-12
1.309570356e-12
1.327335087e-12
1.345474725e-12
1.363997928e-12
1.382917098e-12
1.402246004e-12
1.421998171e-12
1.442187271e-12
1.462825883e-12
1.483927178e-12
1.50550217e-12
1.527559854e-12
1.550104245e-12
1.57313104e-12
1.596620725e-12
1.620529231e-12
1.645413102e-12
1.671083235e-12
1.697293358e-12
1.724113977e-12
1.751605184e-12
1.779813433e-12
1.808776038e-12
1.838527395e-12
1.86909923e-12
1.900522829e-12
1.932829706e-12
1.966050438e-12
2.000219449e-12
2.035370406e-12
2.071536572e-12
2.10874305e-12
2.147006896e-12
2.186421399e-12
2.227027979e-12
2.26887309e-12
2.312000017e-12
2.356438891e-12
2.402191529e-12
2.449371007e-12
2.498051561e-12
2.548296185e-12
2.600175123e-12
2.653750152e-12
2.709092896e-12
2.766286248e-12
2.825422813e-12
2.886609252e-12
2.949925514e-12
3.015455951e-12
3.083286946e-12
3.153523632e-12
3.226267171e-12
3.301627508e-12
3.382926479e-12
3.46762448e-12
3.555584341e-12
3.646989116e-12
3.74203172e-12
3.840905707e-12
3.943823119e-12
4.050991083e-12
4.162640501e-12
4.278981337e-12
4.528816724e-12
4.796200511e-12
5.07796811e-12
5.375064752e-12
5.688499791e-12
6.019258343e-12
6.368315478e-12
6.736701896e-12
7.125584606e-12
7.536158726e-12
7.971593688e-12
8.440533661e-12
8.936716245e-12
9.461166455e-12
1.001521794e-11
1.05992622e-11
1.121184891e-11
1.185154968e-11
1.25219631e-11
1.320478524e-11
1.396092093e-11
1.45674806e-11
1.539841806e-11
1.597341954e-11
1.692241698e-11
1.749539927e-11
1.860289919e-11
1.919350498e-11
2.080929955e-11
2.211610361e-11
2.539797452e-11
2.680244788e-11
3.070920141e-11
3.221264221e-11
3.686469623e-11
3.847682553e-11
4.413266276e-11
4.598901788e-11
5.404850609e-11
5.766449495e-11
6.981809338e-11
7.954671534e-11
1.061306092e-10
1.217925684e-10
1.602658559e-10
1.841131227e-10
2.647251842e-10
3.160388117e-10
4.513409203e-10
5.546190846e-10
8.847395906e-10
1.13922113e-09
1.954537955e-09
2.745889635e-09
5.121285467e-09
7.609540692e-09
1.586764122e-08
2.643911193e-08
6.490193417e-08
1.273354e-07
2.499098774e-07
5.454661027e-07
2.348267609e-06
2.593080991e-05
0.0003602165704
0.001496545464
0.002738118816
0.003602374372
0.004068967125
0.004212920695
0.004111996654
0.003847142685
0.00348428757
0.003077996388
0.002677081637
0.002307169512
0.001974288256
0.00168397314
0.001437712107
0.001229886314
0.001055667693
0.0009083917466
0.0007862335126
0.0006849595889
0.0005989954461
0.0005256583202
0.0004623748204
0.0004090312434
0.0003642614743
0.0003257998042
0.0002919787372
0.0002620982487
0.0002356066407
0.000211758808
0.0001902646102
0.0001707957002
0.0001528928089
0.0001363743194
0.0001212632829
0.0001077200188
9.574937655e-05
8.5233225e-05
7.600665682e-05
6.790139372e-05
6.076406685e-05
5.44615595e-05
4.888072394e-05
4.392606082e-05
3.951694445e-05
3.558505082e-05
3.207218478e-05
2.892850196e-05
2.611107723e-05
2.358275356e-05
2.131122069e-05
1.92682662e-05
1.742916434e-05
1.577217333e-05
1.427811864e-05
1.293004528e-05
1.171292494e-05
1.061340855e-05
9.619615492e-06
8.720953475e-06
7.907963713e-06
7.172187275e-06
6.506049349e-06
5.902758608e-06
5.356219412e-06
4.860954988e-06
4.412040012e-06
4.005041311e-06
3.635965561e-06
3.301213048e-06
2.997536713e-06
2.72200583e-06
2.47197368e-06
2.245048807e-06
2.039069361e-06
1.852080188e-06
1.682312343e-06
1.52816476e-06
1.388187804e-06
1.261068536e-06
1.145617463e-06
1.040756636e-06
9.455089415e-07
8.589884654e-07
7.803918045e-07
7.089902375e-07
6.441226632e-07
5.851892221e-07
5.316455398e-07
4.829975239e-07
4.387966594e-07
3.986357544e-07
3.62145092e-07
3.289889445e-07
2.988624222e-07
2.714886132e-07
2.466159972e-07
2.240161e-07
2.034813677e-07
1.848232393e-07
1.678703993e-07
1.524671913e-07
1.384721825e-07
1.257568567e-07
1.142044319e-07
1.037087842e-07
9.417347387e-08
8.551085842e-08
7.764128857e-08
7.049237878e-08
6.399834292e-08
5.809939305e-08
5.274119098e-08
4.787435146e-08
4.345399145e-08
3.943931878e-08
3.579325979e-08
3.248212008e-08
2.947527684e-08
2.674489989e-08
2.426569572e-08
2.201467839e-08
1.997095754e-08
1.811554929e-08
1.643120153e-08
1.490223613e-08
1.351440679e-08
1.225476715e-08
1.11115538e-08
1.007407755e-08
9.132625819e-09
8.278374091e-09
7.503304959e-09
6.800133487e-09
6.162241767e-09
5.583617663e-09
5.058799502e-09
4.582825897e-09
4.151189703e-09
3.75979722e-09
3.404930626e-09
3.083213023e-09
2.791577097e-09
2.527237918e-09
2.287666195e-09
2.070565091e-09
1.873849561e-09
1.695626051e-09
1.534175313e-09
1.387937347e-09
1.255494903e-09
1.13556268e-09
1.026972987e-09
9.286667186e-10
8.39682675e-10
7.591485058e-10
6.862727526e-10
6.203369675e-10
5.606894352e-10
5.067395857e-10
4.579511659e-10
4.138372472e-10
3.739575563e-10
3.37911881e-10
3.053374954e-10
2.759058213e-10
2.493187725e-10
2.253061609e-10
2.036229714e-10
1.840476039e-10
1.663788683e-10
1.504343086e-10
1.360492159e-10
1.230737689e-10
1.113725894e-10
1.008231536e-10
9.131466579e-11
8.274653431e-11
7.502777193e-11
6.807573704e-11
6.181604305e-11
5.618158786e-11
5.111099027e-11
4.654961975e-11
4.244743828e-11
3.875899219e-11
3.544392159e-11
3.246523214e-11
2.978971952e-11
2.738766621e-11
2.523152313e-11
2.329695027e-11
2.156150558e-11
2.00056766e-11
1.861110026e-11
1.73617442e-11
1.624269502e-11
1.524060973e-11
1.434411614e-11
1.35422049e-11
1.28250074e-11
1.218448941e-11
1.161215018e-11
1.110068571e-11
1.064471569e-11
1.02377532e-11
9.875187751e-12
9.551842431e-12
9.263927442e-12
9.007615727e-12
8.779436316e-12
8.576333187e-12
8.39611793e-12
8.235703968e-12
8.093533103e-12
7.967034223e-12
7.855002801e-12
7.755708709e-12
7.667917839e-12
7.590138996e-12
7.521564239e-12
7.460809256e-12
7.407267717e-12
7.359832565e-12
7.317991612e-12
7.281107056e-12
7.248465663e-12
7.219811989e-12
7.194512181e-12
7.172531789e-12
7.152819771e-12
7.135743533e-12
7.120803978e-12
7.107659346e-12
7.096020271e-12
7.086097843e-12
7.077275039e-12
7.069803051e-12
7.063153675e-12
7.05754352e-12
7.052402895e-12
7.047879917e-12
7.04389524e-12
7.040458851e-12
7.037591305e-12
7.034777621e-12
7.032813715e-12
7.030970609e-12
7.029335145e-12
7.027929453e-12
7.026787606e-12
7.025926494e-12
7.025341429e-12
7.024705381e-12
7.024043228e-12
7.023388431e-12
7.022995433e-12
7.02250668e-12
7.02240252e-12
7.022025936e-12
7.02140337e-12
7.02092571e-12
7.020524377e-12
7.02045728e-12
7.020523589e-12
7.020261836e-12
7.020149899e-12
7.019632349e-12
7.01941045e-12
7.019597361e-12
7.019369718e-12
7.019349958e-12
7.018892933e-12
7.01883476e-12
7.018527351e-12
7.018566583e-12
7.018683761e-12
7.019034165e-12
7.019247351e-12
7.019149665e-12
7.018851012e-12
7.018966329e-12
7.018661104e-12
7.018402455e-12
7.018278086e-12
7.018277163e-12
7.0182762e-12
7.01846931e-12
7.018475392e-12
7.018874459e-12
7.018925264e-12
7.018823293e-12
7.018461253e-12
7.018504763e-12
7.018732556e-12
7.019037981e-12
7.019234638e-12
7.019089677e-12
7.019083113e-12
7.019191897e-12
7.018984447e-12
7.018993475e-12
7.018765963e-12
7.018447113e-12
7.01859034e-12
7.019022405e-12
7.01905391e-12
7.01882188e-12
7.018901286e-12
7.019007688e-12
7.019135844e-12
7.019353566e-12
7.019362425e-12
7.019836388e-12
7.019978162e-12
7.020009748e-12
7.01985194e-12
7.019804802e-12
7.019746582e-12
7.019531637e-12
7.019679053e-12
7.020084805e-12
7.020167677e-12
7.02010656e-12
7.019879457e-12
7.019678138e-12
7.019193502e-12
7.019151284e-12
7.018973285e-12
7.019054673e-12
7.018844446e-12
7.018724627e-12
7.018581882e-12
7.018702832e-12
7.018562422e-12
7.018921236e-12
7.018845289e-12
7.019113535e-12
7.018875663e-12
7.018862085e-12
7.018913171e-12
7.018962403e-12
7.019115581e-12
7.019220049e-12
7.019324075e-12
7.019658678e-12
7.01975118e-12
7.019708271e-12
7.019571528e-12
7.019930784e-12
7.020011722e-12
7.020035452e-12
7.020003826e-12
7.019659962e-12
7.019733734e-12
7.01953398e-12
7.019629018e-12
7.019917005e-12
7.019753154e-12
7.019808429e-12
7.019757102e-12
7.019715967e-12
7.01959228e-12
7.019343495e-12
7.019640871e-12
7.019696346e-12
7.019634579e-12
7.019712982e-12
7.019288934e-12
7.019200701e-12
7.019594126e-12
7.019601052e-12
7.020016834e-12
7.020211509e-12
7.020075528e-12
7.020479586e-12
7.020503276e-12
7.020147968e-12
7.020124078e-12
7.020099908e-12
7.020042217e-12
7.019700889e-12
7.019618498e-12
7.019697221e-12
7.020136412e-12
7.020280201e-12
7.020187418e-12
7.019859307e-12
7.01992881e-12
7.019628785e-12
7.019178359e-12
7.018538853e-12
7.018287932e-12
7.018332935e-12
7.018511335e-12
7.018884771e-12
7.018815597e-12
7.019089725e-12
7.019292858e-12
7.019226621e-12
7.019368885e-12
7.01912928e-12
7.019229999e-12
7.019460409e-12
7.019804513e-12
7.020171665e-12
7.020171625e-12
7.019893557e-12
7.019593331e-12
7.01953991e-12
7.019476739e-12
7.019257773e-12
7.018594697e-12
7.018317873e-12
7.018279033e-12
7.018458443e-12
7.018294103e-12
7.01828782e-12
7.018707759e-12
7.018699822e-12
7.018381413e-12
7.018363686e-12
7.018463724e-12
7.018914117e-12
7.019109554e-12
7.019083891e-12
7.018865286e-12
7.018422709e-12
7.018454214e-12
7.018906662e-12
7.018936073e-12
7.01871275e-12
7.018766059e-12
7.018509016e-12
7.018621949e-12
7.018382753e-12
7.018489683e-12
7.018434408e-12
2.863246898e-12
2.868125034e-12
2.877377903e-12
2.890539335e-12
2.907175589e-12
2.926892933e-12
2.949339425e-12
2.974205578e-12
3.001221173e-12
3.030153072e-12
3.060801097e-12
3.092997104e-12
3.126599336e-12
3.161489746e-12
3.197569476e-12
3.234758291e-12
3.272990317e-12
3.312216637e-12
3.352400397e-12
3.393512885e-12
3.435533336e-12
3.478445266e-12
3.522238066e-12
3.566906339e-12
3.612450456e-12
3.658874931e-12
3.70599948e-12
3.75388923e-12
3.802703389e-12
3.85246439e-12
3.90319517e-12
3.954920081e-12
4.007666099e-12
4.061463294e-12
4.116344927e-12
4.172342698e-12
4.229477881e-12
4.287774147e-12
4.347270215e-12
4.408009055e-12
4.470033079e-12
4.533383637e-12
4.598099731e-12
4.664220578e-12
4.731782487e-12
4.800816056e-12
4.871340604e-12
4.943352798e-12
5.01681339e-12
5.091604756e-12
5.167398708e-12
5.244377578e-12
5.32286702e-12
5.403029828e-12
5.485064258e-12
5.569097724e-12
5.655230728e-12
5.743552404e-12
5.834146488e-12
5.927098211e-12
6.022498917e-12
6.120422151e-12
6.220954388e-12
6.324193282e-12
6.430238774e-12
6.539188835e-12
6.650351397e-12
6.764105773e-12
6.881084531e-12
7.001418642e-12
7.125242666e-12
7.27294149e-12
7.605104538e-12
7.948940708e-12
8.304948628e-12
8.673645529e-12
9.055581045e-12
9.451324127e-12
9.861478743e-12
1.028672654e-11
1.072795149e-11
1.118650293e-11
1.166281595e-11
1.215744339e-11
1.267115124e-11
1.320484476e-11
1.375948139e-11
1.433606007e-11
1.493556248e-11
1.555479345e-11
1.619795551e-11
1.68680963e-11
1.756688723e-11
1.829602187e-11
1.905715384e-11
1.98521558e-11
2.068327175e-11
2.155202193e-11
2.246066418e-11
2.3410768e-11
2.440392649e-11
2.544327849e-11
2.653182158e-11
2.767239426e-11
2.885842292e-11
3.009006173e-11
3.138099955e-11
3.273418227e-11
3.415370956e-11
3.5643506e-11
3.751538659e-11
4.115107008e-11
4.499469046e-11
4.905402445e-11
5.333498006e-11
5.784271209e-11
6.254348594e-11
6.744973811e-11
7.25772996e-11
7.785720578e-11
8.343816487e-11
8.919233193e-11
9.53788737e-11
1.017740133e-10
1.087470912e-10
1.159628154e-10
1.239186326e-10
1.368851784e-10
1.549924707e-10
1.737350554e-10
1.946833911e-10
2.164888823e-10
2.412249542e-10
2.671931296e-10
2.97324878e-10
3.298225182e-10
3.891353481e-10
4.627752958e-10
5.514511866e-10
6.50238829e-10
7.700432149e-10
9.549541355e-10
1.205748051e-09
1.488690385e-09
1.907816805e-09
2.474090697e-09
3.206005925e-09
4.348124656e-09
5.96267784e-09
8.266737321e-09
1.202446746e-08
1.761136607e-08
2.68640245e-08
4.185928618e-08
6.858653434e-08
1.1420291e-07
2.051346234e-07
3.816945959e-07
7.816816171e-07
1.982829346e-06
7.50599719e-06
4.495848927e-05
0.0002569681975
0.0008095227801
0.001568687948
0.002333968789
0.002994484985
0.003493518447
0.003785117488
0.003858008656
0.003736996901
0.003452266126
0.003090291201
0.002704235226
0.002333518382
0.002000770337
0.001711606899
0.001463537225
0.001253174343
0.001077461701
0.0009287182532
0.0008033362344
0.0006970480152
0.0006069642566
0.0005323499233
0.0004687869539
0.0004138978723
0.0003653760315
0.0003228386764
0.0002856139107
0.0002545467591
0.0002268009989
0.0002021442632
0.0001801582868
0.0001604733474
0.0001428405215
0.0001271090864
0.0001131752897
0.0001008897252
9.007093953e-05
8.053552756e-05
7.211531168e-05
6.466290347e-05
5.805169033e-05
5.217374301e-05
4.693717216e-05
4.226350851e-05
3.808543982e-05
3.434496964e-05
3.099189826e-05
2.798258889e-05
2.527894799e-05
2.284761285e-05
2.065926984e-05
1.868808882e-05
1.69112507e-05
1.530854932e-05
1.386205607e-05
1.255583219e-05
1.137568391e-05
1.030895127e-05
9.344326213e-06
8.471694912e-06
7.682000582e-06
6.967124007e-06
6.319779039e-06
5.733420931e-06
5.202165778e-06
4.720719511e-06
4.284315255e-06
3.888657893e-06
3.529874899e-06
3.204472672e-06
2.909297793e-06
2.641502384e-06
2.398513359e-06
2.17800487e-06
1.977873693e-06
1.796217208e-06
1.631313658e-06
1.481604447e-06
1.345678263e-06
1.222256779e-06
1.110181832e-06
1.008403867e-06
9.159715413e-07
8.320223505e-07
7.557741788e-07
6.865176871e-07
6.236094223e-07
5.664656149e-07
5.145565642e-07
4.674015661e-07
4.245643268e-07
3.856488145e-07
3.50295504e-07
3.181779824e-07
2.889998674e-07
2.624920249e-07
2.38410043e-07
2.165319456e-07
1.966561189e-07
1.785994329e-07
1.621955361e-07
1.472933126e-07
1.33755479e-07
1.214573133e-07
1.102855017e-07
1.001370912e-07
9.091853994e-08
8.254485455e-08
7.493880677e-08
6.803022366e-08
6.17553412e-08
5.605621838e-08
5.08802049e-08
4.617945791e-08
4.191050266e-08
3.803383358e-08
3.451355173e-08
3.131703576e-08
2.841464316e-08
2.577943759e-08
2.338694289e-08
2.121491823e-08
1.924315408e-08
1.745328738e-08
1.582863249e-08
1.43540291e-08
1.301570215e-08
1.180113632e-08
1.069896049e-08
9.698843864e-09
8.79140073e-09
7.968104607e-09
7.221209038e-09
6.543677525e-09
5.929117793e-09
5.371723647e-09
4.866220986e-09
4.407819351e-09
3.992167803e-09
3.615314977e-09
3.273672093e-09
2.963980241e-09
2.683279995e-09
2.428884218e-09
2.198352588e-09
1.989470103e-09
1.800224977e-09
1.628791218e-09
1.473511705e-09
1.332881192e-09
1.205534332e-09
1.090231385e-09
9.858473498e-10
8.913613931e-10
8.058474978e-10
7.284646364e-10
6.584503731e-10
5.951127194e-10
5.378242717e-10
4.860158119e-10
4.391706935e-10
3.968209733e-10
3.585418964e-10
3.239483956e-10
2.926915593e-10
2.644552641e-10
2.389522651e-10
2.159225347e-10
1.951309184e-10
1.763635979e-10
1.594272347e-10
1.441466374e-10
1.303630978e-10
1.179325061e-10
1.067251285e-10
9.662310438e-11
8.751961219e-11
7.931838365e-11
7.193140692e-11
6.527969848e-11
5.929192636e-11
5.390338237e-11
4.905564728e-11
4.469544353e-11
4.07751928e-11
3.725132375e-11
3.40850827e-11
3.124089215e-11
2.868700338e-11
2.639458142e-11
2.433738484e-11
2.249199678e-11
2.083739025e-11
1.935434944e-11
1.802542574e-11
1.683523528e-11
1.576942115e-11
1.481573064e-11
1.396269607e-11
1.319960867e-11
1.251792336e-11
1.190900722e-11
1.136501719e-11
1.087952207e-11
1.044631939e-11
1.006043261e-11
9.716441487e-12
9.409877293e-12
9.136934433e-12
8.893954268e-12
8.67784266e-12
8.485820195e-12
8.314933769e-12
8.163411341e-12
8.028918679e-12
7.909623046e-12
7.803842285e-12
7.710362495e-12
7.627725398e-12
7.554530704e-12
7.489683788e-12
7.432327859e-12
7.381947641e-12
7.337454884e-12
7.298141221e-12
7.263442478e-12
7.23272116e-12
7.205722455e-12
7.18225359e-12
7.161491999e-12
7.143325614e-12
7.127452144e-12
7.113520756e-12
7.10110068e-12
7.090503089e-12
7.081072995e-12
7.073113295e-12
7.065947555e-12
7.05982344e-12
7.054186407e-12
7.049543559e-12
7.045391555e-12
7.04195245e-12
7.038731699e-12
7.035762672e-12
7.033730619e-12
7.031785738e-12
7.030041787e-12
7.028533459e-12
7.027300212e-12
7.026313642e-12
7.025750228e-12
7.025026588e-12
7.024302076e-12
7.023620154e-12
7.023116705e-12
7.022530167e-12
7.022324092e-12
7.021912932e-12
7.021416657e-12
7.020990186e-12
7.020571968e-12
7.020238167e-12
7.020318882e-12
7.020167113e-12
7.019912169e-12
7.019459729e-12
7.019204139e-12
7.019403277e-12
7.019340261e-12
7.019247658e-12
7.019039001e-12
7.018886582e-12
7.018572833e-12
7.018762489e-12
7.01892804e-12
7.019112674e-12
7.019227316e-12
7.019122262e-12
7.018918743e-12
7.01889978e-12
7.018721877e-12
7.01842621e-12
7.018450187e-12
7.018414982e-12
7.018513246e-12
7.018390202e-12
7.018591167e-12
7.018582589e-12
7.018474181e-12
7.018459391e-12
7.018497301e-12
7.018694719e-12
7.018843427e-12
7.018777792e-12
7.018851926e-12
7.019068243e-12
7.019099748e-12
7.019130291e-12
7.018991453e-12
7.018706082e-12
7.018625906e-12
7.018577838e-12
7.018760547e-12
7.019066188e-12
7.019136534e-12
7.019054866e-12
7.019067312e-12
7.019140434e-12
7.019225361e-12
7.019199369e-12
7.019417532e-12
7.01971604e-12
7.019854717e-12
7.019791906e-12
7.019476803e-12
7.019527448e-12
7.019393482e-12
7.019539574e-12
7.019476322e-12
7.019677769e-12
7.019603315e-12
7.019692109e-12
7.019527568e-12
7.019539621e-12
7.019292128e-12
7.018957163e-12
7.018951241e-12
7.018820019e-12
7.018485697e-12
7.018444321e-12
7.018647622e-12
7.018760515e-12
7.018596295e-12
7.018880125e-12
7.019069126e-12
7.019162719e-12
7.018908573e-12
7.019053132e-12
7.019139511e-12
7.019270814e-12
7.01936513e-12
7.019367505e-12
7.019301469e-12
7.019667296e-12
7.019708713e-12
7.019447272e-12
7.019607785e-12
7.019766724e-12
7.019868736e-12
7.019905843e-12
7.019944643e-12
7.019848273e-12
7.019881511e-12
7.01980867e-12
7.019682078e-12
7.01993868e-12
7.019776113e-12
7.019783127e-12
7.019589905e-12
7.019342644e-12
7.01928233e-12
7.019364279e-12
7.019759438e-12
7.019842029e-12
7.019752143e-12
7.019599848e-12
7.019101627e-12
7.019029829e-12
7.019417211e-12
7.019582234e-12
7.019600683e-12
7.019943223e-12
7.019881255e-12
7.02027468e-12
7.020372985e-12
7.020241321e-12
7.019840401e-12
7.019734401e-12
7.019776908e-12
7.020010832e-12
7.020047898e-12
7.019880332e-12
7.01997082e-12
7.0201103e-12
7.020256512e-12
7.020047296e-12
7.019834333e-12
7.019297039e-12
7.019140643e-12
7.018741985e-12
7.018468419e-12
7.018732556e-12
7.018942341e-12
7.019112925e-12
7.019144471e-12
7.01910027e-12
7.019468834e-12
7.019522938e-12
7.019618345e-12
7.019478216e-12
7.019764389e-12
7.01998634e-12
7.020106801e-12
7.020023559e-12
7.019982183e-12
7.019871432e-12
7.019826156e-12
7.019506262e-12
7.019549781e-12
7.019364535e-12
7.018756735e-12
7.018587322e-12
7.01827689e-12
7.018275237e-12
7.018307754e-12
7.018311541e-12
7.018749207e-12
7.018862462e-12
7.018551869e-12
7.018602915e-12
7.01874566e-12
7.01914118e-12
7.019236258e-12
7.018979135e-12
7.018892073e-12
7.018544133e-12
7.018536357e-12
7.018806095e-12
7.018698201e-12
7.018679792e-12
7.018807595e-12
7.018732499e-12
7.018552205e-12
7.018616026e-12
7.018392342e-12
7.018424538e-12
5.55525125e-12
5.563800758e-12
5.579946575e-12
5.60283123e-12
5.631678302e-12
5.665792589e-12
5.704557953e-12
5.747433952e-12
5.793950189e-12
5.843700735e-12
5.89633875e-12
5.951572545e-12
6.009157897e-12
6.068890654e-12
6.13059976e-12
6.19414276e-12
6.259403586e-12
6.326298299e-12
6.394764433e-12
6.464752155e-12
6.536222857e-12
6.609146019e-12
6.683497438e-12
6.759262372e-12
6.836441069e-12
6.91504895e-12
6.993457371e-12
7.072054819e-12
7.152063268e-12
7.233506555e-12
7.316413456e-12
7.400817092e-12
7.486755288e-12
7.574271861e-12
7.663420643e-12
7.754281745e-12