/*--------------------------------*- C++ -*----------------------------------*\
| =========                 |                                                 |
| \\      /  F ield         | OpenFOAM: The Open Source CFD Toolbox           |
|  \\    /   O peration     | Version:  v2006                                 |
|   \\  /    A nd           | Website:  www.openfoam.com                      |
|    \\/     M anipulation  |                                                 |
\*---------------------------------------------------------------------------*/
FoamFile
{
    version     2.0;
    format      ascii;
    class       volScalarField;
    location    "0.1";
    object      CH3O;
}
// * * * * * * * * * * * * * * * * * * * * * * * * * * * * * * * * * * * * * //

dimensions      [0 0 0 0 0 0 0];


internalField   nonuniform List<scalar> 
72000
(
1.327920411e-19
1.329067001e-19
1.331304264e-19
1.334538706e-19
1.3386671e-19
1.343587183e-19
1.349200261e-19
1.355417987e-19
1.362159935e-19
1.369356623e-19
1.376945387e-19
1.384874516e-19
1.393099629e-19
1.401582611e-19
1.410292318e-19
1.419202784e-19
1.428291998e-19
1.437543889e-19
1.446945169e-19
1.456484947e-19
1.466156471e-19
1.475954613e-19
1.485874843e-19
1.49591434e-19
1.506072027e-19
1.516345495e-19
1.526733646e-19
1.537239822e-19
1.547868093e-19
1.55862372e-19
1.569511367e-19
1.580535574e-19
1.591700534e-19
1.603009458e-19
1.61446779e-19
1.62608115e-19
1.637854829e-19
1.649794085e-19
1.661906103e-19
1.674197023e-19
1.68667277e-19
1.699339841e-19
1.71220396e-19
1.725272374e-19
1.738551324e-19
1.752047623e-19
1.765767907e-19
1.779719808e-19
1.793909386e-19
1.808342291e-19
1.823035093e-19
1.837990827e-19
1.853214562e-19
1.868715505e-19
1.884503003e-19
1.900585185e-19
1.916969449e-19
1.933665051e-19
1.950679751e-19
1.968020714e-19
1.985696581e-19
2.003716558e-19
2.022092965e-19
2.040835772e-19
2.059954958e-19
2.087492029e-19
2.186273736e-19
2.287091371e-19
2.390028137e-19
2.495155246e-19
2.602534842e-19
2.712241056e-19
2.824338705e-19
2.938893486e-19
3.055976449e-19
3.175649728e-19
3.298011277e-19
3.423113174e-19
3.55102988e-19
3.681836263e-19
3.815594292e-19
3.952409511e-19
4.092371819e-19
4.235595455e-19
4.382185031e-19
4.532253852e-19
4.685893292e-19
4.843189133e-19
5.004042415e-19
5.168682437e-19
5.337262662e-19
5.509928187e-19
5.686806896e-19
5.867990081e-19
6.053623902e-19
6.243803008e-19
6.438663173e-19
6.638328204e-19
6.842928628e-19
7.052607364e-19
7.267468874e-19
7.487613061e-19
7.713121051e-19
7.944046096e-19
8.180435894e-19
8.422311925e-19
8.669698861e-19
8.922538693e-19
9.180653016e-19
9.443631535e-19
9.711399162e-19
9.983464495e-19
1.025905986e-18
1.053708588e-18
1.110012162e-18
1.216728845e-18
1.312196755e-18
1.453645392e-18
1.402116236e-18
1.756679275e-18
1.522759215e-18
2.061690719e-18
1.61866567e-18
2.388908079e-18
1.704791105e-18
2.746261575e-18
1.787812026e-18
3.148754852e-18
1.871357993e-18
3.614565836e-18
1.953587241e-18
4.163671815e-18
2.036462016e-18
4.86189662e-18
2.126569693e-18
6.164774017e-18
2.353317405e-18
7.519094705e-18
2.782294391e-18
9.416199463e-18
3.389275916e-18
1.18710518e-17
4.980987155e-18
2.242879659e-17
8.674620354e-18
3.967501128e-17
1.328623166e-17
6.492045628e-17
2.657786268e-17
1.824994269e-16
5.608814736e-17
5.607721123e-16
1.724305318e-16
2.541773909e-15
6.892651852e-16
1.294283832e-14
2.622580311e-15
3.719150177e-15
3.68340641e-15
3.870871271e-13
7.767334772e-15
1.889717226e-07
1.386963465e-06
1.545306385e-06
7.890682226e-07
3.255948217e-07
1.019623367e-07
3.125906491e-08
7.784978395e-09
2.360348826e-09
1.011673652e-09
3.83179546e-10
2.276302289e-10
1.002350474e-10
5.670965236e-11
3.668408503e-11
2.15129519e-11
1.022159302e-11
6.308034444e-12
5.136856887e-12
4.142304205e-12
3.344757697e-12
2.881534044e-12
2.549224379e-12
2.221761721e-12
1.947929923e-12
1.726648143e-12
1.523710172e-12
1.305631721e-12
1.116926352e-12
9.542958292e-13
8.148628839e-13
6.905700915e-13
5.792474391e-13
5.011529699e-13
4.444609405e-13
3.875374402e-13
3.369982978e-13
2.935998779e-13
2.566706403e-13
2.2524332e-13
1.983947656e-13
1.753373418e-13
1.554264696e-13
1.381422329e-13
1.230660362e-13
1.098593523e-13
9.824638933e-14
8.800058344e-14
7.893423211e-14
7.089056309e-14
6.373764704e-14
5.736370032e-14
5.167341758e-14
4.658508431e-14
4.202828252e-14
3.794204949e-14
3.427338846e-14
3.09760532e-14
2.800954996e-14
2.533831088e-14
2.293100573e-14
2.075996516e-14
1.88006949e-14
1.703146432e-14
1.543295631e-14
1.398796795e-14
1.26811536e-14
1.149880348e-14
1.042865216e-14
9.459712292e-15
8.582129844e-15
7.787057608e-15
7.066544456e-15
6.41343804e-15
5.82129916e-15
5.284326176e-15
4.797288173e-15
4.355465726e-15
3.954598333e-15
3.590837648e-15
3.260705847e-15
2.961058473e-15
2.689051249e-15
2.442110404e-15
2.217906094e-15
2.014328571e-15
1.829466807e-15
1.661589277e-15
1.509126691e-15
1.370656449e-15
1.244888645e-15
1.130653451e-15
1.026889737e-15
9.326348041e-16
8.470151159e-16
7.692379246e-16
6.985837011e-16
6.343992878e-16
5.760917137e-16
5.231225881e-16
4.75003033e-16
4.31289089e-16
3.915775543e-16
3.555022203e-16
3.22730453e-16
2.92960099e-16
2.659166758e-16
2.413508283e-16
2.190360165e-16
1.987664216e-16
1.803550448e-16
1.636319804e-16
1.484428515e-16
1.346473861e-16
1.221181254e-16
1.107392545e-16
1.004055355e-16
9.102134108e-17
8.249977723e-17
7.476188409e-17
6.773591355e-17
6.13566683e-17
5.556490665e-17
5.030679663e-17
4.553342528e-17
4.120034662e-17
3.726717556e-17
3.369721882e-17
3.045713623e-17
2.751663581e-17
2.484819471e-17
2.242680847e-17
2.022976001e-17
1.823641133e-17
1.642801311e-17
1.47875327e-17
1.329949853e-17
1.194985613e-17
1.07258395e-17
9.615852819e-18
8.60936397e-18
7.696808065e-18
6.86949851e-18
6.119545733e-18
5.439786316e-18
4.823714389e-18
4.265423299e-18
3.759550296e-18
3.301225979e-18
2.886029364e-18
2.509948201e-18
2.169339292e-18
1.860896646e-18
1.581618592e-18
1.328781729e-18
1.099913848e-18
8.927729279e-19
7.053236483e-19
5.357194587e-19
3.822850582e-19
2.435005446e-19
1.179884469e-19
4.497323012e-21
0
0
0
0
0
0
0
0
0
0
0
0
0
0
0
0
0
0
0
0
0
0
0
0
0
0
0
0
0
0
0
0
0
0
0
0
0
0
0
0
0
0
0
0
0
0
0
0
0
0
0
0
0
0
0
0
0
0
0
0
0
0
0
0
0
0
0
0
0
0
0
0
0
0
0
0
0
0
0
0
0
0
0
0
0
0
0
0
0
0
0
0
0
0
0
0
0
0
0
0
0
0
0
0
0
0
0
0
0
0
0
0
0
0
0
0
0
0
0
0
0
0
0
0
0
0
0
0
0
0
0
0
0
0
0
0
0
0
0
0
0
0
0
0
0
0
0
0
0
0
0
0
0
0
0
0
0
0
0
0
0
0
0
0
0
0
0
0
0
0
0
0
0
0
0
0
0
0
0
0
0
0
0
0
0
0
0
0
0
0
0
0
0
0
0
0
0
0
0
0
0
0
0
0
0
0
0
0
0
0
0
0
0
0
0
0
0
0
0
0
0
0
0
0
0
0
0
0
0
0
0
0
0
0
0
0
0
0
0
0
0
0
0
0
0
0
0
0
0
0
0
0
0
0
0
0
0
0
0
0
0
0
0
0
0
0
0
0
0
0
0
0
0
0
0
0
2.55899438e-16
2.568474579e-16
2.5866855e-16
2.612854402e-16
2.646219329e-16
2.686074721e-16
2.731771693e-16
2.782746156e-16
2.838495917e-16
2.898592845e-16
2.96265868e-16
3.030385647e-16
3.101512216e-16
3.175820944e-16
3.253134136e-16
3.333313303e-16
3.416241491e-16
3.501844339e-16
3.590068005e-16
3.680875007e-16
3.774254077e-16
3.870197603e-16
3.968717427e-16
4.069832839e-16
4.173577073e-16
4.279980114e-16
4.389062691e-16
4.500901995e-16
4.615598055e-16
4.733247557e-16
4.853945683e-16
4.977789039e-16
5.104878114e-16
5.235315249e-16
5.36921775e-16
5.506702324e-16
5.647880083e-16
5.792869784e-16
5.941812958e-16
6.094857165e-16
6.25215149e-16
6.413851972e-16
6.580108145e-16
6.751081443e-16
6.926920374e-16
7.107767753e-16
7.293745464e-16
7.484933719e-16
7.681331078e-16
7.882803142e-16
8.294417691e-16
8.838345666e-16
9.402500159e-16
9.987895906e-16
1.05956034e-15
1.122664842e-15
1.188204454e-15
1.256285535e-15
1.327012921e-15
1.400493126e-15
1.476837248e-15
1.55616661e-15
1.63861484e-15
1.72431562e-15
1.813406474e-15
1.906019454e-15
2.002264104e-15
2.102345726e-15
2.206448148e-15
2.314753034e-15
2.427440342e-15
2.54468074e-15
2.666614502e-15
2.793518576e-15
2.925636509e-15
3.063201736e-15
3.206479188e-15
3.355712725e-15
3.511171889e-15
3.673152323e-15
3.841968142e-15
4.017979097e-15
4.201521951e-15
4.392964462e-15
4.592670509e-15
4.801059553e-15
5.018542609e-15
5.245571157e-15
5.775767291e-15
6.362316738e-15
6.978388964e-15
7.625701789e-15
8.305971742e-15
9.020961562e-15
9.772650091e-15
1.056299463e-14
1.139418497e-14
1.226844031e-14
1.372291357e-14
1.532593297e-14
1.707052404e-14
1.896640401e-14
2.102399049e-14
2.325392423e-14
2.566697412e-14
2.827462579e-14
3.108974213e-14
3.412534294e-14
3.790627925e-14
4.438881023e-14
5.147906184e-14
5.920393323e-14
6.758874592e-14
7.664545303e-14
8.63599803e-14
9.669818957e-14
1.07644825e-13
1.189315183e-13
1.311959681e-13
1.412518249e-13
1.543782094e-13
1.638193587e-13
1.787680003e-13
1.881753059e-13
2.058610496e-13
2.156565994e-13
2.414421399e-13
2.619495929e-13
3.235638106e-13
3.533809982e-13
4.398976513e-13
4.747229819e-13
5.885858609e-13
6.304841456e-13
7.862028294e-13
8.478210915e-13
1.113056416e-12
1.262053575e-12
1.716173828e-12
2.105638948e-12
3.488333046e-12
4.520355282e-12
6.952470548e-12
8.841690862e-12
1.564593081e-11
2.116208612e-11
3.583072258e-11
5.073480998e-11
9.51377541e-11
1.404622471e-10
2.802184677e-10
4.43206651e-10
9.321884808e-10
1.519356041e-09
3.398413263e-09
5.93212605e-09
1.456831077e-08
2.815140607e-08
5.292694193e-08
1.047057485e-07
3.004151747e-07
1.179402115e-06
4.841232284e-06
8.220286724e-06
8.609564203e-06
7.434549313e-06
5.630164525e-06
3.739302516e-06
2.127875835e-06
9.83122116e-07
3.722570148e-07
1.089362682e-07
2.476731509e-08
7.887352854e-09
2.798914432e-09
1.042382989e-09
5.370585893e-10
2.244483251e-10
1.335259049e-10
6.344495255e-11
3.221744264e-11
2.264312915e-11
1.525028559e-11
9.504976158e-12
4.979377753e-12
2.842756939e-12
2.436138357e-12
2.097187206e-12
1.805720125e-12
1.553366765e-12
1.337166806e-12
1.164993908e-12
1.016371525e-12
8.874528274e-13
7.73362446e-13
6.722265699e-13
5.835828878e-13
5.072983544e-13
4.422951316e-13
3.870029917e-13
3.398493072e-13
2.994551865e-13
2.646753865e-13
2.345785761e-13
2.084116302e-13
1.855643124e-13
1.655392159e-13
1.479278555e-13
1.323921915e-13
1.186503759e-13
1.064657498e-13
9.563828513e-14
8.599792622e-14
7.739931531e-14
6.971759311e-14
6.284502769e-14
5.668828309e-14
5.116619428e-14
4.62079362e-14
4.175151294e-14
3.774249907e-14
3.41329877e-14
3.088070609e-14
2.794826837e-14
2.530254159e-14
2.291410539e-14
2.075678944e-14
1.880727626e-14
1.704475872e-14
1.545064394e-14
1.400829617e-14
1.270281304e-14
1.152083018e-14
1.04503504e-14
9.480593618e-15
8.601865052e-15
7.805438956e-15
7.083455928e-15
6.428832038e-15
5.835178279e-15
5.296729005e-15
4.808278328e-15
4.365123377e-15
3.963013745e-15
3.598106314e-15
3.266924854e-15
2.966323853e-15
2.693456084e-15
2.445743539e-15
2.220851276e-15
2.016663957e-15
1.831264721e-15
1.662916163e-15
1.510043206e-15
1.371217656e-15
1.245144269e-15
1.130648188e-15
1.026663577e-15
9.322233737e-16
8.464500218e-16
7.68547087e-16
6.977916792e-16
6.335275948e-16
5.751591026e-16
5.221453333e-16
4.739951825e-16
4.302627029e-16
3.90542923e-16
3.544680628e-16
3.217040986e-16
2.919476509e-16
2.649231606e-16
2.403803285e-16
2.180917929e-16
1.978510193e-16
1.794703882e-16
1.627794608e-16
1.47623401e-16
1.338615453e-16
1.213661037e-16
1.100209804e-16
9.972070444e-17
9.036945429e-17
8.18801783e-17
7.417378859e-17
6.717843624e-17
6.082884698e-17
5.506571971e-17
4.983518299e-17
4.508829558e-17
4.078059839e-17
3.687170313e-17
3.332492052e-17
3.010692301e-17
2.718743758e-17
2.453896425e-17
2.213652519e-17
1.995743333e-17
1.798108274e-17
1.618875832e-17
1.456346223e-17
1.308975787e-17
1.175362759e-17
1.054234146e-17
9.444339117e-18
8.449124737e-18
7.547167766e-18
6.729814848e-18
5.989210604e-18
5.318222766e-18
4.710376507e-18
4.159795866e-18
3.661145114e-18
3.209583654e-18
2.800716141e-18
2.430555058e-18
2.095481819e-18
1.792212723e-18
1.517768601e-18
1.269445885e-18
1.044792062e-18
8.415836694e-19
6.578028375e-19
4.916183493e-19
3.413720955e-19
2.055586107e-19
8.281315095e-20
0
0
0
0
0
0
0
0
0
0
0
0
0
0
0
0
0
0
0
0
0
0
0
0
0
0
0
0
0
0
0
0
0
0
0
0
0
0
0
0
0
0
0
0
0
0
0
0
0
0
0
0
0
0
0
0
0
0
0
0
0
0
0
0
0
0
0
0
0
0
0
0
0
0
0
0
0
0
0
0
0
0
0
0
0
0
0
0
0
0
0
0
0
0
0
0
0
0
0
0
0
0
0
0
0
0
0
0
0
0
0
0
0
0
0
0
0
0
0
0
0
0
0
0
0
0
0
0
0
0
0
0
0
0
0
0
0
0
0
0
0
0
0
0
0
0
0
0
0
0
0
0
0
0
0
0
0
0
0
0
0
0
0
0
0
0
0
0
0
0
0
0
0
0
0
0
0
0
0
0
0
0
0
0
0
0
0
0
0
0
0
0
0
0
0
0
0
0
0
0
0
0
0
0
0
0
0
0
0
0
0
0
0
0
0
0
0
0
0
0
0
0
0
0
0
0
0
0
0
0
0
0
0
0
0
0
0
0
0
0
0
0
0
0
0
0
0
0
0
0
0
0
0
0
0
0
0
0
0
0
0
0
0
0
0
0
0
0
0
0
0
0
0
2.255545e-14
2.263039997e-14
2.277312443e-14
2.297709585e-14
2.323614818e-14
2.354462084e-14
2.389740969e-14
2.429000648e-14
2.471845337e-14
2.517932806e-14
2.566968042e-14
2.618704016e-14
2.672931979e-14
2.729479818e-14
2.788204143e-14
2.848992292e-14
2.911752299e-14
2.976419552e-14
3.042949131e-14
3.111309766e-14
3.181485615e-14
3.253468145e-14
3.327260873e-14
3.402876132e-14
3.480333977e-14
3.55966104e-14
3.668420593e-14
3.800756059e-14
3.936760694e-14
4.076557326e-14
4.220271125e-14
4.368030133e-14
4.519969918e-14
4.676234661e-14
4.836976892e-14
5.002353477e-14
5.17252251e-14
5.347654586e-14
5.527942649e-14
5.713584406e-14
5.904784735e-14
6.101755466e-14
6.30470641e-14
6.513857746e-14
6.729428153e-14
6.951631966e-14
7.180679348e-14
7.416750064e-14
7.659971518e-14
7.910344927e-14
8.16752792e-14
8.431968456e-14
8.704375487e-14
8.985216567e-14
9.275051542e-14
9.574334919e-14
9.883490299e-14
1.020293721e-13
1.053308956e-13
1.087436434e-13
1.122715041e-13
1.159193817e-13
1.196923416e-13
1.235957279e-13
1.276350401e-13
1.318158603e-13
1.373142134e-13
1.437931526e-13
1.505243931e-13
1.575190865e-13
1.647889266e-13
1.729822445e-13
1.873329226e-13
2.025813841e-13
2.187739538e-13
2.359591704e-13
2.541886639e-13
2.735161649e-13
2.939983191e-13
3.156964023e-13
3.386809465e-13
3.630412908e-13
3.888410755e-13
4.161502752e-13
4.450473525e-13
4.756197409e-13
5.079597161e-13
5.421656591e-13
5.783399064e-13
6.227344884e-13
6.722235339e-13
7.249614691e-13
7.811505372e-13
8.410048512e-13
9.047481156e-13
9.726208772e-13
1.044890728e-12
1.121813207e-12
1.203687687e-12
1.290782508e-12
1.383372951e-12
1.481834718e-12
1.586550551e-12
1.69790666e-12
1.823643744e-12
1.966758249e-12
2.119422919e-12
2.282147222e-12
2.455586013e-12
2.640368772e-12
2.865550158e-12
3.264685387e-12
3.698636684e-12
4.168871248e-12
4.676483585e-12
5.222176244e-12
5.820906391e-12
6.467765173e-12
7.153779713e-12
7.866129848e-12
8.628736224e-12
9.420943385e-12
1.028663523e-11
1.118854951e-11
1.219200279e-11
1.323820777e-11
1.44185841e-11
1.628321639e-11
1.891752151e-11
2.171699166e-11
2.496896575e-11
2.841801703e-11
3.248358524e-11
3.6843131e-11
4.214099702e-11
4.803467768e-11
5.879939489e-11
7.253419998e-11
9.006906351e-11
1.104627681e-10
1.364656713e-10
1.758736561e-10
2.316037607e-10
2.969100746e-10
3.94262597e-10
5.28442625e-10
7.058154116e-10
9.836581229e-10
1.38452859e-09
1.96205378e-09
2.910829172e-09
4.341284202e-09
6.755312125e-09
1.074169912e-08
1.800756891e-08
3.069230714e-08
5.555310798e-08
1.001228347e-07
1.82299333e-07
3.432981887e-07
7.088234743e-07
1.758764106e-06
4.210587663e-06
7.09666996e-06
9.144874984e-06
1.010812952e-05
1.008214097e-05
9.190627418e-06
7.539894815e-06
5.493995287e-06
3.482322162e-06
1.880332817e-06
8.355695951e-07
2.972557446e-07
8.690564394e-08
2.429906782e-08
7.406475708e-09
2.546325532e-09
1.068047902e-09
5.473886528e-10
2.430350561e-10
1.333307624e-10
7.959305158e-11
3.66158521e-11
2.18585004e-11
1.621899983e-11
1.160464801e-11
7.767628336e-12
4.558139292e-12
2.013765028e-12
1.742827978e-12
1.510428588e-12
1.311991404e-12
1.141746293e-12
9.948695453e-13
8.679261097e-13
7.584337263e-13
6.643784752e-13
5.836759678e-13
5.143003812e-13
4.544501239e-13
4.026037322e-13
3.575040096e-13
3.181187911e-13
2.836001596e-13
2.532487569e-13
2.26484006e-13
2.028205438e-13
1.818500538e-13
1.632269313e-13
1.46657016e-13
1.318885481e-13
1.187051114e-13
1.069198695e-13
9.637088942e-14
8.691732238e-14
7.843625382e-14
7.082010657e-14
6.397446173e-14
5.781624197e-14
5.227217574e-14
4.727750029e-14
4.277485906e-14
3.871335947e-14
3.504776727e-14
3.173781359e-14
2.874759682e-14
2.604506525e-14
2.360156783e-14
2.139146346e-14
1.939177988e-14
1.758191492e-14
1.594337448e-14
1.445954266e-14
1.311547852e-14
1.189773758e-14
1.079421333e-14
9.793996984e-15
8.887253117e-15
8.065109074e-15
7.319556546e-15
6.643363969e-15
6.029998109e-15
5.473554252e-15
4.968693635e-15
4.510587471e-15
4.094866779e-15
3.717577344e-15
3.37513937e-15
3.064311082e-15
2.782156135e-15
2.526014201e-15
2.293474508e-15
2.082351994e-15
1.890665806e-15
1.716619892e-15
1.558585529e-15
1.415085472e-15
1.284779705e-15
1.166452526e-15
1.059000884e-15
9.614238259e-16
8.728129568e-16
7.923437917e-16
7.192679522e-16
6.529060774e-16
5.926414145e-16
5.379140115e-16
4.882154535e-16
4.430840925e-16
4.021007261e-16
3.648846709e-16
3.310902162e-16
3.00403393e-16
2.725390523e-16
2.472382106e-16
2.242656436e-16
2.034077013e-16
1.844703245e-16
1.672772461e-16
1.516683573e-16
1.374982257e-16
1.246347473e-16
1.12957926e-16
1.023587628e-16
9.273824781e-17
8.40064456e-17
7.608166284e-17
6.888969513e-17
6.236313932e-17
5.644077222e-17
5.106698372e-17
4.619126394e-17
4.176773511e-17
3.775472905e-17
3.411439962e-17
3.081237523e-17
2.781743891e-17
2.510124074e-17
2.263803441e-17
2.040443925e-17
1.837922323e-17
1.654310714e-17
1.487858437e-17
1.336975947e-17
1.200220006e-17
1.076280306e-17
9.639671814e-18
8.62200741e-18
7.700005333e-18
6.864766374e-18
6.108213768e-18
5.42301474e-18
4.80251599e-18
4.240678367e-18
3.732021755e-18
3.271573556e-18
2.854822457e-18
2.477673812e-18
2.136414012e-18
1.827673645e-18
1.548396932e-18
1.295811985e-18
1.067404117e-18
8.608939863e-19
6.742138771e-19
5.054891074e-19
3.530204427e-19
2.152677976e-19
9.08338146e-20
0
0
0
0
0
0
0
0
0
0
0
0
0
0
0
0
0
0
0
0
0
0
0
0
0
0
0
0
0
0
0
0
0
0
0
0
0
0
0
0
0
0
0
0
0
0
0
0
0
0
0
0
0
0
0
0
0
0
0
0
0
0
0
0
0
0
0
0
0
0
0
0
0
0
0
0
0
0
0
0
0
0
0
0
0
0
0
0
0
0
0
0
0
0
0
0
0
0
0
0
0
0
0
0
0
0
0
0
0
0
0
0
0
0
0
0
0
0
0
0
0
0
0
0
0
0
0
0
0
0
0
0
0
0
0
0
0
0
0
0
0
0
0
0
0
0
0
0
0
0
0
0
0
0
0
0
0
0
0
0
0
0
0
0
0
0
0
0
0
0
0
0
0
0
0
0
0
0
0
0
0
0
0
0
0
0
0
0
0
0
0
0
0
0
0
0
0
0
0
0
0
0
0
0
0
0
0
0
0
0
0
0
0
0
0
0
0
0
0
0
0
0
0
0
0
0
0
0
0
0
0
0
0
0
0
0
0
0
0
0
0
0
0
0
0
0
0
0
0
0
0
0
0
0
0
0
0
0
0
0
0
0
0
0
0
0
0
0
0
0
2.524608285e-13
2.531636844e-13
2.544945659e-13
2.563875339e-13
2.587827233e-13
2.616262395e-13
2.64870035e-13
2.684717892e-13
2.723945305e-13
2.766062836e-13
2.810796673e-13
2.857916188e-13
2.907228201e-13
2.958572328e-13
3.011815505e-13
3.066849137e-13
3.12358645e-13
3.181966646e-13
3.241947857e-13
3.30349989e-13
3.366604285e-13
3.431251139e-13
3.497437505e-13
3.565170461e-13
3.634467952e-13
3.705360721e-13
3.781548887e-13
3.862289248e-13
3.944961407e-13
4.029615541e-13
4.116308463e-13
4.205101713e-13
4.296061577e-13
4.389259634e-13
4.484773884e-13
4.582693671e-13
4.68307843e-13
4.78598264e-13
4.891515348e-13
4.999784742e-13
5.110893459e-13
5.224944242e-13
5.342039262e-13
5.462283238e-13
5.58578338e-13
5.71264497e-13
5.842968363e-13
5.976836246e-13
6.114318924e-13
6.255472316e-13
6.400360882e-13
6.549154992e-13
6.76591998e-13
7.156443984e-13
7.562132415e-13
7.98379144e-13
8.422196253e-13
8.878100101e-13
9.352259567e-13
9.845452582e-13
1.036255117e-12
1.090217078e-12
1.146486534e-12
1.205175995e-12
1.266398277e-12
1.33026983e-12
1.396904715e-12
1.466432e-12
1.538991507e-12
1.614727419e-12
1.693795138e-12
1.776367643e-12
1.862640775e-12
1.952752741e-12
2.046872348e-12
2.145184226e-12
2.24788548e-12
2.35518163e-12
2.46728328e-12
2.584390713e-12
2.706752262e-12
2.831631104e-12
2.961369081e-12
3.097043316e-12
3.238952381e-12
3.387422384e-12
3.542799848e-12
3.705450045e-12
3.875758406e-12
4.054144605e-12
4.241044571e-12
4.436911425e-12
4.642347251e-12
4.857967738e-12
5.084259127e-12
5.319637419e-12
5.551241834e-12
5.794047829e-12
6.048697004e-12
6.315851787e-12
6.96350828e-12
7.676286683e-12
8.434248954e-12
9.24055513e-12
1.009762697e-11
1.100847911e-11
1.197566267e-11
1.29581111e-11
1.39989057e-11
1.51016334e-11
1.626995656e-11
1.750772192e-11
1.881792544e-11
2.020351889e-11
2.166745985e-11
2.321258524e-11
2.475855791e-11
2.635814457e-11
2.803415351e-11
3.086955798e-11
3.492375339e-11
3.921870838e-11
4.380422667e-11
4.868246986e-11
5.392214939e-11
5.94279211e-11
6.525816662e-11
7.148497229e-11
7.821678489e-11
8.543439317e-11
9.855385794e-11
1.145311671e-10
1.321697356e-10
1.509901021e-10
1.719400687e-10
1.95207495e-10
2.269198615e-10
2.758907031e-10
3.31339415e-10
3.941982747e-10
4.715145385e-10
5.947505807e-10
7.374192025e-10
9.171586183e-10
1.189292674e-09
1.508190044e-09
2.020504885e-09
2.691165295e-09
3.670422977e-09
5.154399265e-09
7.395652991e-09
1.082554978e-08
1.63952192e-08
2.52897772e-08
4.022602796e-08
6.529315467e-08
1.076869189e-07
1.772123131e-07
2.870679786e-07
4.479507315e-07
6.769310409e-07
1.119427285e-06
2.002653922e-06
3.185002079e-06
4.377277217e-06
5.458895411e-06
6.410503347e-06
7.209071928e-06
7.718229559e-06
7.6900166e-06
6.916885968e-06
5.48412319e-06
3.759696009e-06
2.182398675e-06
1.052454366e-06
4.116741526e-07
1.372564114e-07
3.853945486e-08
1.082447419e-08
4.573382086e-09
1.885338477e-09
7.897313954e-10
4.5175771e-10
2.150032867e-10
1.164359316e-10
7.401662962e-11
3.835146688e-11
1.92038451e-11
1.461911246e-11
1.074172552e-11
7.442268992e-12
4.620494355e-12
2.202357918e-12
1.465516548e-12
1.284470825e-12
1.128193136e-12
9.9315892e-13
8.763606174e-13
7.75140043e-13
6.871624632e-13
6.104344848e-13
5.432937454e-13
4.843587153e-13
4.324773967e-13
3.866855899e-13
3.461735657e-13
3.102569322e-13
2.783533365e-13
2.499651649e-13
2.24665188e-13
2.020852136e-13
1.81906256e-13
1.638512723e-13
1.476788387e-13
1.331779363e-13
1.201636261e-13
1.084733952e-13
9.79641498e-14
8.850960472e-14
7.999810036e-14
7.233072339e-14
6.541970442e-14
5.918704335e-14
5.356331599e-14
4.848664861e-14
4.390182732e-14
3.975952223e-14
3.601561245e-14
3.263059454e-14
2.956906597e-14
2.679927154e-14
2.429270324e-14
2.202374801e-14
1.996937754e-14
1.810887235e-14
1.64235795e-14
1.489669605e-14
1.351307713e-14
1.22590652e-14
1.112233805e-14
1.009177309e-14
9.157326539e-15
8.309924805e-15
7.541367918e-15
6.844242749e-15
6.211845342e-15
5.638111223e-15
5.11755277e-15
4.645203164e-15
4.216565642e-15
3.827568212e-15
3.474522662e-15
3.154087718e-15
2.863235826e-15
2.599223207e-15
2.359562818e-15
2.142000028e-15
1.944490524e-15
1.765180489e-15
1.602388606e-15
1.454589834e-15
1.320400715e-15
1.198566108e-15
1.087947154e-15
9.875104368e-16
8.963181165e-16
8.135190342e-16
7.383406398e-16
6.700816862e-16
6.081056056e-16
5.518345182e-16
5.007437779e-16
4.543570656e-16
4.12241903e-16
3.740056078e-16
3.392916179e-16
3.077761581e-16
2.791652174e-16
2.531918032e-16
2.296134573e-16
2.082099928e-16
1.887814477e-16
1.711462236e-16
1.551393982e-16
1.406111912e-16
1.27425576e-16
1.154590135e-16
1.045993071e-16
9.474456196e-17
8.580223836e-17
7.76882936e-17
7.032640312e-17
6.364725224e-17
5.75878916e-17
5.209115593e-17
4.710513142e-17
4.258267558e-17
3.848097838e-17
3.476116596e-17
3.138793912e-17
2.832924593e-17
2.555598254e-17
2.304172457e-17
2.076248009e-17
1.869646718e-17
1.68239103e-17
1.512685701e-17
1.358900959e-17
1.219557454e-17
1.093312281e-17
9.789465048e-18
8.75353932e-18
7.815304256e-18
6.965648104e-18
6.196302514e-18
5.499762751e-18
4.869221727e-18
4.298501021e-18
3.781996564e-18
3.314623441e-18
2.891770369e-18
2.509253313e-18
2.163277222e-18
1.850401465e-18
1.567505071e-18
1.311758344e-18
1.080595235e-18
8.716900002e-19
6.829334743e-19
5.124141432e-19
3.583994323e-19
2.193197279e-19
9.375199264e-20
0
0
0
0
0
0
0
0
0
0
0
0
0
0
0
0
0
0
0
0
0
0
0
0
0
0
0
0
0
0
0
0
0
0
0
0
0
0
0
0
0
0
0
0
0
0
0
0
0
0
0
0
0
0
0
0
0
0
0
0
0
0
0
0
0
0
0
0
0
0
0
0
0
0
0
0
0
0
0
0
0
0
0
0
0
0
0
0
0
0
0
0
0
0
0
0
0
0
0
0
0
0
0
0
0
0
0
0
0
0
0
0
0
0
0
0
0
0
0
0
0
0
0
0
0
0
0
0
0
0
0
0
0
0
0
0
0
0
0
0
0
0
0
0
0
0
0
0
0
0
0
0
0
0
0
0
0
0
0
0
0
0
0
0
0
0
0
0
0
0
0
0
0
0
0
0
0
0
0
0
0
0
0
0
0
0
0
0
0
0
0
0
0
0
0
0
0
0
0
0
0
0
0
0
0
0
0
0
0
0
0
0
0
0
0
0
0
0
0
0
0
0
0
0
0
0
0
0
0
0
0
0
0
0
0
0
0
0
0
0
0
0
0
0
0
0
0
0
0
0
0
0
0
0
0
0
0
0
0
0
0
0
0
0
0
0
0
7.6310252e-13
7.645688411e-13
7.67332985e-13
7.71246831e-13
7.761786682e-13
7.820117869e-13
7.886433997e-13
7.959836003e-13
8.039542524e-13
8.124878956e-13
8.215268649e-13
8.310230116e-13
8.40936274e-13
8.512332402e-13
8.618859937e-13
8.728709277e-13
8.841662407e-13
8.957610874e-13
9.076470239e-13
9.198169849e-13
9.322657349e-13
9.449895501e-13
9.579856403e-13
9.712509848e-13
9.847874027e-13
9.986016322e-13
1.012700673e-12
1.027089291e-12
1.041771483e-12
1.056753125e-12
1.072041313e-12
1.087644075e-12
1.103570243e-12
1.119829385e-12
1.136431614e-12
1.151532295e-12
1.166808149e-12
1.215680513e-12
1.274479001e-12
1.334816538e-12
1.396745219e-12
1.460316948e-12
1.525583605e-12
1.592598333e-12
1.661418045e-12
1.732113209e-12
1.804753847e-12
1.879345557e-12
1.955919484e-12
2.034514366e-12
2.115185903e-12
2.198033138e-12
2.283197903e-12
2.37082691e-12
2.461017147e-12
2.553886805e-12
2.649555609e-12
2.748132239e-12
2.849726437e-12
2.954451733e-12
3.062420766e-12
3.171185852e-12
3.279460392e-12
3.390926639e-12
3.505718474e-12
3.623989711e-12
3.74595076e-12
3.8716982e-12
4.001344865e-12
4.135047156e-12
4.272982278e-12
4.41534388e-12
4.562329688e-12
4.714113387e-12
4.870878709e-12
5.032826323e-12
5.200171386e-12
5.373139845e-12
5.551968157e-12
5.729166056e-12
5.903610476e-12
6.083373055e-12
6.268728846e-12
6.459959353e-12
6.657286901e-12
6.861031437e-12
7.071507762e-12
7.289033375e-12
7.513936089e-12
7.746559571e-12
7.987278133e-12
8.516026224e-12
9.274993814e-12
1.005009976e-11
1.085520433e-11
1.169169727e-11
1.25609865e-11
1.346513124e-11
1.440613368e-11
1.538613671e-11
1.640771492e-11
1.747324365e-11
1.857938363e-11
1.970720011e-11
2.088072397e-11
2.210245072e-11
2.337514708e-11
2.470187788e-11
2.608540477e-11
2.752923722e-11
2.903641728e-11
3.058698682e-11
3.219770492e-11
3.506910589e-11
3.931770163e-11
4.376794141e-11
4.843093672e-11
5.331445155e-11
5.842518907e-11
6.376894658e-11
6.937608359e-11
7.52677311e-11
8.147782598e-11
8.803069491e-11
9.496739995e-11
1.05421265e-10
1.210395643e-10
1.376886457e-10
1.555034456e-10
1.745800125e-10
1.950972565e-10
2.172825534e-10
2.414520119e-10
2.858995091e-10
3.354410875e-10
3.902682548e-10
4.51694165e-10
5.226384275e-10
6.415926273e-10
7.765277848e-10
9.30373984e-10
1.155625305e-09
1.445751799e-09
1.79337431e-09
2.326517879e-09
2.970821647e-09
3.942145673e-09
5.250980351e-09
7.088855954e-09
9.789309126e-09
1.378608359e-08
1.98337929e-08
2.909415007e-08
4.338755329e-08
6.592436085e-08
1.014571001e-07
1.567115815e-07
2.395539689e-07
3.545634712e-07
4.90257828e-07
6.12811433e-07
7.097550457e-07
8.378804235e-07
1.070715598e-06
1.425492687e-06
1.895854582e-06
2.472817978e-06
3.142370643e-06
3.904758652e-06
4.713427215e-06
5.506752537e-06
6.062883147e-06
6.020337135e-06
5.200507816e-06
3.853192212e-06
2.413661044e-06
1.27865811e-06
5.780244581e-07
2.216106416e-07
7.460524388e-08
2.324333584e-08
7.264246377e-09
3.042958144e-09
1.505810981e-09
6.238443242e-10
3.885144771e-10
1.871299042e-10
1.049661405e-10
6.882042431e-11
3.767583018e-11
1.777505861e-11
1.387507476e-11
1.049906983e-11
7.567841589e-12
5.014370265e-12
2.785810107e-12
1.365289005e-12
1.211474989e-12
1.076881492e-12
9.588091371e-13
8.549376607e-13
7.633353783e-13
6.823806289e-13
6.106924583e-13
5.47091078e-13
4.905706624e-13
4.402683755e-13
3.954378685e-13
3.554331009e-13
3.196926136e-13
2.877282417e-13
2.591121882e-13
2.334699143e-13
2.104725942e-13
1.898308833e-13
1.712897029e-13
1.546236212e-13
1.396332563e-13
1.261419013e-13
1.139927445e-13
1.030464207e-13
9.317890821e-14
8.427972851e-14
7.625033485e-14
6.900273545e-14
6.245828625e-14
5.654662776e-14
5.120476138e-14
4.637622737e-14
4.201038787e-14
3.806179554e-14
3.448963065e-14
3.125720635e-14
2.833152993e-14
2.568291188e-14
2.328462281e-14
2.111258491e-14
1.914509811e-14
1.736259623e-14
1.574742948e-14
1.428367029e-14
1.29569401e-14
1.175425324e-14
1.066387837e-14
9.6752137e-15
8.778675354e-15
7.965597163e-15
7.228140499e-15
6.559213748e-15
5.952399152e-15
5.401887767e-15
4.902420474e-15
4.449234984e-15
4.038018078e-15
3.664862567e-15
3.326228417e-15
3.018907861e-15
2.7399936e-15
2.486850408e-15
2.257089296e-15
2.048544235e-15
1.859251113e-15
1.687428717e-15
1.531461508e-15
1.389884096e-15
1.261367139e-15
1.144704614e-15
1.038802289e-15
9.426672826e-16
8.553986108e-16
7.761786406e-16
7.042653039e-16
6.38985114e-16
5.797267663e-16
5.259353818e-16
4.771072744e-16
4.327852086e-16
3.925541045e-16
3.560371284e-16
3.22892171e-16
2.928086295e-16
2.655045041e-16
2.40723757e-16
2.182339184e-16
1.978239132e-16
1.793020918e-16
1.624944372e-16
1.472429443e-16
1.334041451e-16
1.208477709e-16
1.094555376e-16
9.912004325e-17
8.974376958e-17
8.123816836e-17
7.352284207e-17
6.652479102e-17
6.017773524e-17
5.442149602e-17
4.920143539e-17
4.446794681e-17
4.017599394e-17
3.628468837e-17
3.275691021e-17
2.95589616e-17
2.666025184e-17
2.403301153e-17
2.16520336e-17
1.949443731e-17
1.753945543e-17
1.576823831e-17
1.41636784e-17
1.271024988e-17
1.139386258e-17
1.020173104e-17
9.122252905e-18
8.144901017e-18
7.260124069e-18
6.459255596e-18
5.734434124e-18
5.078527677e-18
4.485067603e-18
3.948186021e-18
3.462560965e-18
3.023366457e-18
2.62622563e-18
2.267170104e-18
1.942602115e-18
1.649259318e-18
1.384183999e-18
1.14469602e-18
9.283656825e-19
7.329915849e-19
5.565784265e-19
3.973180764e-19
2.535726413e-19
1.238586079e-19
6.831988943e-21
0
0
0
0
0
0
0
0
0
0
0
0
0
0
0
0
0
0
0
0
0
0
0
0
0
0
0
0
0
0
0
0
0
0
0
0
0
0
0
0
0
0
0
0
0
0
0
0
0
0
0
0
0
0
0
0
0
0
0
0
0
0
0
0
0
0
0
0
0
0
0
0
0
0
0
0
0
0
0
0
0
0
0
0
0
0
0
0
0
0
0
0
0
0
0
0
0
0
0
0
0
0
0
0
0
0
0
0
0
0
0
0
0
0
0
0
0
0
0
0
0
0
0
0
0
0
0
0
0
0
0
0
0
0
0
0
0
0
0
0
0
0
0
0
0
0
0
0
0
0
0
0
0
0
0
0
0
0
0
0
0
0
0
0
0
0
0
0
0
0
0
0
0
0
0
0
0
0
0
0
0
0
0
0
0
0
0
0
0
0
0
0
0
0
0
0
0
0
0
0
0
0
0
0
0
0
0
0
0
0
0
0
0
0
0
0
0
0
0
0
0
0
0
0
0
0
0
0
0
0
0
0
0
0
0
0
0
0
0
0
0
0
0
0
0
0
0
0
0
0
0
0
0
0
0
0
0
0
0
0
0
0
0
1.151755962e-12
1.153395236e-12
1.156475715e-12
1.160822693e-12
1.166282022e-12
1.172718286e-12
1.180013143e-12
1.188063715e-12
1.196780937e-12
1.206087741e-12
1.215916535e-12
1.226213915e-12