/*--------------------------------*- C++ -*----------------------------------*\
| =========                 |                                                 |
| \\      /  F ield         | OpenFOAM: The Open Source CFD Toolbox           |
|  \\    /   O peration     | Version:  v2006                                 |
|   \\  /    A nd           | Website:  www.openfoam.com                      |
|    \\/     M anipulation  |                                                 |
\*---------------------------------------------------------------------------*/
FoamFile
{
    version     2.0;
    format      ascii;
    class       volScalarField;
    location    "0.1";
    object      CH4;
}
// * * * * * * * * * * * * * * * * * * * * * * * * * * * * * * * * * * * * * //

dimensions      [0 0 0 0 0 0 0];


internalField   nonuniform List<scalar> 
72000
(
3.019714497e-12
3.019762925e-12
3.019855946e-12
3.01998866e-12
3.020156459e-12
3.020355127e-12
3.020580815e-12
3.020830241e-12
3.021100411e-12
3.021388826e-12
3.021693268e-12
3.022011905e-12
3.0223432e-12
3.022685845e-12
3.023038743e-12
3.023401025e-12
3.023771953e-12
3.024150915e-12
3.024537452e-12
3.024931176e-12
3.025331826e-12
3.025740417e-12
3.026155746e-12
3.026577455e-12
3.02700543e-12
3.027439596e-12
3.027879827e-12
3.028326205e-12
3.028778889e-12
3.029237997e-12
3.029703653e-12
3.030175983e-12
3.030655125e-12
3.031141219e-12
3.031634447e-12
3.032134964e-12
3.03264285e-12
3.033158195e-12
3.033681189e-12
3.034212062e-12
3.034751026e-12
3.035298287e-12
3.03585401e-12
3.036418361e-12
3.036991412e-12
3.037573214e-12
3.038163664e-12
3.03876233e-12
3.039368355e-12
3.039980362e-12
3.040626167e-12
3.041294207e-12
3.04197026e-12
3.042655912e-12
3.043352538e-12
3.044061087e-12
3.044782174e-12
3.045516433e-12
3.046264278e-12
3.047026207e-12
3.047802728e-12
3.048593839e-12
3.049400057e-12
3.050221594e-12
3.051059055e-12
3.051929215e-12
3.052962419e-12
3.054017426e-12
3.055095306e-12
3.056196712e-12
3.057322104e-12
3.058471528e-12
3.05964473e-12
3.06084361e-12
3.062069588e-12
3.063323364e-12
3.064605887e-12
3.065917923e-12
3.067260569e-12
3.068634861e-12
3.070042039e-12
3.071483738e-12
3.072961013e-12
3.074474662e-12
3.076025585e-12
3.07761498e-12
3.079244005e-12
3.080914026e-12
3.082633042e-12
3.084399281e-12
3.086211842e-12
3.088073097e-12
3.089985255e-12
3.091950502e-12
3.093971006e-12
3.096049339e-12
3.098187738e-12
3.10038804e-12
3.102645356e-12
3.104968542e-12
3.107360412e-12
3.109824125e-12
3.112363096e-12
3.114979816e-12
3.117677363e-12
3.120458486e-12
3.123326495e-12
3.126284262e-12
3.129335035e-12
3.132479195e-12
3.135722502e-12
3.139063648e-12
3.14250495e-12
3.146070246e-12
3.149849711e-12
3.15687684e-12
3.144459617e-12
3.2341083e-12
2.967066773e-12
3.487430275e-12
2.962971584e-12
3.77469907e-12
2.958702789e-12
4.093545654e-12
2.954175383e-12
4.434997425e-12
2.948264075e-12
4.810762308e-12
2.943658004e-12
5.241725418e-12
2.937252598e-12
5.7466817e-12
2.929550833e-12
6.39043747e-12
2.914534853e-12
7.589352474e-12
2.903568024e-12
7.997240194e-12
2.886165727e-12
8.35134125e-12
2.875011942e-12
8.78825381e-12
2.88634131e-12
9.500515798e-12
2.938326107e-12
1.046424741e-11
3.003230678e-12
1.163861437e-11
3.015152075e-12
1.38089521e-11
2.986797871e-12
1.602820413e-11
2.94053367e-12
2.231517094e-11
2.861388882e-12
2.708870974e-11
2.713541498e-12
2.600586354e-12
2.465467439e-12
2.569212013e-10
9.718493473e-12
0.0002586193016
0.003162297857
0.007772219742
0.01262933995
0.01723846355
0.02151986951
0.02548345554
0.02913831478
0.03248179136
0.03551050889
0.03821726463
0.04060711936
0.04268832504
0.04448235426
0.0460139638
0.04731176606
0.0484062136
0.04932751035
0.05010265823
0.05075587455
0.05130779849
0.05177629683
0.05217566039
0.05251791585
0.05281258221
0.05306728694
0.05328861781
0.05348245509
0.05365282591
0.05380212274
0.05393265915
0.05405012918
0.05415650863
0.05425319064
0.05434434877
0.05443394329
0.05451613548
0.05458935162
0.05465375768
0.05471017766
0.05475960423
0.05480299316
0.05484119091
0.05487492097
0.05490479305
0.05493131938
0.05495493131
0.0549759938
0.05499481745
0.0550116682
0.05502677501
0.05504033608
0.05505252373
0.05506348846
0.0550733622
0.05508226097
0.05509028711
0.05509753117
0.05510407339
0.05510998512
0.05511532983
0.05512016418
0.05512453874
0.05512849878
0.05513208485
0.05513533331
0.05513827681
0.05514094471
0.05514336341
0.05514555668
0.05514754594
0.05514935051
0.05515098783
0.05515247363
0.05515382213
0.05515504617
0.05515615739
0.05515716628
0.05515808237
0.05515891426
0.05515966977
0.05516035594
0.0551609792
0.05516154533
0.05516205961
0.05516252681
0.05516295125
0.05516333686
0.05516368721
0.05516400554
0.05516429476
0.05516455756
0.05516479634
0.05516501331
0.05516521046
0.05516538961
0.05516555238
0.05516570029
0.05516583469
0.05516595682
0.05516606778
0.05516616861
0.05516626022
0.05516634346
0.05516641909
0.05516648781
0.05516655024
0.05516660696
0.05516665849
0.05516670531
0.05516674784
0.05516678647
0.05516682157
0.05516685345
0.0551668824
0.0551669087
0.05516693259
0.05516695428
0.05516697398
0.05516699187
0.05516700812
0.05516702287
0.05516703627
0.05516704843
0.05516705947
0.0551670695
0.05516707859
0.05516708685
0.05516709435
0.05516710115
0.05516710733
0.05516711293
0.05516711802
0.05516712263
0.05516712681
0.05516713061
0.05516713405
0.05516713718
0.05516714001
0.05516714258
0.05516714491
0.05516714702
0.05516714894
0.05516715067
0.05516715225
0.05516715367
0.05516715496
0.05516715614
0.0551671572
0.05516715816
0.05516715903
0.05516715982
0.05516716053
0.05516716118
0.05516716176
0.05516716229
0.05516716277
0.05516716321
0.0551671636
0.05516716395
0.05516716427
0.05516716456
0.05516716483
0.05516716507
0.05516716528
0.05516716547
0.05516716565
0.05516716581
0.05516716595
0.05516716608
0.0551671662
0.0551671663
0.0551671664
0.05516716648
0.05516716656
0.05516716663
0.05516716669
0.05516716675
0.0551671668
0.05516716684
0.05516716689
0.05516716692
0.05516716696
0.05516716699
0.05516716701
0.05516716704
0.05516716706
0.05516716708
0.0551671671
0.05516716711
0.05516716713
0.05516716714
0.05516716715
0.05516716716
0.05516716717
0.05516716718
0.05516716719
0.0551671672
0.0551671672
0.05516716721
0.05516716721
0.05516716722
0.05516716722
0.05516716722
0.05516716723
0.05516716723
0.05516716723
0.05516716723
0.05516716723
0.05516716724
0.05516716724
0.05516716724
0.05516716724
0.05516716724
0.05516716724
0.05516716724
0.05516716724
0.05516716725
0.05516716725
0.05516716725
0.05516716725
0.05516716725
0.05516716725
0.05516716725
0.05516716725
0.05516716725
0.05516716725
0.05516716725
0.05516716725
0.05516716725
0.05516716725
0.05516716725
0.05516716725
0.05516716725
0.05516716725
0.05516716725
0.05516716725
0.05516716725
0.05516716725
0.05516716725
0.05516716725
0.05516716725
0.05516716725
0.05516716725
0.05516716725
0.05516716725
0.05516716725
0.05516716725
0.05516716725
0.05516716725
0.05516716725
0.05516716725
0.05516716725
0.05516716725
0.05516716725
0.05516716725
0.05516716725
0.05516716725
0.05516716725
0.05516716725
0.05516716725
0.05516716725
0.05516716725
0.05516716725
0.05516716725
0.05516716725
0.05516716725
0.05516716725
0.05516716725
0.05516716725
0.05516716725
0.05516716725
0.05516716725
0.05516716725
0.05516716725
0.05516716725
0.05516716725
0.05516716725
0.05516716725
0.05516716725
0.05516716725
0.05516716725
0.05516716725
0.05516716725
0.05516716725
0.05516716725
0.05516716725
0.05516716725
0.05516716725
0.05516716725
0.05516716725
0.05516716725
0.05516716725
0.05516716725
0.05516716725
0.05516716725
0.05516716725
0.05516716725
0.05516716725
0.05516716725
0.05516716725
0.05516716725
0.05516716725
0.05516716725
0.05516716725
0.05516716725
0.05516716725
0.05516716725
0.05516716725
0.05516716725
0.05516716725
0.05516716725
0.05516716725
0.05516716725
0.05516716725
0.05516716725
0.05516716725
0.05516716725
0.05516716725
0.05516716725
0.05516716725
0.05516716725
0.05516716725
0.05516716725
0.05516716725
0.05516716725
0.05516716725
0.05516716725
0.05516716725
0.05516716725
0.05516716725
0.05516716725
0.05516716725
0.05516716725
0.05516716725
0.05516716725
0.05516716725
0.05516716725
0.05516716725
0.05516716725
0.05516716725
0.05516716725
0.05516716725
0.05516716725
0.05516716725
0.05516716725
0.05516716725
0.05516716725
0.05516716725
0.05516716725
0.05516716725
0.05516716725
0.05516716725
0.05516716725
0.05516716725
0.05516716725
0.05516716725
0.05516716725
0.05516716725
0.05516716725
0.05516716725
0.05516716725
0.05516716725
0.05516716725
0.05516716725
0.05516716725
0.05516716725
0.05516716725
0.05516716725
0.05516716725
0.05516716725
0.05516716725
0.05516716725
0.05516716725
0.05516716725
0.05516716725
0.05516716725
0.05516716725
0.05516716725
0.05516716725
0.05516716725
0.05516716725
0.05516716725
0.05516716725
0.05516716725
0.05516716725
0.05516716725
0.05516716725
0.05516716725
0.05516716725
0.05516716725
0.05516716725
0.05516716725
0.05516716725
0.05516716725
0.05516716725
0.05516716725
0.05516716725
0.05516716725
0.05516716725
0.05516716725
0.05516716725
0.05516716725
0.05516716725
0.05516716725
0.05516716725
0.05516716725
0.05516716725
0.05516716725
0.05516716725
0.05516716725
0.05516716725
0.05516716725
0.05516716725
0.05516716725
0.05516716725
0.05516716725
0.05516716725
0.05516716725
0.05516716725
0.05516716725
0.05516716725
0.05516716725
0.05516716725
0.05516716725
0.05516716725
0.05516716725
0.05516716725
0.05516716725
0.05516716725
0.05516716725
0.05516716725
0.05516716725
0.05516716725
0.05516716725
0.05516716725
0.05516716725
0.05516716725
0.05516716725
2.37699189e-11
2.381280665e-11
2.389465993e-11
2.401152136e-11
2.415961662e-11
2.433552148e-11
2.453612841e-11
2.475875259e-11
2.500102711e-11
2.526093683e-11
2.553671275e-11
2.582690552e-11
2.613029095e-11
2.644583833e-11
2.677270282e-11
2.711019858e-11
2.745774548e-11
2.781494454e-11
2.818148359e-11
2.855711528e-11
2.894168733e-11
2.933506726e-11
2.973717996e-11
3.014799379e-11
3.056754512e-11
3.099586873e-11
3.143300334e-11
3.187913299e-11
3.233449421e-11
3.27993314e-11
3.327389503e-11
3.375844631e-11
3.425326163e-11
3.47586232e-11
3.52748681e-11
3.58023085e-11
3.634120113e-11
3.689181731e-11
3.745453985e-11
3.802979262e-11
3.861799306e-11
3.921956408e-11
3.983489668e-11
4.046440068e-11
4.110842243e-11
4.176724919e-11
4.244102123e-11
4.312963219e-11
4.383252348e-11
4.454840593e-11
4.530988305e-11
4.610532171e-11
4.691863866e-11
4.775200135e-11
4.860727935e-11
4.948594102e-11
5.038918758e-11
5.131814018e-11
5.227384203e-11
5.325732618e-11
5.426963762e-11
5.53118035e-11
5.638497573e-11
5.749028572e-11
5.862885763e-11
5.980157223e-11
6.100905545e-11
6.225426191e-11
6.353860213e-11
6.486363547e-11
6.623082847e-11
6.76412532e-11
6.909512089e-11
7.05960462e-11
7.214647246e-11
7.374850522e-11
7.540449396e-11
7.711652271e-11
7.888699158e-11
8.071865954e-11
8.261459264e-11
8.457831653e-11
8.661254979e-11
8.872017172e-11
9.090412194e-11
9.316794807e-11
9.551507687e-11
9.794923515e-11
1.007034572e-10
1.035901429e-10
1.065933265e-10
1.097196058e-10
1.12975885e-10
1.163691224e-10
1.199069651e-10
1.235969087e-10
1.274473084e-10
1.314659101e-10
1.407955339e-10
1.508414746e-10
1.614799613e-10
1.727506438e-10
1.846959104e-10
1.973575451e-10
2.107771919e-10
2.249988982e-10
2.400722876e-10
2.560482696e-10
2.731929323e-10
2.923774908e-10
3.127972493e-10
3.345017958e-10
3.575515963e-10
3.819680458e-10
4.076957925e-10
4.346731057e-10
4.63029802e-10
4.920009026e-10
5.240527617e-10
5.49866689e-10
5.85053042e-10
6.095440718e-10
6.497872222e-10
6.742340024e-10
7.213529375e-10
7.466240509e-10
8.184934162e-10
8.807054029e-10
1.039480777e-09
1.108325219e-09
1.301127506e-09
1.375843281e-09
1.608970757e-09
1.690501881e-09
1.979262055e-09
2.076782193e-09
2.500875793e-09
2.699193682e-09
3.370418344e-09
3.949622203e-09
5.61273942e-09
6.643493783e-09
9.176755886e-09
1.083578159e-08
1.688407705e-08
2.105417263e-08
3.224659347e-08
4.180384936e-08
7.347613997e-08
1.00899339e-07
1.939819839e-07
2.968404348e-07
6.278742528e-07
1.032219848e-06
2.466127241e-06
4.611092381e-06
1.285308872e-05
2.784824739e-05
5.855945948e-05
0.0001305243617
0.0004476043023
0.001788260919
0.004842475547
0.008827168809
0.01307805282
0.01726597089
0.02127441258
0.02506357512
0.02861355886
0.0319045341
0.0349195796
0.0376443672
0.04007060738
0.04220284009
0.04405417473
0.04564258385
0.04699473888
0.04813796106
0.04910144259
0.04991246613
0.05059556736
0.05117275322
0.05166198473
0.05207846969
0.05243494449
0.05274169438
0.05300614964
0.05323340661
0.05343330343
0.05360995585
0.05376630806
0.05390587068
0.0540320989
0.05414678614
0.0542525579
0.0543504043
0.05444011355
0.05452067682
0.05459201445
0.05465478671
0.05470994187
0.05475845708
0.05480122779
0.05483903426
0.05487254175
0.05490231326
0.05492882522
0.05495248226
0.05497362967
0.05499256373
0.05500954003
0.05502478013
0.05503847694
0.05505079913
0.05506189468
0.05507189387
0.05508091166
0.05508904983
0.05509639863
0.0551030383
0.05510904029
0.05511446834
0.05511937939
0.0551238244
0.055127849
0.05513149414
0.05513479656
0.05513778931
0.0551405021
0.05514296168
0.05514519215
0.05514721524
0.05514905056
0.05515071581
0.05515222698
0.0551535985
0.05515484344
0.05515597361
0.0551569997
0.05515793138
0.05515877742
0.05515954574
0.05516024353
0.05516087732
0.055161453
0.05516197593
0.05516245097
0.05516288252
0.05516327457
0.05516363076
0.05516395437
0.05516424839
0.05516451552
0.05516475825
0.05516497878
0.05516517916
0.05516536124
0.05516552667
0.05516567699
0.05516581357
0.05516593767
0.05516605042
0.05516615287
0.05516624596
0.05516633053
0.05516640737
0.05516647719
0.05516654061
0.05516659823
0.05516665058
0.05516669814
0.05516674134
0.05516678058
0.05516681622
0.0551668486
0.05516687801
0.05516690472
0.05516692898
0.05516695101
0.05516697102
0.05516698919
0.05516700569
0.05516702067
0.05516703427
0.05516704662
0.05516705783
0.05516706801
0.05516707725
0.05516708563
0.05516709325
0.05516710015
0.05516710642
0.05516711211
0.05516711727
0.05516712196
0.0551671262
0.05516713006
0.05516713355
0.05516713673
0.0551671396
0.05516714221
0.05516714457
0.05516714672
0.05516714866
0.05516715042
0.05516715202
0.05516715347
0.05516715478
0.05516715597
0.05516715705
0.05516715802
0.05516715891
0.05516715971
0.05516716043
0.05516716109
0.05516716168
0.05516716222
0.05516716271
0.05516716315
0.05516716354
0.0551671639
0.05516716423
0.05516716453
0.05516716479
0.05516716503
0.05516716525
0.05516716545
0.05516716563
0.05516716579
0.05516716593
0.05516716606
0.05516716618
0.05516716629
0.05516716638
0.05516716647
0.05516716655
0.05516716662
0.05516716668
0.05516716674
0.05516716679
0.05516716684
0.05516716688
0.05516716692
0.05516716695
0.05516716698
0.05516716701
0.05516716704
0.05516716706
0.05516716708
0.0551671671
0.05516716711
0.05516716713
0.05516716714
0.05516716715
0.05516716716
0.05516716717
0.05516716718
0.05516716719
0.05516716719
0.0551671672
0.05516716721
0.05516716721
0.05516716721
0.05516716722
0.05516716722
0.05516716723
0.05516716723
0.05516716723
0.05516716723
0.05516716723
0.05516716724
0.05516716724
0.05516716724
0.05516716724
0.05516716724
0.05516716724
0.05516716724
0.05516716724
0.05516716724
0.05516716725
0.05516716725
0.05516716725
0.05516716725
0.05516716725
0.05516716725
0.05516716725
0.05516716725
0.05516716725
0.05516716725
0.05516716725
0.05516716725
0.05516716725
0.05516716725
0.05516716725
0.05516716725
0.05516716725
0.05516716725
0.05516716725
0.05516716725
0.05516716725
0.05516716725
0.05516716725
0.05516716725
0.05516716725
0.05516716725
0.05516716725
0.05516716725
0.05516716725
0.05516716725
0.05516716725
0.05516716725
0.05516716725
0.05516716725
0.05516716725
0.05516716725
0.05516716725
0.05516716725
0.05516716725
0.05516716725
0.05516716725
0.05516716725
0.05516716725
0.05516716725
0.05516716725
0.05516716725
0.05516716725
0.05516716725
0.05516716725
0.05516716725
0.05516716725
0.05516716725
0.05516716725
0.05516716725
0.05516716725
0.05516716725
0.05516716725
0.05516716725
0.05516716725
0.05516716725
0.05516716725
0.05516716725
0.05516716725
0.05516716725
0.05516716725
0.05516716725
0.05516716725
0.05516716725
0.05516716725
0.05516716725
0.05516716725
0.05516716725
0.05516716725
0.05516716725
0.05516716725
0.05516716725
0.05516716725
0.05516716725
0.05516716725
0.05516716725
0.05516716725
0.05516716725
0.05516716725
0.05516716725
0.05516716725
0.05516716725
0.05516716725
0.05516716725
0.05516716725
0.05516716725
0.05516716725
0.05516716725
0.05516716725
0.05516716725
0.05516716725
0.05516716725
0.05516716725
0.05516716725
0.05516716725
0.05516716725
0.05516716725
0.05516716725
0.05516716725
0.05516716725
0.05516716725
0.05516716725
0.05516716725
0.05516716725
0.05516716725
0.05516716725
0.05516716725
0.05516716725
0.05516716725
0.05516716725
0.05516716725
0.05516716725
0.05516716725
0.05516716725
0.05516716725
0.05516716725
0.05516716725
0.05516716725
0.05516716725
0.05516716725
0.05516716725
0.05516716725
0.05516716725
0.05516716725
0.05516716725
0.05516716725
0.05516716725
0.05516716725
0.05516716725
0.05516716725
0.05516716725
0.05516716725
0.05516716725
0.05516716725
0.05516716725
0.05516716725
0.05516716725
0.05516716725
0.05516716725
0.05516716725
0.05516716725
0.05516716725
0.05516716725
0.05516716725
0.05516716725
0.05516716725
0.05516716725
0.05516716725
0.05516716725
0.05516716725
0.05516716725
0.05516716725
0.05516716725
0.05516716725
0.05516716725
0.05516716725
0.05516716725
0.05516716725
0.05516716725
0.05516716725
0.05516716725
0.05516716725
0.05516716725
0.05516716725
0.05516716725
0.05516716725
0.05516716725
0.05516716725
0.05516716725
0.05516716725
0.05516716725
0.05516716725
0.05516716725
0.05516716725
0.05516716725
0.05516716725
0.05516716725
0.05516716725
0.05516716725
0.05516716725
0.05516716725
0.05516716725
0.05516716725
0.05516716725
0.05516716725
0.05516716725
0.05516716725
0.05516716725
0.05516716725
0.05516716725
0.05516716725
0.05516716725
0.05516716725
0.05516716725
0.05516716725
0.05516716725
0.05516716725
0.05516716725
0.05516716725
0.05516716725
0.05516716725
0.05516716725
0.05516716725
0.05516716725
0.05516716725
0.05516716725
0.05516716725
0.05516716725
0.05516716725
0.05516716725
0.05516716725
0.05516716725
0.05516716725
0.05516716725
0.05516716725
0.05516716725
0.05516716725
9.118461739e-11
9.136287464e-11
9.170117945e-11
9.218271931e-11
9.279183472e-11
9.351429958e-11
9.433738993e-11
9.524991451e-11
9.624209828e-11
9.730550721e-11
9.843289754e-11
9.961818891e-11
1.00856255e-10
1.021428339e-10
1.034743599e-10
1.048479524e-10
1.0626125e-10
1.077125145e-10
1.092004509e-10
1.107240654e-10
1.122826637e-10
1.138757103e-10
1.155028935e-10
1.171640951e-10
1.18859405e-10
1.205890658e-10
1.223996746e-10
1.242822838e-10
1.262042934e-10
1.281667455e-10
1.301707048e-10
1.322172899e-10
1.343077241e-10
1.364433534e-10
1.38625649e-10
1.408560423e-10
1.431356263e-10
1.454656031e-10
1.478477229e-10
1.502838877e-10
1.527759996e-10
1.553259437e-10
1.579355243e-10
1.606065785e-10
1.633408455e-10
1.661398677e-10
1.690048077e-10
1.719360121e-10
1.749325218e-10
1.779904995e-10
1.810983609e-10
1.842631915e-10
1.87497419e-10
1.90807544e-10
1.942014589e-10
1.976844779e-10
2.012609589e-10
2.049348788e-10
2.087100253e-10
2.125902451e-10
2.165795199e-10
2.206814931e-10
2.249002747e-10
2.292404121e-10
2.337065682e-10
2.383033635e-10
2.43217583e-10
2.484021934e-10
2.537489573e-10
2.592646664e-10
2.649563495e-10
2.718290141e-10
2.878382642e-10
3.045065322e-10
3.218639324e-10
3.399418241e-10
3.587735331e-10
3.783936533e-10
3.988388349e-10
4.201498494e-10
4.423775604e-10
4.655955053e-10
4.898351547e-10
5.151340619e-10
5.41540207e-10
5.691090703e-10
5.978993162e-10
6.279725969e-10
6.593907474e-10
6.933182174e-10
7.292743665e-10
7.67000919e-10
8.066081583e-10
8.482097928e-10
8.919199756e-10
9.378653077e-10
9.861931063e-10
1.037018953e-09
1.09049745e-09
1.146749079e-09
1.205896803e-09
1.268147009e-09
1.333701981e-09
1.402758436e-09
1.477226105e-09
1.557911501e-09
1.643098526e-09
1.733019232e-09
1.827983912e-09
1.928290338e-09
2.056095177e-09
2.31076726e-09
2.582879663e-09
2.873133044e-09
3.182060961e-09
3.510077868e-09
3.863636372e-09
4.240628792e-09
4.637388476e-09
5.047641373e-09
5.483941773e-09
5.935465498e-09
6.424691396e-09
6.93237777e-09
7.491311921e-09
8.071873853e-09
8.71915443e-09
9.818427291e-09
1.139079968e-08
1.30577299e-08
1.49684023e-08
1.69776356e-08
1.930582135e-08
2.177913329e-08
2.472555264e-08
2.796074522e-08
3.415922985e-08
4.223191732e-08
5.245627567e-08
6.418587945e-08
7.89181098e-08
1.032180014e-07
1.374743926e-07
1.782013661e-07
2.424069845e-07
3.33221509e-07
4.598142247e-07
6.67575031e-07
9.825693183e-07
1.467117504e-06
2.316015766e-06
3.684599347e-06
6.150957636e-06
1.04920115e-05
1.88712242e-05
3.4343788e-05
6.640778608e-05
0.0001282190019
0.0002540693227
0.0005377518808
0.001246661275
0.002850534925
0.005501287962
0.008827913239
0.01247303063
0.01620485116
0.01989985427
0.02349013035
0.02693342664
0.03018929748
0.03322512758
0.03601405418
0.03853704217
0.04078753331
0.0427684252
0.04449099866
0.04597440047
0.04724246073
0.04832020901
0.04923410311
0.05000787513
0.05066357853
0.05122076305
0.05169431954
0.05209953042
0.05244994647
0.05275349923
0.05301795598
0.05325100007
0.05345670562
0.05363963556
0.05380366712
0.05394992252
0.05408071654
0.0541981265
0.05430354026
0.05439778515
0.05448142618
0.05455530991
0.05462048319
0.0546780135
0.05472888512
0.0547739644
0.05481399836
0.05484962586
0.05488139247
0.0549097653
0.05493514607
0.05495788168
0.054978273
0.05499658206
0.05501303797
0.05502784173
0.05504117016
0.05505317927
0.05506400703
0.05507377574
0.05508259404
0.05509055854
0.05509775539
0.05510426145
0.05511014542
0.05511546878
0.05512028662
0.05512464832
0.05512859826
0.05513217626
0.05513541818
0.05513835626
0.05514101956
0.05514343425
0.05514562395
0.05514760996
0.05514941151
0.05515104597
0.05515252904
0.05515387491
0.0551550964
0.05515620514
0.05515721162
0.05515812536
0.05515895497
0.05515970826
0.05516039229
0.05516101347
0.0551615776
0.05516208996
0.0551625553
0.05516297798
0.0551633619
0.05516371064
0.05516402743
0.05516431521
0.05516457663
0.05516481411
0.05516502986
0.05516522585
0.05516540391
0.05516556567
0.05516571262
0.05516584612
0.0551659674
0.05516607759
0.05516617768
0.05516626861
0.05516635122
0.05516642626
0.05516649442
0.05516655635
0.05516661259
0.05516666368
0.05516671009
0.05516675224
0.05516679053
0.0551668253
0.05516685688
0.05516688556
0.05516691161
0.05516693526
0.05516695673
0.05516697624
0.05516699394
0.05516701002
0.05516702462
0.05516703787
0.0551670499
0.05516706082
0.05516707073
0.05516707973
0.05516708789
0.0551670953
0.05516710202
0.05516710812
0.05516711366
0.05516711868
0.05516712324
0.05516712737
0.05516713112
0.05516713452
0.05516713761
0.0551671404
0.05516714294
0.05516714524
0.05516714732
0.05516714921
0.05516715092
0.05516715248
0.05516715388
0.05516715516
0.05516715631
0.05516715736
0.0551671583
0.05516715916
0.05516715994
0.05516716064
0.05516716128
0.05516716185
0.05516716238
0.05516716285
0.05516716328
0.05516716366
0.05516716401
0.05516716433
0.05516716461
0.05516716487
0.05516716511
0.05516716532
0.05516716551
0.05516716568
0.05516716583
0.05516716598
0.0551671661
0.05516716622
0.05516716632
0.05516716641
0.0551671665
0.05516716657
0.05516716664
0.0551671667
0.05516716676
0.05516716681
0.05516716685
0.05516716689
0.05516716693
0.05516716696
0.05516716699
0.05516716702
0.05516716704
0.05516716707
0.05516716708
0.0551671671
0.05516716712
0.05516716713
0.05516716714
0.05516716716
0.05516716717
0.05516716717
0.05516716718
0.05516716719
0.0551671672
0.0551671672
0.05516716721
0.05516716721
0.05516716722
0.05516716722
0.05516716722
0.05516716723
0.05516716723
0.05516716723
0.05516716723
0.05516716724
0.05516716724
0.05516716724
0.05516716724
0.05516716724
0.05516716724
0.05516716724
0.05516716724
0.05516716724
0.05516716725
0.05516716725
0.05516716725
0.05516716725
0.05516716725
0.05516716725
0.05516716725
0.05516716725
0.05516716725
0.05516716725
0.05516716725
0.05516716725
0.05516716725
0.05516716725
0.05516716725
0.05516716725
0.05516716725
0.05516716725
0.05516716725
0.05516716725
0.05516716725
0.05516716725
0.05516716725
0.05516716725
0.05516716725
0.05516716725
0.05516716725
0.05516716725
0.05516716725
0.05516716725
0.05516716725
0.05516716725
0.05516716725
0.05516716725
0.05516716725
0.05516716725
0.05516716725
0.05516716725
0.05516716725
0.05516716725
0.05516716725
0.05516716725
0.05516716725
0.05516716725
0.05516716725
0.05516716725
0.05516716725
0.05516716725
0.05516716725
0.05516716725
0.05516716725
0.05516716725
0.05516716725
0.05516716725
0.05516716725
0.05516716725
0.05516716725
0.05516716725
0.05516716725
0.05516716725
0.05516716725
0.05516716725
0.05516716725
0.05516716725
0.05516716725
0.05516716725
0.05516716725
0.05516716725
0.05516716725
0.05516716725
0.05516716725
0.05516716725
0.05516716725
0.05516716725
0.05516716725
0.05516716725
0.05516716725
0.05516716725
0.05516716725
0.05516716725
0.05516716725
0.05516716725
0.05516716725
0.05516716725
0.05516716725
0.05516716725
0.05516716725
0.05516716725
0.05516716725
0.05516716725
0.05516716725
0.05516716725
0.05516716725
0.05516716725
0.05516716725
0.05516716725
0.05516716725
0.05516716725
0.05516716725
0.05516716725
0.05516716725
0.05516716725
0.05516716725
0.05516716725
0.05516716725
0.05516716725
0.05516716725
0.05516716725
0.05516716725
0.05516716725
0.05516716725
0.05516716725
0.05516716725
0.05516716725
0.05516716725
0.05516716725
0.05516716725
0.05516716725
0.05516716725
0.05516716725
0.05516716725
0.05516716725
0.05516716725
0.05516716725
0.05516716725
0.05516716725
0.05516716725
0.05516716725
0.05516716725
0.05516716725
0.05516716725
0.05516716725
0.05516716725
0.05516716725
0.05516716725
0.05516716725
0.05516716725
0.05516716725
0.05516716725
0.05516716725
0.05516716725
0.05516716725
0.05516716725
0.05516716725
0.05516716725
0.05516716725
0.05516716725
0.05516716725
0.05516716725
0.05516716725
0.05516716725
0.05516716725
0.05516716725
0.05516716725
0.05516716725
0.05516716725
0.05516716725
0.05516716725
0.05516716725
0.05516716725
0.05516716725
0.05516716725
0.05516716725
0.05516716725
0.05516716725
0.05516716725
0.05516716725
0.05516716725
0.05516716725
0.05516716725
0.05516716725
0.05516716725
0.05516716725
0.05516716725
0.05516716725
0.05516716725
0.05516716725
0.05516716725
0.05516716725
0.05516716725
0.05516716725
0.05516716725
0.05516716725
0.05516716725
0.05516716725
0.05516716725
0.05516716725
0.05516716725
0.05516716725
0.05516716725
0.05516716725
0.05516716725
0.05516716725
0.05516716725
0.05516716725
0.05516716725
0.05516716725
0.05516716725
0.05516716725
0.05516716725
0.05516716725
0.05516716725
0.05516716725
0.05516716725
0.05516716725
0.05516716725
0.05516716725
0.05516716725
0.05516716725
0.05516716725
0.05516716725
0.05516716725
0.05516716725
0.05516716725
0.05516716725
0.05516716725
0.05516716725
0.05516716725
0.05516716725
0.05516716725
0.05516716725
2.303465684e-10
2.307819936e-10
2.316050386e-10
2.327729897e-10
2.342471402e-10
2.359927732e-10
2.379790624e-10
2.401789332e-10
2.42568792e-10
2.451282645e-10
2.478399299e-10
2.506891305e-10
2.536635926e-10
2.567530795e-10
2.599490419e-10
2.632444066e-10
2.666334465e-10
2.701120619e-10
2.736772732e-10
2.773267708e-10
2.810588691e-10
2.848723344e-10
2.88766291e-10
2.927403926e-10
2.967950259e-10
3.009313576e-10
3.052376397e-10
3.096968091e-10
3.142473766e-10
3.188913031e-10
3.236308668e-10
3.284685986e-10
3.334072932e-10
3.384500643e-10
3.436004995e-10
3.488632988e-10
3.542395677e-10
3.597302767e-10
3.6534058e-10
3.710755203e-10
3.769395591e-10
3.829370086e-10
3.890720714e-10
3.953489967e-10
4.017720889e-10
4.083454742e-10
4.150726652e-10
4.219557106e-10
4.289957028e-10
4.361926959e-10
4.435473325e-10
4.510676153e-10
4.631758994e-10
4.87049226e-10
5.116461128e-10
5.37006529e-10
5.631672943e-10
5.901627196e-10
6.18026466e-10
6.467927418e-10
6.769531308e-10
7.082014744e-10
7.405292214e-10
7.739867358e-10
8.086237931e-10
8.444912445e-10
8.816365867e-10
9.201166118e-10
9.59993927e-10
1.001331943e-09
1.044199384e-09
1.088674126e-09
1.134846057e-09
1.182768088e-09
1.232510342e-09
1.284150895e-09
1.337773474e-09
1.393465226e-09
1.451314776e-09
1.511403995e-09
1.573839663e-09
1.640339103e-09
1.710029131e-09
1.782643471e-09
1.858324485e-09
1.937228335e-09
2.019520842e-09
2.1053763e-09
2.194978187e-09
2.288526516e-09
2.386230766e-09
2.488308123e-09
2.595056282e-09
2.706776091e-09
2.823691718e-09
2.946588809e-09
3.078999307e-09
3.21785121e-09
3.363512995e-09
3.516365432e-09
3.880469404e-09
4.28002308e-09
4.703878142e-09
5.153716237e-09
5.63080933e-09
6.136750286e-09
6.673474292e-09
7.254713625e-09
7.872450855e-09
8.528923631e-09
9.226407793e-09
9.967265948e-09
1.075338243e-08
1.158657659e-08
1.246861317e-08
1.340111706e-08
1.440086748e-08
1.545884127e-08
1.65715303e-08
1.837156376e-08
2.090270213e-08
2.359598314e-08
2.648580737e-08
2.957439774e-08
3.290994135e-08
3.650855565e-08
4.044320408e-08
4.469032094e-08
4.934032833e-08
5.438238552e-08
6.327390002e-08
7.413436835e-08
8.627958064e-08
9.991349861e-08
1.154747194e-07
1.331902671e-07
1.575368492e-07
1.954329928e-07
2.405242629e-07
2.933507586e-07
3.611492804e-07
4.691680827e-07
6.001385659e-07
7.716754993e-07
1.034595051e-06
1.357845318e-06
1.881989982e-06
2.592102861e-06
3.651945482e-06
5.288334441e-06
7.804925982e-06
1.171757973e-05
1.816571354e-05
2.860648536e-05
4.650028458e-05
7.760490932e-05
0.0001332224797
0.0002344024059
0.0004280565441
0.0008188145071
0.001610101648
0.003043231913
0.005179415814
0.007870698711
0.01092055162
0.0141742808
0.01751867685
0.02087650649
0.02418460121
0.02739233915
0.03045098709
0.03331966142
0.03596761285
0.0383759529
0.04053511946
0.04244730357
0.04412309763
0.04557993866
0.04683736248
0.0479164801
0.04884194895
0.04963305081
0.05031349805
0.05089962108
0.05140659769
0.0518473289
0.05223121315
0.05256811997
0.05286300266
0.05312160788
0.0533492608
0.05355030152
0.05372800921
0.05388543811
0.05402511174
0.05414901039
0.05425879016
0.05435592909
0.05444184713