/*--------------------------------*- C++ -*----------------------------------*\
| =========                 |                                                 |
| \\      /  F ield         | OpenFOAM: The Open Source CFD Toolbox           |
|  \\    /   O peration     | Version:  v2006                                 |
|   \\  /    A nd           | Website:  www.openfoam.com                      |
|    \\/     M anipulation  |                                                 |
\*---------------------------------------------------------------------------*/
FoamFile
{
    version     2.0;
    format      ascii;
    class       volScalarField;
    location    "0.1";
    object      CO;
}
// * * * * * * * * * * * * * * * * * * * * * * * * * * * * * * * * * * * * * //

dimensions      [0 0 0 0 0 0 0];


internalField   nonuniform List<scalar> 
72000
(
0.0005532928558
0.0005532934617
0.0005532946193
0.000553296263
0.0005532983338
0.0005533007789
0.0005533035511
0.000553306611
0.0005533099223
0.0005533134554
0.000553317184
0.0005533210865
0.0005533251447
0.0005533293435
0.0005533336697
0.0005533381134
0.0005533426659
0.0005533473197
0.0005533520694
0.0005533569103
0.000553361839
0.0005533668732
0.0005533719935
0.0005533771943
0.0005533824738
0.0005533878311
0.0005533932642
0.0005533987736
0.0005534043611
0.0005534100276
0.0005534157742
0.000553421602
0.0005534275123
0.0005534335068
0.0005534395873
0.0005534457552
0.0005534520107
0.0005534583542
0.0005534647874
0.0005534713128
0.0005534779326
0.0005534846488
0.000553491463
0.0005534983764
0.0005535053888
0.0005535124998
0.0005535197063
0.0005535269997
0.0005535343649
0.0005535417785
0.0005535496879
0.0005535579045
0.0005535661966
0.0005535745881
0.0005535830994
0.0005535917441
0.0005536005305
0.000553609467
0.0005536185585
0.0005536278114
0.0005536372321
0.0005536468185
0.0005536565763
0.000553666507
0.0005536766179
0.0005536868368
0.0005536965874
0.00055370652
0.0005537166449
0.0005537269661
0.0005537374857
0.0005537481979
0.0005537590932
0.0005537701958
0.0005537815216
0.0005537930759
0.0005538048656
0.0005538168973
0.0005538291816
0.0005538417278
0.0005538545491
0.0005538676618
0.0005538810743
0.0005538947892
0.0005539088113
0.0005539231494
0.000553937813
0.0005539528149
0.00055396828
0.0005539841635
0.0005540004391
0.0005540171303
0.0005540342589
0.0005540518487
0.0005540699193
0.0005540884993
0.0005541076097
0.0005541272658
0.0005541473839
0.0005541680816
0.0005541893891
0.000554211342
0.0005542339804
0.000554257332
0.0005542814334
0.0005543063176
0.000554332025
0.0005543585946
0.0005543860779
0.0005544144993
0.0005544439388
0.0005544744012
0.0005545059596
0.0005545390096
0.0005545712693
0.0005546417718
0.0005544470174
0.0005556412652
0.0005520044197
0.0005590111128
0.0005519333658
0.0005628134663
0.000551863728
0.0005670132396
0.0005517923507
0.0005714846589
0.0005517033815
0.0005763785255
0.0005516322912
0.0005819672443
0.0005515380078
0.0005884911514
0.0005514272024
0.0005967849625
0.0005512204989
0.0006121787906
0.0005510552502
0.0006164659695
0.0005507916544
0.0006194379627
0.000550596524
0.000622985148
0.0005508715582
0.0006280133869
0.0005521144975
0.0006344461907
0.0005536663444
0.000641981827
0.0005539851961
0.0006559361413
0.0005533760004
0.0006654102049
0.0005523877922
0.0006978533604
0.0005507127404
0.0007017324207
0.0005476513346
0.0005453819465
0.0005427624582
0.0009388671374
0.0005603554887
0.01579423297
0.0294172907
0.03200394358
0.03076329251
0.02838542219
0.02569051403
0.02295711303
0.0203063957
0.01780587503
0.01549509208
0.01340257146
0.01153771393
0.009904066084
0.008489500188
0.007278266433
0.006249863701
0.005381338581
0.004649400478
0.004033072852
0.00351340305
0.003074203638
0.002701234712
0.002383282262
0.002110714438
0.001876026445
0.001673159326
0.001496875
0.001342489484
0.001206781672
0.001087851041
0.0009838589974
0.0008902708878
0.0008055145598
0.000728488957
0.0006558631269
0.0005844723606
0.0005189737881
0.0004606238266
0.0004092918469
0.0003643223447
0.0003249250594
0.0002903388828
0.0002598895956
0.0002330008873
0.0002091870091
0.0001880398382
0.0001692156838
0.0001524237176
0.0001374164111
0.0001239818314
0.0001119374877
0.000101125423
9.140827242e-05
8.266607411e-05
7.47936707e-05
6.769857318e-05
6.12991915e-05
5.552335695e-05
5.030708059e-05
4.559350302e-05
4.133200104e-05
3.747742374e-05
3.398943608e-05
3.08319526e-05
2.797264681e-05
2.538252444e-05
2.303555128e-05
2.090832727e-05
1.897980063e-05
1.723101614e-05
1.564489312e-05
1.420602906e-05
1.290052572e-05
1.171583462e-05
1.064061976e-05
9.664635206e-06
8.778615985e-06
7.974180504e-06
7.243743331e-06
6.580437042e-06
5.97804215e-06
5.430924224e-06
4.933977378e-06
4.482573475e-06
4.072516397e-06
3.700000865e-06
3.361575328e-06
3.054108482e-06
2.774759063e-06
2.520948568e-06
2.290336604e-06
2.080798617e-06
1.890405734e-06
1.717406547e-06
1.560210609e-06
1.417373504e-06
1.287583317e-06
1.16964838e-06
1.062486176e-06
9.651132633e-07
8.766361602e-07
7.962430666e-07
7.23196356e-07
6.568257751e-07
5.965222587e-07
5.417323286e-07
4.919530006e-07
4.467271704e-07
4.056394135e-07
3.68312179e-07
3.344023333e-07
3.035980145e-07
2.756157844e-07
2.501980328e-07
2.271106199e-07
2.061407444e-07
1.87094994e-07
1.697975803e-07
1.540887348e-07
1.398232474e-07
1.268691457e-07
1.151064834e-07
1.044262519e-07
9.472937995e-08
8.592583477e-08
7.793379219e-08
7.067889299e-08
6.409356607e-08
5.811640631e-08
5.26916154e-08
4.776848874e-08
4.33009563e-08
3.924715736e-08
3.556905817e-08
3.223210151e-08
2.920489094e-08
2.645890505e-08
2.396823221e-08
2.170933411e-08
1.966082792e-08
1.780329065e-08
1.611908199e-08
1.459218027e-08
1.320803223e-08
1.195342384e-08
1.081635253e-08
9.785920991e-09
8.852234911e-09
8.00630936e-09
7.239986162e-09
6.545861742e-09
5.917212557e-09
5.347937573e-09
4.832496535e-09
4.365863036e-09
3.943473744e-09
3.561190817e-09
3.215257231e-09
2.902264318e-09
2.61911947e-09
2.363016791e-09
2.131413942e-09
1.921999962e-09
1.732683245e-09
1.561566212e-09
1.40692585e-09
1.267204915e-09
1.140985848e-09
1.026987862e-09
9.240484261e-10
8.311137424e-10
7.472286682e-10
6.71529881e-10
6.032344224e-10
5.416311266e-10
4.860758604e-10
4.359885538e-10
3.908426563e-10
3.501610186e-10
3.135116455e-10
2.805034673e-10
2.507820247e-10
2.240274906e-10
1.999519278e-10
1.782928524e-10
1.588128808e-10
1.412987888e-10
1.255568328e-10
1.114113241e-10
9.87061096e-11
8.72986068e-11
7.705982597e-11
6.787265475e-11
5.963226735e-11
5.224359554e-11
4.561999239e-11
3.968608778e-11
3.437096455e-11
2.961217897e-11
2.535227711e-11
2.154394595e-11
1.813795014e-11
1.509507184e-11
1.23757321e-11
9.946279292e-12
7.779868126e-12
5.846751315e-12
4.124334357e-12
2.588030734e-12
1.220314412e-12
2.281652282e-15
0
0
0
0
0
0
0
0
0
0
0
0
0
0
0
0
0
0
0
0
0
0
0
0
0
0
0
0
0
0
0
0
0
0
0
0
0
0
0
0
0
0
0
0
0
0
0
0
0
0
0
0
0
0
0
0
0
0
0
0
0
0
0
0
0
0
0
0
0
0
0
0
0
0
0
0
0
0
0
0
0
0
0
0
0
0
0
0
0
0
0
0
0
0
0
0
0
0
0
0
0
0
0
0
0
0
0
0
0
0
0
0
0
0
0
0
0
0
0
0
0
0
0
0
0
0
0
0
0
0
0
0
0
0
0
0
0
0
0
0
0
0
0
0
0
0
0
0
0
0
0
0
0
0
0
0
0
0
0
0
0
0
0
0
0
0
0
0
0
0
0
0
0
0
0
0
0
0
0
0
0
0
0
0
0
0
0
0
0
0
0
0
0
0
0
0
0
0
0
0
0
0
0
0
0
0
0
0
0
0
0
0
0
0
0
0
0
0
0
0
0
0
0
0
0
0
0
0
0.0007099564231
0.0007100796248
0.0007103146936
0.0007106499836
0.0007110742161
0.0007115770341
0.000712148965
0.0007127817589
0.0007134681077
0.0007142017559
0.0007149772018
0.0007157899063
0.0007166360153
0.0007175122707
0.0007184159767
0.0007193449234
0.0007202972252
0.0007212715234
0.0007222667197
0.0007232819116
0.0007243164721
0.0007253698369
0.0007264416093
0.0007275315109
0.0007286394451
0.0007297653099
0.0007309090087
0.0007320708386
0.0007332512311
0.0007344506235
0.0007356694569
0.0007369081892
0.0007381673072
0.0007394473023
0.000740748794
0.0007420723289
0.0007434183061
0.0007447871517
0.0007461795548
0.0007475962897
0.0007490380999
0.0007505057275
0.0007519998218
0.0007535210639
0.0007550699669
0.0007566468902
0.0007582518313
0.000759884195
0.0007615423168
0.0007632228236
0.0007649050184
0.0007665977791
0.0007683161186
0.0007700644579
0.0007718464077
0.0007736645798
0.0007755209083
0.0007774170776
0.0007793545613
0.000781334771
0.0007833590961
0.0007854288057
0.0007875453722
0.0007897101868
0.0007919245731
0.0007941892863
0.0007965045837
0.0007988756034
0.0008013039499
0.000803791541
0.000806340049
0.0008089502564
0.000811621121
0.000814358606
0.0008171660987
0.000820046213
0.0008230018879
0.0008260355208
0.0008291500263
0.0008323489174
0.0008356362203
0.0008390166501
0.0008424931728
0.0008460688683
0.0008497469024
0.0008535313904
0.0008574261457
0.0008614353241
0.00086551545
0.0008697134898
0.0008740405714
0.0008785034602
0.0008831093922
0.0008878654409
0.0008927793052
0.0008978582923
0.0009031106075
0.0009085430273
0.0009141603149
0.0009199731318
0.000925990056
0.0009322223157
0.0009386817767
0.0009453792296
0.0009523246195
0.0009595285538
0.0009670038144
0.0009747627878
0.0009828006354
0.0009910633783
0.0009996412306
0.001008539614
0.001017768953
0.001027324542
0.001037173522
0.00104728608
0.001057713568
0.001068173193
0.001079596388
0.00108864403
0.001100927961
0.001109330127
0.001123107848
0.001131332217
0.001147137799
0.001155471197
0.001173675368
0.00118218262
0.001202941149
0.001211667773
0.001235531399
0.001244575418
0.001272133969
0.001281544145
0.001313991669
0.001324479091
0.001368789196
0.001388000784
0.00144435417
0.001473314472
0.001543255955
0.001583125799
0.001673439707
0.001726797148
0.001845718551
0.001910495892
0.002061321974
0.002160571245
0.002371277649
0.002523893519
0.002835930866
0.003075402953
0.003566606838
0.003958957427
0.004788373016
0.005521699482
0.007080640979
0.008650381992
0.01058170795
0.01323606209
0.01867701266
0.02648487871
0.03131062908
0.03197367636
0.03060044551
0.02839107351
0.02586780016
0.02326472102
0.02070032683
0.01824724635
0.0159527099
0.01384957975
0.01195930469
0.01028704146
0.008828109307
0.007572655922
0.00650145445
0.005594443026
0.004829107048
0.004184372794
0.003641049803
0.003181709573
0.002792285278
0.002460720804
0.002177025236
0.001932898314
0.001722357499
0.001541393417
0.001382184366
0.001241463822
0.001116907892
0.0010057644
0.0009052134833
0.0008138349608
0.000729541278
0.0006515486959
0.0005800308899
0.0005157953506
0.0004589083742
0.0004088458317
0.0003648534627
0.0003261535326
0.0002920330406
0.0002618705546
0.0002351361004
0.0002113810893
0.0001902258341
0.0001713478363
0.0001544718277
0.0001393615863
0.0001258133233
0.0001136503504
0.0001027188015
9.288414654e-05
8.402833873e-05
7.604746401e-05
6.884978736e-05
6.235411977e-05
5.64884397e-05
5.11887264e-05
4.639796404e-05
4.206528928e-05
3.814525737e-05
3.45972078e-05
3.138471404e-05
2.847510453e-05
2.583904426e-05
2.345016822e-05
2.128475942e-05
1.932146537e-05
1.754104781e-05
1.592616128e-05
1.446115682e-05
1.31319078e-05
1.192565473e-05
1.083086733e-05
9.83712116e-06
8.934987595e-06
8.115935263e-06
7.372241863e-06
6.69691505e-06
6.083621473e-06
5.526622976e-06
5.020719286e-06
4.561196428e-06
4.143780269e-06
3.764594667e-06
3.420123719e-06
3.107177724e-06
2.822862425e-06
2.564551249e-06
2.329860217e-06
2.116625248e-06
1.922881643e-06
1.746845517e-06
1.58689699e-06
1.441564976e-06
1.309513388e-06
1.189528659e-06
1.080508428e-06
9.814512742e-07
8.914474273e-07
8.096703278e-07
7.353689761e-07
6.678610033e-07
6.065263658e-07
5.508016388e-07
5.001748247e-07
4.541806507e-07
4.123962922e-07
3.744374908e-07
3.399550349e-07
3.086315545e-07
2.801786189e-07
2.543340916e-07
2.308597322e-07
2.095390219e-07
1.901751784e-07
1.725893595e-07
1.566190262e-07
1.421164579e-07
1.289474066e-07
1.16989862e-07
1.061329459e-07
9.627588983e-08
8.732712214e-08
7.920342542e-08
7.182917521e-08
6.513565408e-08
5.906041552e-08
5.354671926e-08
4.854300696e-08
4.400243118e-08
3.988242829e-08
3.614432783e-08
3.275299257e-08
2.967650274e-08
2.688586051e-08
2.435472323e-08
2.205916134e-08
1.997743634e-08
1.808980392e-08
1.63783327e-08
1.482673574e-08
1.34202193e-08
1.214535165e-08
1.098993406e-08
9.942888967e-09
8.994160293e-09
8.134615587e-09
7.355963086e-09
6.650679037e-09
6.011928275e-09
5.43351191e-09
4.909798397e-09
4.435679835e-09
4.006520512e-09
3.618113246e-09
3.266640983e-09
2.948638819e-09
2.660963684e-09
2.400767347e-09
2.165463591e-09
1.952704126e-09
1.760365557e-09
1.586517782e-09
1.429411468e-09
1.287461946e-09
1.159231625e-09
1.043417454e-09
9.388377971e-10
8.444239044e-10
7.592054928e-10
6.82302643e-10
6.129209721e-10
5.503379527e-10
4.939006834e-10
4.430182499e-10
3.971562886e-10
3.558296719e-10
3.185995862e-10
2.850674906e-10
2.548746211e-10
2.276973287e-10
2.032396139e-10
1.812379569e-10
1.614510442e-10
1.436596875e-10
1.276692006e-10
1.133011761e-10
1.003954635e-10
8.880870749e-11
7.840807073e-11
6.907614636e-11
6.070472142e-11
5.319964572e-11
4.6472381e-11
4.044558075e-11
3.504733676e-11
3.021330351e-11
2.588858397e-11
2.202009993e-11
1.856026753e-11
1.547027858e-11
1.270918603e-11
1.024177943e-11
8.042025688e-12
6.07869995e-12
4.32951911e-12
2.769558264e-12
1.380506933e-12
1.439135624e-13
0
0
0
0
0
0
0
0
0
0
0
0
0
0
0
0
0
0
0
0
0
0
0
0
0
0
0
0
0
0
0
0
0
0
0
0
0
0
0
0
0
0
0
0
0
0
0
0
0
0
0
0
0
0
0
0
0
0
0
0
0
0
0
0
0
0
0
0
0
0
0
0
0
0
0
0
0
0
0
0
0
0
0
0
0
0
0
0
0
0
0
0
0
0
0
0
0
0
0
0
0
0
0
0
0
0
0
0
0
0
0
0
0
0
0
0
0
0
0
0
0
0
0
0
0
0
0
0
0
0
0
0
0
0
0
0
0
0
0
0
0
0
0
0
0
0
0
0
0
0
0
0
0
0
0
0
0
0
0
0
0
0
0
0
0
0
0
0
0
0
0
0
0
0
0
0
0
0
0
0
0
0
0
0
0
0
0
0
0
0
0
0
0
0
0
0
0
0
0
0
0
0
0
0
0
0
0
0
0
0
0
0
0
0
0
0
0
0
0
0
0
0
0
0
0
0
0
0
0.0008296304466
0.0008298551735
0.0008302812081
0.0008308866595
0.0008316510028
0.0008325554953
0.0008335833076
0.0008347195864
0.0008359513271
0.000837267282
0.0008386577738
0.0008401146495
0.000841631016
0.0008432011114
0.0008448200915
0.0008464839954
0.0008481895444
0.0008499342496
0.0008517161844
0.0008535338037
0.0008553859294
0.0008572715845
0.0008591900585
0.0008611408751
0.0008631238132
0.0008651388328
0.0008671703508
0.0008692225074
0.0008713073973
0.0008734257116
0.0008755781521
0.0008777654709
0.0008799885197
0.0008822482691
0.0008845458105
0.0008868821517
0.0008892578349
0.0008916734872
0.0008941303589
0.0008966298634
0.0008991733671
0.0009017621676
0.0009043974456
0.0009070803661
0.0009098119536
0.0009125929756
0.0009154237068
0.0009183034687
0.0009212300924
0.0009241981894
0.000927193753
0.0009302238573
0.0009333013542
0.0009364323106
0.0009396241477
0.0009428813249
0.0009462071497
0.0009496044159
0.0009530756619
0.0009566234542
0.0009602506174
0.0009639590822
0.0009677512715
0.000971630009
0.0009755981578
0.0009796584495
0.0009837899132
0.0009880039994
0.0009923196041
0.0009967405196
0.0010012706
0.001005914307
0.001010679853
0.001015566403
0.001020578156
0.001025719396
0.001030994708
0.001036408716
0.0010419663
0.001047673092
0.001053536875
0.00105957044
0.001065776311
0.001072158217
0.001078721971
0.001085474824
0.001092424355
0.001099578455
0.001106944654
0.001114472983
0.001122210895
0.001130190894
0.001138426393
0.001146930692
0.001155716322
0.001164797642
0.001174192414
0.001183910659
0.001193969537
0.001204378504
0.00121514688
0.001226299374
0.001237858544
0.001249844669
0.001262217572
0.001274981228
0.001288223926
0.001301964873
0.001316234338
0.001331059927
0.001346461492
0.001362464839
0.001379076583
0.001396304238
0.001414146411
0.001432596539
0.001451522936
0.001470942994
0.001490884385
0.001511051643
0.001532061193
0.001553402839
0.001576095464
0.001599254796
0.001624278448
0.001649868365
0.001677847486
0.001706417192
0.001737915083
0.001769956144
0.001805538664
0.001841954547
0.00188299045
0.001925388436
0.001974251913
0.00202616535
0.002088585771
0.002155648388
0.002235195488
0.002321224355
0.002422934701
0.002532646317
0.002662666385
0.002804225895
0.002972708097
0.003156264314
0.003379284906
0.003630588912
0.003942084814
0.004300883274
0.004753117314
0.005286326242
0.005975161636
0.006807020938
0.007913991704
0.009287945912
0.01114254527
0.01342112216
0.01630820072
0.02007619559
0.02486028216
0.02944317751
0.03191071752
0.03213884519
0.03098090035
0.0290862983
0.02682739788
0.02441203576
0.0219600461
0.0195575379
0.01726378985
0.01512224593
0.01316385783
0.01140331612
0.009845365558
0.00848556252
0.007311547006
0.006306048329
0.005450426815
0.004724127136
0.004108889568
0.003587740027
0.003144791184
0.002768115882
0.002445608181
0.002166595238
0.001924824077
0.001714338536
0.001528767294
0.001364897448
0.00121910454
0.001088333857
0.0009717065127
0.0008673865695
0.0007737243037
0.0006896181881
0.0006144122467
0.0005476586196
0.0004886843882
0.0004366564123
0.0003907246752
0.000350105094
0.0003141073187
0.000282135941
0.0002536816115
0.0002283092946
0.0002056464064
0.0001853724839
0.0001672107451
0.0001509210896
0.0001362943903
0.0001231477541
0.000111320739
0.0001006721667
9.107746917e-05
8.242646693e-05
7.462149023e-05
6.757579321e-05
6.121218938e-05
5.546188806e-05
5.026348811e-05
4.556210972e-05
4.130864051e-05
3.745907806e-05
3.397395672e-05
3.081784535e-05
2.795890616e-05
2.536850652e-05
2.302087636e-05
2.089280569e-05
1.896337652e-05
1.721372498e-05
1.562682985e-05
1.418732476e-05
1.28813302e-05
1.169630429e-05
1.062090896e-05
9.644890433e-06
8.758972081e-06
7.954758534e-06
7.224649511e-06
6.561762575e-06
5.959863524e-06
5.413303966e-06
4.916965035e-06
4.466206742e-06
4.056822314e-06
3.684997005e-06
3.347271001e-06
3.040505824e-06
2.761854098e-06
2.508732171e-06
2.278795379e-06
2.069915683e-06
1.880161435e-06
1.707779064e-06
1.551176518e-06
1.408908232e-06
1.279661558e-06
1.162244442e-06
1.055574268e-06
9.586677449e-07
8.706317451e-07
7.906549802e-07
7.180004777e-07
6.519987357e-07
5.92041521e-07
5.375762441e-07
4.881008503e-07
4.431591847e-07
4.023367876e-07
3.6525707e-07
3.315778527e-07
3.009882127e-07
2.732056257e-07
2.479733691e-07
2.250581649e-07
2.042480369e-07
1.853503651e-07
1.681901169e-07
1.526082427e-07
1.384602187e-07
1.256147167e-07
1.139524051e-07
1.033648517e-07
9.375352895e-08
8.502891244e-08
7.710965671e-08
6.992185331e-08
6.339834791e-08
5.747812814e-08
5.210576032e-08
4.72308827e-08
4.280774127e-08
3.879477103e-08
3.515420987e-08
3.185175682e-08
2.885625164e-08
2.613939124e-08
2.367546653e-08
2.144112619e-08
1.94151615e-08
1.757831159e-08
1.591308318e-08
1.440359098e-08
1.303540964e-08
1.179544109e-08
1.067179045e-08
9.653661114e-09
8.731247135e-09
7.895648202e-09
7.138787074e-09
6.453326961e-09
5.832612871e-09
5.270602138e-09
4.761811354e-09
4.301264847e-09
3.884449059e-09
3.507264809e-09
3.165995896e-09
2.857269539e-09
2.578027706e-09
2.325495991e-09
2.097156281e-09
1.89072776e-09
1.704140176e-09
1.535516708e-09
1.383156729e-09
1.245519401e-09
1.12120474e-09
1.008945367e-09
9.075950728e-10
8.161117411e-10
7.335530183e-10
6.590650062e-10
5.91874149e-10
5.312780916e-10
4.7664444e-10
4.273987282e-10
3.830203105e-10
3.430399188e-10
3.0702865e-10
2.746015089e-10
2.454107778e-10
2.191410505e-10
1.955075597e-10
1.742506607e-10
1.551384039e-10
1.379584485e-10
1.225218478e-10
1.086552151e-10
9.620377047e-11
8.502696018e-11
7.499689768e-11
6.599942531e-11
5.793201943e-11
5.070102093e-11
4.4221396e-11
3.841812865e-11
3.322127389e-11
2.857104734e-11
2.441155336e-11
2.069064545e-11
1.736657064e-11
1.439728267e-11
1.174459326e-11
9.377105597e-12
7.264598545e-12
5.382744504e-12
3.705186595e-12
2.210146751e-12
8.790497021e-13
0
0
0
0
0
0
0
0
0
0
0
0
0
0
0
0
0
0
0
0
0
0
0
0
0
0
0
0
0
0
0
0
0
0
0
0
0
0
0
0
0
0
0
0
0
0
0
0
0
0
0
0
0
0
0
0
0
0
0
0
0
0
0
0
0
0
0
0
0
0
0
0
0
0
0
0
0
0
0
0
0
0
0
0
0
0
0
0
0
0
0
0
0
0
0
0
0
0
0
0
0
0
0
0
0
0
0
0
0
0
0
0
0
0
0
0
0
0
0
0
0
0
0
0
0
0
0
0
0
0
0
0
0
0
0
0
0
0
0
0
0
0
0
0
0
0
0
0
0
0
0
0
0
0
0
0
0
0
0
0
0
0
0
0
0
0
0
0
0
0
0
0
0
0
0
0
0
0
0
0
0
0
0
0
0
0
0
0
0
0
0
0
0
0
0
0
0
0
0
0
0
0
0
0
0
0
0
0
0
0
0
0
0
0
0
0
0
0
0
0
0
0
0
0
0
0
0
0
0.0009426228304
0.0009429361317
0.0009435276567
0.0009443656785
0.0009454212959
0.0009466685016
0.0009480841539
0.0009496478914
0.0009513419482
0.0009531509627
0.0009550617841
0.0009570633256
0.0009591462803
0.00096130285
0.0009635264849
0.0009658117156
0.0009681540613
0.0009705502223
0.0009729976954
0.0009754944521
0.0009780388864
0.0009806296977
0.0009832658233
0.0009859465473
0.0009886716789
0.000991441559
0.000994241805
0.000997076355
0.0009999566076
0.00100288325
0.001005857143
0.001008879293
0.001011950864
0.001015073213
0.001018248027
0.001021477851
0.001024762249
0.001028100747
0.001031495894
0.001034950124
0.001038465386
0.001042043459
0.001045686004
0.001049394658
0.001053171042
0.00105701662
0.001060932337
0.001064918041
0.00106897289
0.001073095312
0.001077284136
0.001081543209
0.001085877804
0.001090291718
0.001094794077
0.00109938959
0.001104082332
0.001108875862
0.001113773517
0.001118778594
0.001123845736
0.001129019125
0.001134307834
0.001139716575
0.001145249717
0.001150911587
0.001156705841
0.001162637256
0.001168711225
0.001174933048
0.001181308554
0.001187844619
0.001194549525
0.001201426009
0.001208479022
0.00121571436
0.001223138307
0.001230757307
0.001238577691
0.001246604585
0.001254846149
0.001263253953
0.001271878649
0.001280745105
0.001289862696
0.001299241973
0.001308894075
0.001318830519
0.001329063253
0.001339605446
0.001350471028
0.00136167415
0.001373237771
0.001385183914
0.0013975242
0.00141026433
0.001423357403
0.001436895841
0.001450901326
0.001465395609
0.001480413873
0.001495972362
0.001512102062
0.001528836045
0.001546192118
0.001564196918
0.001582877708
0.001602138231
0.001622137236
0.001642910167
0.001664491967
0.001686919016
0.001710212409
0.001734391943
0.001759477513
0.001785487825
0.00181227942
0.001839960346
0.00186857673
0.001898116027
0.00192880723
0.001960664749
0.00199406767
0.002028979664
0.002065885385
0.002104562513
0.002145607449
0.002188938594
0.002235316047
0.002284484124
0.002337417026
0.002393920736
0.00245539945
0.002521442073
0.002594395637
0.002674601895
0.00276502888
0.002865112769
0.002977841536
0.003103441413
0.003245101604
0.003403205303
0.003582777573
0.003784499439
0.004015402312
0.004277559377
0.004581563315
0.004933390015
0.005349221472
0.005838649742
0.00642679762
0.007131558923
0.007994395976
0.009047348273
0.01035999913
0.01198437649
0.01402080537
0.01651962926
0.01957164329
0.02319663943
0.0270979235
0.03039920867
0.03226311144
0.03262058502
0.03186737669
0.0303911522
0.02847586647
0.02630674384
0.02401426872
0.02168958862
0.01940688512
0.01722347811
0.01518060474
0.01330458974
0.01161167673
0.0101054739
0.008781198293
0.00762728776
0.00662987991
0.005774623865
0.005040015963
0.004411359313
0.003870093196
0.00340383208
0.003000533254
0.002649660018
0.002343862366
0.002075336095
0.001840195498
0.00163391385
0.001452269728
0.001291819608
0.001149961382
0.001024262253
0.0009127206111
0.0008137628754
0.0007260704434
0.0006484659589
0.0005798179644
0.0005190473512
0.0004651706401
0.000417325705
0.0003747656498
0.0003368449613
0.0003030062303
0.0002727682752
0.0002457140862
0.0002214805932
0.0001997509703
0.0001802478752
0.0001627279568
0.0001469768404
0.0001328054426
0.0001200466079
0.0001085522709
9.819104538e-05
8.884614055e-05
8.041361263e-05
7.280080892e-05
6.59250433e-05
5.971243318e-05
5.409689091e-05
4.901924355e-05
4.442645567e-05
4.027095189e-05
3.651001977e-05
3.310528266e-05
3.002223521e-05
2.722983115e-05
2.47001194e-05
2.24079209e-05
2.033054084e-05
1.844751272e-05
1.674037106e-05
1.519244742e-05
1.378868982e-05
1.251550027e-05
1.136058961e-05
1.031284764e-05
9.362226699e-06
8.499637173e-06
7.716853891e-06
7.006431633e-06
6.361629576e-06
5.776343118e-06
5.245042592e-06
4.762718058e-06
4.324829505e-06
3.927262103e-06
3.566285605e-06
3.238517945e-06
2.940892229e-06
2.670626978e-06
2.425199216e-06
2.202320162e-06
1.999913233e-06
1.81609419e-06
1.649153102e-06
1.497538101e-06
1.359840625e-06
1.234782084e-06
1.121201769e-06
1.018045912e-06
9.24357755e-07
8.392685796e-07
7.619895491e-07
6.918043285e-07
6.280623863e-07
5.701729264e-07
5.175993756e-07
4.698543968e-07
4.26495344e-07
3.871201665e-07
3.513636647e-07
3.188941079e-07
2.894101622e-07
2.626380994e-07
2.383292634e-07
2.162577713e-07
1.962184274e-07
1.78024824e-07
1.615076233e-07
1.465129925e-07
1.329011853e-07
1.205452495e-07
1.093298609e-07
9.91502549e-08
8.991126049e-08
8.152642659e-08
7.391721994e-08
6.70123022e-08
6.074687353e-08
5.506207281e-08
4.990443362e-08
4.522539315e-08
4.098084131e-08
3.713071593e-08
3.363862939e-08
3.047153501e-08
2.759942023e-08
2.499502914e-08
2.263360922e-08
2.049268358e-08
1.85518419e-08
1.67925521e-08
1.519798644e-08
1.375286751e-08
1.244332332e-08
1.125676292e-08
1.018175363e-08
9.207917318e-09
8.325837114e-09
7.526961444e-09
6.803531572e-09
6.148506999e-09
5.555494227e-09
5.018697656e-09
4.532853125e-09
4.093187709e-09
3.695368998e-09
3.33547014e-09
3.009925962e-09
2.715502492e-09
2.449269484e-09
2.208567672e-09
1.990986448e-09
1.794339206e-09
1.616645161e-09
1.45610679e-09
1.311095495e-09
1.180135118e-09
1.061889171e-09
9.55144982e-10
8.588042172e-10
7.718716987e-10
6.934467305e-10
6.227112753e-10
5.58927551e-10
5.014267014e-10
4.496024523e-10
4.02906944e-10
3.60842348e-10
3.229591749e-10
2.888515911e-10
2.581526093e-10
2.305298512e-10
2.056805297e-10
1.833349969e-10
1.632462238e-10
1.451915822e-10
1.289706015e-10
1.144026157e-10
1.013228392e-10
8.958375415e-11
7.905079089e-11
6.960417236e-11
6.113588478e-11
5.354548439e-11
4.674636703e-11
4.065701884e-11
3.520632083e-11
3.032949631e-11
2.59666402e-11
2.206768097e-11
1.858326537e-11
1.547078938e-11
1.269265835e-11
1.021324194e-11
8.002853836e-12
6.031282811e-12
4.274705457e-12
2.710157427e-12
1.317825481e-12
7.925709952e-14
0
0
0
0
0
0
0
0
0
0
0
0
0
0
0
0
0
0
0
0
0
0
0
0
0
0
0
0
0
0
0
0
0
0
0
0
0
0
0
0
0
0
0
0
0
0
0
0
0
0
0
0
0
0
0
0
0
0
0
0
0
0
0
0
0
0
0
0
0
0
0
0
0
0
0
0
0
0
0
0
0
0
0
0
0
0
0
0
0
0
0
0
0
0
0
0
0
0
0
0
0
0
0
0
0
0
0
0
0
0
0
0
0
0
0
0
0
0
0
0
0
0
0
0
0
0
0
0
0
0
0
0
0
0
0
0
0
0
0
0
0
0
0
0
0
0
0
0
0
0
0
0
0
0
0
0
0
0
0
0
0
0
0
0
0
0
0
0
0
0
0
0
0
0
0
0
0
0
0
0
0
0
0
0
0
0
0
0
0
0
0
0
0
0
0
0
0
0
0
0
0
0
0
0
0
0
0
0
0
0
0
0
0
0
0
0
0
0
0
0
0
0
0
0
0
0
0.001047138568
0.001047533653
0.001048277508
0.001049328851
0.001050650735
0.001052210303
0.001053978557
0.001055930102
0.001058042843
0.001060297681
0.001062678273
0.001065170964
0.001067764376
0.001070448962
0.001073216689
0.001076060691
0.001078974573
0.001081954989
0.001084999201
0.001088104799
0.001091269821
0.001094492661
0.001097771904
0.001101105964
0.001104494644
0.00110793912
0.00111144048
0.00111499922
0.001118615646
0.001122290495
0.001126024781
0.001129819731
0.001133676749
0.001137597403
0.001141583352
0.001145615092
0.001149713316
0.001153876664
0.001158110728
0.001162418958
0.001166803546
0.001171266614
0.001175810213
0.001180436402
0.001185147396
0.001189946113
0.001194835371
0.001199814213
0.001204883114
0.001210042931
0.001215295463
0.001220644953
0.00122609801
0.001231661351
0.001237338669
0.001243134748
0.001249054329
0.001255101411
0.001261279927
0.001267593902
0.00127404722
0.001280627364
0.001287330834
0.001294187019
0.001301201486
0.001308380764
0.001315734275
0.001323265212
0.001330977535
0.001338877404
0.001346971949
0.001355269013
0.001363776491
0.001372500844
0.001381448899
0.001390628198
0.001400046852
0.001409713331
0.001419636441
0.001429784615
0.00144016182
0.001450817361
0.001461764585
0.001473016953
0.001484584812
0.001496483503
0.001508727995
0.001521333274
0.001534314716
0.001547688342
0.00156147148
0.001575675738
0.00159027593
0.001605265399
0.001620741185
0.001636723366
0.001653232253
0.001670296707
0.001687944804
0.00170620653
0.001725118012
0.001744711703
0.001764996352
0.001785922933
0.001807616624
0.00183011524
0.001853460265
0.001877697632
0.001902866086
0.001929014981
0.001956186752
0.001984288022
0.002013457464
0.002043786404
0.002075323142
0.002108102473
0.002142173294
0.002177563049
0.002214266752
0.002252296455
0.002291936677
0.002333339011
0.002376759741
0.002422373207
0.00247048659
0.002521237399
0.002574834401
0.00263173688
0.002692423978
0.002757196866
0.00282669263
0.002901267317
0.002981790472
0.003069075696
0.003164617714
0.003269501499
0.003385422075
0.003513939267
0.003656701718
0.003815285067
0.003992484483
0.00418999802
0.004411833663
0.004661476973
0.004943819798
0.005264784772
0.005632537084
0.006056257746
0.006548716843
0.007123968334
0.007802079729
0.008605555339
0.009566233253
0.01071995007
0.01211539635
0.01380421534
0.01584974095
0.01830113832
0.02119243098
0.02445324849
0.027790246
0.0306487635
0.03253440396
0.03329938606
0.03310028576
0.03216041278
0.0306861642
0.02884740456
0.02677187192
0.02457148886
0.02233173955
0.02012157309
0.01799736489
0.01599842861
0.01415236804
0.01247365967
0.01096596698
0.009631120748
0.008456511931
0.007426384376
0.006526886638
0.005742471794
0.005055737664
0.004454854959
0.0039298317
0.003471422837
0.003070752604
0.002719929298
0.002412196719
0.00214190839
0.001903914479
0.001693918561
0.001508482746
0.001344525205
0.001199336293
0.001070746504
0.000956817266
0.000855797581
0.0007661474274
0.0006865100235
0.0006156649883
0.0005525624846
0.0004962940276
0.0004460636679
0.0004011741784
0.0003610183386
0.0003250650973
0.0002928468642
0.0002639524561
0.0002380193603
0.0002147282907
0.0001937960582
0.000174972033
0.0001580339744
0.0001427845301
0.0001290482503
0.0001166688718
0.0001055071998
9.543905303e-05
8.635355777e-05
7.815161754e-05
7.074458358e-05
6.405310347e-05
5.800607529e-05
5.253974614e-05
4.75969133e-05
4.312621423e-05
3.908150426e-05
3.542129794e-05
3.210827821e-05
2.910886109e-05
2.639280494e-05
2.393286489e-05
2.170448458e-05
1.96855199e-05
1.78559953e-05
1.619788376e-05
1.469491032e-05
1.333237667e-05
1.209700391e-05
1.097679165e-05
9.960891966e-06
9.039495376e-06
8.20372931e-06
7.44556644e-06
6.757742439e-06
6.133681959e-06
5.567431884e-06
5.053601565e-06
4.587308428e-06
4.164129505e-06
3.780057392e-06
3.431460628e-06
3.115047908e-06
2.827835798e-06
2.567119522e-06
2.330446708e-06
2.115593435e-06
1.920542806e-06
1.743465441e-06
1.58270187e-06
1.436746609e-06
1.304233748e-06
1.183923889e-06
1.074692357e-06
9.755184887e-07
8.854759558e-07
8.037239851e-07
7.294994144e-07
6.621094837e-07
6.009253174e-07
5.45375986e-07