/*--------------------------------*- C++ -*----------------------------------*\
| =========                 |                                                 |
| \\      /  F ield         | OpenFOAM: The Open Source CFD Toolbox           |
|  \\    /   O peration     | Version:  v2006                                 |
|   \\  /    A nd           | Website:  www.openfoam.com                      |
|    \\/     M anipulation  |                                                 |
\*---------------------------------------------------------------------------*/
FoamFile
{
    version     2.0;
    format      ascii;
    class       volScalarField;
    location    "0.1";
    object      CO2;
}
// * * * * * * * * * * * * * * * * * * * * * * * * * * * * * * * * * * * * * //

dimensions      [0 0 0 0 0 0 0];


internalField   nonuniform List<scalar> 
72000
(
0.1504688295
0.1504688286
0.1504688268
0.1504688242
0.1504688209
0.1504688171
0.1504688127
0.1504688079
0.1504688027
0.1504687971
0.1504687913
0.1504687851
0.1504687787
0.1504687721
0.1504687653
0.1504687583
0.1504687512
0.1504687439
0.1504687364
0.1504687288
0.150468721
0.1504687131
0.1504687051
0.1504686969
0.1504686886
0.1504686801
0.1504686716
0.1504686629
0.1504686542
0.1504686452
0.1504686362
0.150468627
0.1504686177
0.1504686083
0.1504685987
0.150468589
0.1504685792
0.1504685692
0.1504685591
0.1504685489
0.1504685384
0.1504685279
0.1504685172
0.1504685063
0.1504684953
0.1504684841
0.1504684727
0.1504684613
0.1504684497
0.150468438
0.1504684256
0.1504684127
0.1504683996
0.1504683864
0.150468373
0.1504683594
0.1504683456
0.1504683316
0.1504683173
0.1504683027
0.1504682879
0.1504682728
0.1504682575
0.1504682419
0.150468226
0.1504682098
0.1504681931
0.1504681761
0.1504681589
0.1504681412
0.1504681233
0.150468105
0.1504680863
0.1504680674
0.150468048
0.1504680282
0.1504680081
0.1504679875
0.1504679665
0.150467945
0.1504679231
0.1504679007
0.1504678778
0.1504678543
0.1504678303
0.1504678058
0.1504677807
0.1504677551
0.1504677286
0.1504677015
0.1504676737
0.1504676452
0.1504676159
0.1504675859
0.150467555
0.1504675233
0.1504674907
0.1504674572
0.1504674229
0.1504673876
0.1504673513
0.150467314
0.1504672754
0.1504672357
0.1504671947
0.1504671525
0.1504671089
0.1504670638
0.1504670173
0.1504669692
0.1504669194
0.150466868
0.1504668149
0.1504667594
0.1504667067
0.150466597
0.1504669037
0.1504650291
0.1504707414
0.1504597381
0.1504708544
0.1504537673
0.1504709648
0.1504471719
0.1504710779
0.1504401496
0.1504712186
0.1504324636
0.1504713312
0.1504236859
0.1504714803
0.1504134391
0.1504716553
0.150400412
0.1504719812
0.1503762321
0.1504722434
0.1503694946
0.1504726626
0.1503648207
0.1504729763
0.1503592416
0.1504725302
0.1503513349
0.1504705115
0.1503412201
0.150467991
0.1503293693
0.150467516
0.1503074435
0.150468587
0.1502925013
0.1504702501
0.1502416153
0.15047264
0.1502355439
0.1504775213
0.1504810977
0.1504855812
0.1498628495
0.1504577006
0.125507088
0.09437159691
0.07523602702
0.06239681013
0.05290216097
0.04534110327
0.0390302396
0.03361889652
0.02892004218
0.02482187366
0.02125671599
0.01817134372
0.01551921187
0.01325575716
0.0113361081
0.009716757242
0.008355512435
0.007212422103
0.006252343377
0.005444252765
0.004761845094
0.004183101414
0.00368983116
0.003267369121
0.00290371193
0.002589393718
0.002316284916
0.00207714396
0.001866977754
0.001682825416
0.001521825103
0.001376950709
0.001245761906
0.001126530721
0.001014117716
0.0009036507168
0.0008023211041
0.0007120651027
0.0006326752725
0.0005631337248
0.0005022152911
0.0004487407682
0.0004016659784
0.0003600986245
0.0003232867917
0.0002905988436
0.0002615029505
0.0002355491481
0.0002123545155
0.0001915912367
0.0001729770667
0.0001562677291
0.0001412508115
0.0001277408273
0.0001155751922
0.000104610918
9.472187342e-05
8.579649775e-05
7.77358794e-05
7.045213106e-05
6.386700764e-05
5.791072456e-05
5.252094249e-05
4.76418915e-05
4.322361231e-05
3.922129647e-05
3.559471079e-05
3.230769356e-05
2.932771251e-05
2.662547566e-05
2.417458814e-05
2.195124863e-05
1.993398049e-05
1.810339305e-05
1.644196934e-05
1.493387693e-05
1.356479927e-05
1.232178492e-05
1.119311273e-05
1.016817105e-05
9.237349498e-06
8.391941716e-06
7.624058087e-06
6.926547219e-06
6.29292529e-06
5.717312405e-06
5.194375253e-06
4.719275369e-06
4.287622459e-06
3.895432241e-06
3.539088368e-06
3.215307996e-06
2.921110651e-06
2.653790074e-06
2.410888716e-06
2.19017468e-06
1.989620803e-06
1.80738573e-06
1.641796758e-06
1.491334278e-06
1.354617685e-06
1.230392588e-06
1.117519207e-06
1.014961866e-06
9.217794365e-07
8.371166829e-07
7.601963919e-07
6.903122434e-07
6.268223208e-07
5.691432297e-07
5.16744757e-07
4.691450105e-07
4.259060182e-07
3.866297175e-07
3.509543127e-07
3.185509796e-07
2.891208547e-07
2.623923067e-07
2.381184584e-07
2.160749283e-07
1.960577898e-07
1.778816994e-07
1.613782147e-07
1.463942482e-07
1.327906792e-07
1.204410709e-07
1.092305215e-07
9.905461814e-08
8.981847601e-08
8.143587393e-08
7.38284616e-08
6.692505022e-08
6.066095529e-08
5.497740583e-08
4.982100287e-08
4.514323158e-08
4.090001972e-08
3.705132769e-08
3.356078329e-08
3.039534497e-08
2.752499963e-08
2.492248879e-08
2.256305515e-08
2.042421047e-08
1.848553589e-08
1.672848459e-08
1.51362176e-08
1.369344583e-08
1.23862854e-08
1.120212996e-08
1.01295392e-08
9.15812361e-09
8.278455628e-09
7.481974209e-09
6.760912334e-09
6.108218543e-09
5.517498865e-09
4.982947784e-09
4.499298074e-09
4.061770904e-09
3.666030474e-09
3.308148253e-09
2.98455324e-09
2.692013391e-09
2.427596486e-09
2.188640044e-09
1.972737745e-09
1.777699111e-09
1.601545014e-09
1.442479059e-09
1.29887287e-09
1.169250515e-09
1.052277954e-09
9.467453243e-10
8.515536986e-10
7.657077312e-10
6.883110759e-10
6.185500842e-10
5.556874443e-10
4.990556178e-10
4.480503066e-10
4.021237835e-10
3.607818381e-10
3.235795402e-10
2.901112875e-10
2.600102636e-10
2.329469871e-10
2.086220768e-10
1.867640499e-10
1.671316154e-10
1.495044496e-10
1.336832322e-10
1.194869953e-10
1.067537584e-10
9.533661825e-11
8.510168259e-11
7.593249037e-11
6.771945529e-11
6.036608755e-11
5.378360594e-11
4.789890733e-11
4.263590569e-11
3.793400421e-11
3.373204e-11
2.997801336e-11
2.663044805e-11
2.364337296e-11
2.098187771e-11
1.860796582e-11
1.649455941e-11
1.461244585e-11
1.293687816e-11
1.144647636e-11
1.012186181e-11
8.945642786e-12
7.902143415e-12
6.97375562e-12
6.149100888e-12
5.418452537e-12
4.772571697e-12
4.201946576e-12
3.698217329e-12
3.251807685e-12
2.859517543e-12
2.511478171e-12
2.204302826e-12
1.933543528e-12
1.694855584e-12
1.484390436e-12
1.298071467e-12
1.135862795e-12
9.913792311e-13
8.663008365e-13
7.550934634e-13
6.571683643e-13
5.715456835e-13
4.99349141e-13
4.348390683e-13
3.787218858e-13
3.301861927e-13
2.899260835e-13
2.525044045e-13
2.193563719e-13
1.898351616e-13
1.641876945e-13
1.41880008e-13
1.22307389e-13
1.064138349e-13
9.260586914e-14
8.045291664e-14
7.033230779e-14
6.20949813e-14
5.647654143e-14
5.408913187e-14
4.991241693e-14
4.466049688e-14
3.826056773e-14
3.595491842e-14
3.121120536e-14
3.028903234e-14
2.892764046e-14
2.588734671e-14
2.187439527e-14
1.697310698e-14
1.61032817e-14
1.776972791e-14
1.705610959e-14
1.577775826e-14
1.278287404e-14
9.593156535e-15
1.099983203e-14
1.041581411e-14
8.510545819e-15
4.288117804e-15
2.852870131e-15
2.486128313e-15
3.812984143e-15
3.145475238e-15
6.031345235e-15
6.096391643e-15
4.978540961e-15
3.977124632e-15
5.955787786e-15
5.229449818e-15
3.364260071e-15
3.536952563e-16
1.044346859e-15
3.273592546e-17
4.446024614e-17
1.256312954e-15
5.026858983e-15
6.225457654e-15
5.228630472e-15
1.685752118e-15
1.833895577e-15
5.521552015e-15
7.835247882e-15
9.063414056e-15
8.889374412e-15
8.209223357e-15
6.205986273e-15
7.050692737e-15
6.08067957e-15
2.276894721e-15
5.037728568e-16
1.339508488e-15
4.664301885e-15
3.546964605e-15
3.650756809e-15
6.56150668e-15
7.977578421e-15
8.340747405e-15
7.094333622e-15
7.704237236e-15
1.124925719e-14
1.093808804e-14
1.250882653e-14
1.005585955e-14
9.780781191e-15
1.133612404e-14
1.010418807e-14
1.307346106e-14
1.521709454e-14
1.575185562e-14
1.460872064e-14
1.114169519e-14
1.045297773e-14
6.384615064e-15
5.38564628e-15
6.776532205e-15
6.356369817e-15
3.05594289e-15
2.087765381e-15
3.062466178e-15
1.466749333e-15
1.684834289e-15
4.56540477e-15
3.807871101e-15
5.923259335e-15
4.388513155e-15
6.104029728e-15
6.636037324e-15
5.574469676e-15
8.266828648e-15
9.324320552e-15
9.642220452e-15
8.262446961e-15
8.461770906e-15
9.580233474e-15
9.233989844e-15
1.187180295e-14
1.067809937e-14
1.076649594e-14
1.188658671e-14
8.94504556e-15
8.323111683e-15
8.582794406e-15
1.152433555e-14
1.22916594e-14
9.69391434e-15
9.048630305e-15
9.099406364e-15
1.083001263e-14
9.512226119e-15
7.152244856e-15
7.425487558e-15
8.552309073e-15
1.1263735e-14
1.169806925e-14
9.715122897e-15
7.939859431e-15
1.04289172e-14
1.023540617e-14
1.391317395e-14
1.518722109e-14
1.401136069e-14
1.689560249e-14
1.701142496e-14
1.431447684e-14
1.5564256e-14
1.55491663e-14
1.407273578e-14
9.934125682e-15
8.750004819e-15
9.947073775e-15
1.384078491e-14
1.417561016e-14
1.193705682e-14
1.068177069e-14
1.201658104e-14
1.010551032e-14
4.719973034e-15
1.11061704e-15
2.967649459e-17
2.93705515e-17
6.741411844e-16
3.730892912e-15
2.738654876e-15
3.375372505e-15
4.833959843e-15
7.036214928e-15
5.762167783e-15
4.635553728e-15
5.34771983e-15
7.63154225e-15
1.234957063e-14
1.456498127e-14
1.407242984e-14
1.008665083e-14
7.656214664e-15
6.525415889e-15
6.060596302e-15
6.254719214e-15
1.670968367e-15
1.815897536e-16
2.080414507e-17
2.309008252e-15
2.051161187e-15
4.514670819e-16
2.693484275e-15
9.385115372e-16
2.339940119e-16
1.611931844e-15
3.917201895e-16
1.544743834e-15
3.035652163e-15
4.865155545e-15
1.99386184e-15
4.194520341e-16
1.129782478e-15
5.023799552e-15
6.124418938e-15
4.924902437e-15
1.935032776e-15
8.20853411e-16
2.301971561e-15
8.493272403e-17
2.610366092e-17
6.586576926e-17
0.150222615
0.1502224213
0.1502220518
0.1502215247
0.1502208577
0.1502200672
0.1502191681
0.1502181733
0.1502170943
0.150215941
0.150214722
0.1502134444
0.1502121144
0.1502107369
0.1502093164
0.1502078562
0.1502063593
0.1502048278
0.1502032636
0.1502016679
0.1502000418
0.1501983862
0.1501967017
0.1501949887
0.1501932474
0.150191478
0.1501896806
0.1501878547
0.1501859996
0.1501841148
0.1501821994
0.1501802528
0.1501782742
0.1501762628
0.1501742177
0.1501721379
0.150170023
0.1501678721
0.1501656843
0.1501634583
0.1501611929
0.1501588871
0.1501565396
0.1501541496
0.1501517162
0.1501492387
0.1501467173
0.1501441529
0.1501415481
0.1501389081
0.1501362641
0.1501336028
0.1501309012
0.1501281525
0.1501253511
0.1501224927
0.1501195744
0.1501165936
0.1501135478
0.150110435
0.1501072529
0.1501039995
0.1501006726
0.1500972698
0.1500937893
0.1500902297
0.1500865906
0.1500828641
0.1500790476
0.1500751381
0.1500711329
0.1500670308
0.1500628336
0.1500585317
0.1500541199
0.1500495942
0.1500449498
0.150040183
0.1500352894
0.1500302632
0.1500250983
0.1500197872
0.1500143253
0.1500087077
0.1500029296
0.1499969844
0.1499908661
0.1499845683
0.149978162
0.1499715704
0.1499647757
0.1499577673
0.1499505338
0.149943064
0.1499353457
0.1499273675
0.1499191165
0.1499105819
0.1499017541
0.1498926193
0.149883164
0.1498733706
0.1498632205
0.1498526968
0.1498417839
0.1498304651
0.1498187204
0.1498065303
0.1497939021
0.1497809191
0.1497674415
0.1497534606
0.1497389603
0.1497239479
0.1497084751
0.1496925887
0.1496762082
0.1496597777
0.1496418344
0.1496276229
0.1496083288
0.1495951319
0.1495734926
0.1495605756
0.1495357523
0.1495226646
0.1494940701
0.1494806984
0.1494480669
0.1494343488
0.1493968367
0.1493826206
0.1493393031
0.1493245124
0.1492735141
0.1492570322
0.1491873977
0.1491572105
0.1490686643
0.1490231628
0.1489132518
0.1488505935
0.148708637
0.1486247623
0.1484378777
0.1483360799
0.1480990248
0.1479429911
0.1476117445
0.1473717802
0.1468808503
0.1465038762
0.1457298831
0.145110879
0.1437993402
0.1426355408
0.140145354
0.1376109723
0.1344470335
0.129994424
0.1203091214
0.1035440693
0.08575389564
0.07194278227
0.06130287321
0.05278934132
0.04570716931
0.03964166554
0.03435127386
0.02969777646
0.02559738542
0.02199646438
0.01885338575
0.01613108635
0.0137924344
0.01179914559
0.01011104557
0.008688386679
0.00749256541
0.00648765811
0.005642193986
0.00492869674
0.00432418962
0.003809717568
0.003369324128
0.002990466245
0.00266401061
0.00238354591
0.002136906714
0.001918993366
0.001726138612
0.001553944625
0.001398248556
0.001256823845
0.001126425326
0.001005823237
0.0008952703234
0.0007960041853
0.0007081181524
0.0006307946094
0.0005628619509
0.0005031138303
0.0004504452026
0.0004038935031
0.000362638221
0.0003259851345
0.0002933468709
0.0002642246969
0.0002381930521
0.0002148868446
0.0001939911908
0.0001752331463
0.0001583750728
0.0001432092357
0.0001295533853
0.0001172471164
0.0001061488441
9.613327666e-05
8.708928234e-05
7.891808536e-05
7.153172584e-05
6.485174213e-05
5.880803661e-05
5.333789544e-05
4.838513859e-05
4.389938e-05
3.983538138e-05
3.615248632e-05
3.281412321e-05
2.978736759e-05
2.704255594e-05
2.455294397e-05
2.229440371e-05
2.024515478e-05
1.838552507e-05
1.669773781e-05
1.516572146e-05
1.377493985e-05
1.251224027e-05
1.136571746e-05
1.032459156e-05
9.379098738e-06
8.520392792e-06
7.740456768e-06
7.032023438e-06
6.388503663e-06
5.80392187e-06
5.27285785e-06
4.790394278e-06
4.352069292e-06
3.9538337e-06
3.592012295e-06
3.26326887e-06
2.964574585e-06
2.693179348e-06
2.446585893e-06
2.22252634e-06
2.018940924e-06
1.833958758e-06
1.665880389e-06
1.513161978e-06
1.374400973e-06
1.248323103e-06
1.133770581e-06
1.029691423e-06
9.351297276e-07
8.492168775e-07
7.711635383e-07
7.002524087e-07
6.358316266e-07
5.773087858e-07
5.241455099e-07
4.75852511e-07
4.319851164e-07
3.921391895e-07
3.559474338e-07
3.230760405e-07
2.932216279e-07
2.661084722e-07
2.414859839e-07
2.191264191e-07
1.988228043e-07
1.803870328e-07
1.636481603e-07
1.484508286e-07
1.346538583e-07
1.2212895e-07
1.107595102e-07
1.004395943e-07
9.107292545e-08
8.257202446e-08
7.485740116e-08
6.785682832e-08
6.150468321e-08
5.574134531e-08
5.051264147e-08
4.576935893e-08
4.146678991e-08
3.75643202e-08
3.402505597e-08
3.081548146e-08
2.790515542e-08
2.526643178e-08
2.287419973e-08
2.070565064e-08
1.874007577e-08
1.695866737e-08
1.534434629e-08
1.388160825e-08
1.2556373e-08
1.135585643e-08
1.026845854e-08
9.283640955e-09
8.391846334e-09
7.584392016e-09
6.853402701e-09
6.191731105e-09
5.592890638e-09
5.050996205e-09
4.560705645e-09
4.117172991e-09
3.716006882e-09
3.353219903e-09
3.025191464e-09
2.728647747e-09
2.460612927e-09
2.218389895e-09
1.999535422e-09
1.801833038e-09
1.623273709e-09
1.462035593e-09
1.316470906e-09
1.185083671e-09
1.066517227e-09
9.595468098e-10
8.630584246e-10
7.76045434e-10
6.975967739e-10
6.26888573e-10
5.631728646e-10
5.057730901e-10
4.540747761e-10
4.075247875e-10
3.656241339e-10
3.279164373e-10
2.939954197e-10
2.634890232e-10
2.360592979e-10
2.114060898e-10
1.892543295e-10
1.693571024e-10
1.514933948e-10
1.354583913e-10
1.210710811e-10
1.081646165e-10
9.659385108e-11
8.622227059e-11
7.693063059e-11
6.860805885e-11
6.115534655e-11
5.448786937e-11
4.852378653e-11
4.318973053e-11
3.842588552e-11
3.41691046e-11
3.036509606e-11
2.697374783e-11
2.394689964e-11
2.125020992e-11
1.884523697e-11
1.670375981e-11
1.479732833e-11
1.310014129e-11
1.158947738e-11
1.024900762e-11
9.055847551e-12
7.998344569e-12
7.057443802e-12
6.224129415e-12
5.485551941e-12
4.832518085e-12
4.253961591e-12
3.74384142e-12
3.291902142e-12
2.893604272e-12
2.540747142e-12
2.229500392e-12
1.955121206e-12
1.712320328e-12
1.49917208e-12
1.310980354e-12
1.147451048e-12
1.000840861e-12
8.738100258e-13
7.626691666e-13
6.648877767e-13
5.783181863e-13
5.04489006e-13
4.388581746e-13
3.832502941e-13
3.337787044e-13
2.920186493e-13
2.537814885e-13
2.201432046e-13
1.905143396e-13
1.649595815e-13
1.436230545e-13
1.227234733e-13
1.080900424e-13
9.437411393e-14
8.220799224e-14
7.17500929e-14
6.324815637e-14
5.682236581e-14
5.243641249e-14
4.768982167e-14
4.276365919e-14
3.790158977e-14
3.496787483e-14
3.134019538e-14
3.0538681e-14
2.774497497e-14
2.315207491e-14
1.962556009e-14
1.666319787e-14
1.615453399e-14
1.662629583e-14
1.469486094e-14
1.386323657e-14
1.005949774e-14
8.425605017e-15
9.789329011e-15
8.115072783e-15
7.96557559e-15
4.610680301e-15
4.180914207e-15
1.924299736e-15
2.209660692e-15
3.067512216e-15
5.635886739e-15
7.197643902e-15
6.48037525e-15
4.289942969e-15
5.134747916e-15
2.896500523e-15
9.996016712e-16
8.749973805e-17
8.046304705e-17
7.312041296e-17
1.488678752e-15
1.53333595e-15
4.458968055e-15
4.831413815e-15
4.083768807e-15
1.429543746e-15
1.748667418e-15
3.418914907e-15
5.658692016e-15
7.10014654e-15
6.037355121e-15
5.989026606e-15
6.786322384e-15
5.265442126e-15
5.331406363e-15
3.663300476e-15
1.325751542e-15
2.375900812e-15
5.543372458e-15
5.774405507e-15
4.073574202e-15
4.656051915e-15
5.436323856e-15
6.376157634e-15
7.972486365e-15
8.037740233e-15
1.151261123e-14
1.255225995e-14
1.278390489e-14
1.162659804e-14
1.12809663e-14
1.085428062e-14
9.278548558e-15
1.03594891e-14
1.333436755e-14
1.394212957e-14
1.349392939e-14
1.182836953e-14
1.035193901e-14
6.798560107e-15
6.488713211e-15
5.183776307e-15
5.780218426e-15
4.238741497e-15
3.360184327e-15
2.313706374e-15
3.200316548e-15
2.171069891e-15
4.801846312e-15
4.245166302e-15
6.211799192e-15
4.468146348e-15
4.368637347e-15
4.743224708e-15
5.104252091e-15
6.227402289e-15
6.993502365e-15
7.756237068e-15
1.020930253e-14
1.088761792e-14
1.05730834e-14
9.570650755e-15
1.220479255e-14
1.27983827e-14
1.297242234e-14
1.274047146e-14
1.021909271e-14
1.075976519e-14
9.295266451e-15
9.992342859e-15
1.210375383e-14
1.090209573e-14
1.130747437e-14
1.093105135e-14
1.062946491e-14
9.722564014e-15
7.898567608e-15
1.007869631e-14
1.048560466e-14
1.00330228e-14
1.060785193e-14
7.499209349e-15
6.852297114e-15
9.736637396e-15
9.787719399e-15
1.283621066e-14
1.426370078e-14
1.326708106e-14
1.62296233e-14
1.6403357e-14
1.379817083e-14
1.362290741e-14
1.344550239e-14
1.302228057e-14
1.051966283e-14
9.91557213e-15
1.049284881e-14
1.371293217e-14
1.476736465e-14
1.408690765e-14
1.168104542e-14
1.219031474e-14
9.989993798e-15
6.687119326e-15
1.998254019e-15
1.585560317e-16
4.884861955e-16
1.79648253e-15
4.534722471e-15
4.027387289e-15
6.037147661e-15
7.526832217e-15
7.041317477e-15
8.084124113e-15
6.327829119e-15
7.066503294e-15
8.756123681e-15
1.12793381e-14
1.397139113e-14
1.397108518e-14
1.193185579e-14
9.730005132e-15
9.338186474e-15
8.874896603e-15
7.269083636e-15
2.407402457e-15
3.776573005e-16
9.299622064e-17
1.408127729e-15
2.033117128e-16
1.571247996e-16
3.235587993e-15
3.177370817e-15
8.431872563e-16
7.131929232e-16
1.446666065e-15
4.748721191e-15
6.182024229e-15
5.993812719e-15
4.39075324e-15
1.145997462e-15
1.377030511e-15
4.694175331e-15
4.909812743e-15
3.272498131e-15
3.662885556e-15
1.778224428e-15
2.606005539e-15
8.522565726e-16
1.635992371e-15
1.230613735e-15
0.1500346301
0.1500342769
0.1500336075
0.150032656
0.1500314549
0.1500300336
0.1500284184
0.1500266328
0.1500246971
0.150022629
0.1500204438
0.1500181542
0.1500157711
0.1500133036
0.1500107591
0.150008144
0.1500054634
0.1500027212
0.1499999204
0.1499970635
0.1499941523
0.1499911884
0.1499881728
0.1499851063
0.1499819893
0.1499788218
0.1499756263
0.149972397
0.1499691162
0.1499657828
0.1499623957
0.1499589536
0.1499554554
0.1499518994
0.1499482838
0.1499446073
0.1499408688
0.1499370674
0.1499332011
0.1499292677
0.149925265
0.1499211911
0.149917044
0.1499128219
0.1499085232
0.1499041467
0.1498996919
0.14989516
0.1498905543
0.1498858832
0.1498811689
0.1498764002
0.1498715569
0.1498666294
0.149861606
0.1498564798
0.1498512455
0.1498458988
0.1498404356
0.1498348519
0.1498291433
0.1498233067
0.1498173383
0.1498112336
0.1498049882
0.1497985978
0.1497921027
0.1497854826
0.1497787033
0.1497717587
0.1497646429
0.1497573496
0.1497498729
0.149742206
0.1497343424
0.1497262752
0.1497179972
0.1497095013
0.1497007797
0.1496918235
0.1496826205
0.1496731505
0.1496634097
0.1496533921
0.1496430885
0.1496324876
0.1496215774
0.1496103454
0.1495987799
0.1495869615
0.149574814
0.1495622856
0.1495493552
0.1495360017
0.1495222055
0.1495079438
0.1494931888
0.1494779246
0.1494621242
0.1494457726
0.149428855
0.1494113326
0.1493931698
0.1493743346
0.1493548867
0.1493348196
0.1493139986
0.1492923935
0.1492699567
0.1492466446
0.1492224289
0.149197282
0.1491711795
0.1491441099
0.1491160752
0.1490870859
0.1490573458
0.1490268297
0.148995496
0.1489638092
0.1489308003
0.1488972713
0.1488616209
0.1488252388
0.1487859289
0.1487457309
0.1487017808
0.148656888
0.1486073818
0.1485570249
0.1485011033
0.1484438724
0.1483793812
0.1483127499
0.1482359584
0.1481543746
0.1480562416
0.1479507895
0.1478257032
0.1476904211
0.1475304764
0.1473579009
0.1471533339
0.1469305737
0.1466654038
0.1463764404
0.146025214
0.1456290388
0.1451376779
0.1445710279
0.1438555539
0.1430102264
0.1419149697
0.1405863887
0.138807718
0.1365802853
0.1335323851
0.1297090977
0.1247049684
0.1177840851
0.1078597302
0.09524579408
0.08252325994
0.07156148887
0.06237073094
0.05458387531
0.04785931478
0.04195146952
0.0367020454
0.03201324297
0.02782528769
0.02409953789
0.02080486722
0.01791556469
0.01540232354
0.01323476564
0.01137881343
0.009798927294
0.008459698391
0.007326665727
0.006368332444
0.005556476426
0.004867014236
0.004281479822
0.003780923269
0.003348309818
0.002973697982
0.002647129341
0.002359510354
0.002105757773
0.001880240751
0.001678089958
0.001497895344
0.001336787882
0.001192196475
0.001062402243
0.0009463793273
0.0008434269065
0.0007524982246
0.0006723006013
0.0006015167999
0.0005389327328
0.0004834801418
0.000434238213
0.0003904196339
0.0003513522777
0.000316460755
0.000285250365
0.000257293992
0.0002322212467
0.0002097096158
0.0001894771195
0.000171276452
0.0001548900476
0.0001401259761
0.0001268145057
0.0001148052002
0.0001039644674
9.417345225e-05
8.532623978e-05
7.732830215e-05
7.009515888e-05
6.355121388e-05
5.762874143e-05
5.226700245e-05
4.74114703e-05
4.301315077e-05
3.902798401e-05
3.541631668e-05
3.214243594e-05
2.917415665e-05
2.648245503e-05
2.404114296e-05
2.182657894e-05
1.981740938e-05
1.799433898e-05
1.633992467e-05
1.483839166e-05
1.347546863e-05
1.223824009e-05
1.111501378e-05
1.009520184e-05
9.169213662e-06
8.328359891e-06
7.564765787e-06
6.871293311e-06
6.241470879e-06
5.669429989e-06
5.149848149e-06
4.677897202e-06
4.249196807e-06
3.859772321e-06
3.506016749e-06
3.184656337e-06
2.892719455e-06
2.62750841e-06
2.386573985e-06
2.167692313e-06
1.968843999e-06
1.788195164e-06
1.624080285e-06
1.474986641e-06
1.33954021e-06
1.216492873e-06
1.104710839e-06
1.00316411e-06
9.109169444e-07
8.271192042e-07
7.509984938e-07
6.818530303e-07
6.190451758e-07
5.619955536e-07
5.101777242e-07
4.631133342e-07
4.203677193e-07
3.815459103e-07
3.462890068e-07
3.1427088e-07
2.8519518e-07
2.58792615e-07
2.348184824e-07
2.130504274e-07
1.932863968e-07
1.753427937e-07
1.590527903e-07
1.442647969e-07
1.308410756e-07
1.186564714e-07
1.075972719e-07
9.756015568e-08
8.845125108e-08
8.01852694e-08
7.268472535e-08
6.587922281e-08
5.970481069e-08
5.410338882e-08
4.902218217e-08
4.441324794e-08
4.023303923e-08
3.644200018e-08
3.300420252e-08
2.988701454e-08
2.706080144e-08
2.449864798e-08
2.2176113e-08
2.007100152e-08
1.816316074e-08
1.643428908e-08
1.486777472e-08
1.344853009e-08
1.216286104e-08
1.09983398e-08
9.943677821e-09
8.988635617e-09
8.123915809e-09
7.341081502e-09
6.632477012e-09
5.991157686e-09
5.410816401e-09
4.885735324e-09
4.410724997e-09
3.981080261e-09
3.592532338e-09
3.241206775e-09
2.923594258e-09
2.636509433e-09
2.377064564e-09
2.142643026e-09
1.930874053e-09
1.739603572e-09
1.566881557e-09
1.410944434e-09
1.270188761e-09
1.14316461e-09
1.028558152e-09
9.251791733e-10
8.319469985e-10
7.478886276e-10
6.721201738e-10
6.038405546e-10
5.423277565e-10
4.869218364e-10
4.370304375e-10
3.921185642e-10
3.517009282e-10
3.153393875e-10
2.826344359e-10
2.53229204e-10
2.267969702e-10
2.030470336e-10
1.817126105e-10
1.625555628e-10
1.453596338e-10
1.299280491e-10
1.160851692e-10
1.036732595e-10
9.254821366e-11
8.257919276e-11
7.365078531e-11
6.565536271e-11
5.850095812e-11
5.210156943e-11
4.637694812e-11
4.126288285e-11
3.66946708e-11
3.261354279e-11
2.897120592e-11
2.572115817e-11
2.28259897e-11
2.024512878e-11
1.794506625e-11
1.589722959e-11
1.40741912e-11
1.245272405e-11
1.101196328e-11
9.729821691e-12
8.592916879e-12
7.583783042e-12
6.688668876e-12
5.894958462e-12
5.193500446e-12
4.573377659e-12
4.024120762e-12
3.53752317e-12
3.107142266e-12
2.729055487e-12
2.395155785e-12
2.100133769e-12
1.839751902e-12
1.609243961e-12
1.406659922e-12
1.230514128e-12
1.074711843e-12
9.38373531e-13
8.192323841e-13
7.146710012e-13
6.214894258e-13
5.419346558e-13
4.71172335e-13
4.113960827e-13
3.576212011e-13
3.116419828e-13
2.693720959e-13
2.345127505e-13
2.033593793e-13
1.775264747e-13
1.533759576e-13
1.311427754e-13
1.158410713e-13
1.012331186e-13
8.814553108e-14
7.682622522e-14
6.756055146e-14
6.013426165e-14
5.58372805e-14
5.038915978e-14
4.495441902e-14
3.984951638e-14
3.606861355e-14
3.169145103e-14
3.011468736e-14
2.704422635e-14
2.335748939e-14
2.018975542e-14
1.708894549e-14
1.461224252e-14
1.517895974e-14
1.404538004e-14
1.215785e-14
8.82531359e-15
6.939147779e-15
8.388078947e-15
7.917393977e-15
7.230874629e-15
5.695070164e-15
4.57198697e-15
2.267033491e-15
3.653407767e-15
4.864015716e-15
6.215533467e-15
7.054623978e-15
6.28290795e-15
4.789137157e-15
4.649145186e-15
3.343793363e-15
1.174974065e-15
1.350335965e-15
1.091669554e-15
1.812194604e-15
9.101887924e-16
2.383352422e-15
2.320240156e-15
1.52467106e-15
1.416497169e-15
1.694634961e-15
3.141902404e-15
4.232119726e-15
3.751194132e-15
4.294620106e-15
5.880240829e-15
6.111273878e-15
6.334964294e-15
5.317136015e-15
3.225097938e-15
2.63732071e-15
2.285165677e-15
3.624871116e-15
5.865151135e-15
6.380845264e-15
5.782261544e-15
5.873717541e-15
6.41000834e-15
7.032860047e-15
6.842714395e-15
8.442408501e-15
1.06305902e-14
1.164719471e-14
1.118665833e-14
8.876535295e-15
9.247757282e-15
8.265921311e-15
9.336765735e-15
8.872863978e-15
1.034969892e-14
9.803825406e-15
1.045502084e-14
9.248675112e-15
9.336558275e-15
7.521838644e-15
5.066019698e-15
5.022586273e-15
4.060527626e-15
1.609603769e-15
1.306181677e-15
2.796576603e-15
3.62405177e-15
2.420153583e-15
4.501592628e-15
5.886971577e-15
6.573034034e-15
4.709887405e-15
5.769619394e-15
6.402971649e-15
7.365642182e-15
8.057211614e-15
8.074748854e-15
7.590763829e-15
1.027272074e-14
1.057644877e-14
8.659980054e-15
9.836758283e-15
1.100211813e-14
1.175006909e-14
1.202208802e-14
1.230644315e-14
1.159978403e-14
1.184345922e-14
1.130931003e-14
1.038140803e-14
1.226270378e-14
1.107083586e-14
1.112201635e-14
9.705026775e-15
7.892656206e-15
7.450574891e-15
8.051300212e-15
1.094828264e-14
1.155390305e-14
1.089496056e-14
9.778541106e-15
6.126166606e-15
5.599971929e-15
8.439960956e-15
9.649978005e-15
9.785479314e-15
1.229676195e-14
1.184265037e-14
1.472699065e-14
1.544782165e-14
1.448239762e-14
1.154320554e-14
1.076599303e-14
1.107746812e-14
1.279216535e-14
1.306387834e-14
1.183561368e-14
1.249914532e-14
1.352186869e-14
1.459363095e-14
1.305928919e-14
1.149752154e-14
7.558136895e-15
6.411024653e-15
3.487938575e-15
1.482461407e-15
3.418914907e-15
4.957026461e-15
6.207723448e-15
6.439062441e-15
6.115251139e-15
8.817498772e-15
9.214518462e-15
9.913834955e-15
8.8867299e-15
1.098488684e-14
1.261231279e-14
1.349576505e-14
1.288576295e-14
1.258234086e-14
1.177005387e-14
1.14374687e-14
9.091965247e-15
9.410575516e-15
8.052109065e-15
3.595806523e-15
2.353468483e-15
7.780804263e-17
6.577777887e-17
3.039460025e-16
3.316778471e-16
3.540135374e-15
4.370364029e-15
2.093479817e-15
2.467761235e-15
3.514239188e-15
6.413975107e-15
7.111357458e-15
5.226084444e-15
4.587531156e-15
2.036792355e-15
1.979798951e-15
3.957238332e-15
3.166159899e-15
3.030964533e-15
3.96753142e-15
3.416762812e-15
2.094900556e-15
2.562572113e-15
9.225040133e-16
1.158224692e-15
0.1498570812
0.1498565892
0.1498556604
0.1498543446
0.1498526872
0.149850729
0.1498485063
0.1498460512
0.1498433915
0.1498405514
0.1498375515
0.1498344093
0.1498311394
0.149827754
0.1498242633
0.1498206761
0.1498169993
0.1498132382
0.1498093966
0.1498054777
0.1498014841
0.1497974179
0.1497932806
0.1497890734
0.1497847967
0.1497804499
0.1497760535
0.1497716017
0.1497670783
0.149762482
0.1497578116
0.1497530655
0.1497482419
0.1497433386
0.1497383529
0.149733281
0.1497281234
0.149722881
0.1497175496
0.1497121256
0.1497066058
0.1497009875
0.1496952681
0.1496894449
0.1496835155
0.1496774775
0.1496713295
0.1496650718
0.1496587055
0.1496522333
0.149645657
0.1496389705
0.1496321633
0.1496252258
0.1496181491
0.149610926
0.1496035499
0.1495960152
0.1495883168
0.1495804493
0.1495724813
0.1495643457
0.1495560287
0.1495475228
0.1495388211
0.1495299168
0.1495208042
0.1495114757
0.1495019229
0.1494921374
0.14948211
0.14947183
0.1494612842
0.1494504683
0.1494393747
0.149427994
0.1494163165
0.1494043319
0.1493920304
0.1493794038
0.1493664393
0.149353213
0.1493396456
0.149325698
0.1493113556
0.1492966017
0.1492814189
0.1492657891
0.1492496934
0.1492331111
0.1492160204
0.1491983991
0.149180211
0.1491614215
0.1491420124
0.1491219772
0.1491014053
0.1490801346
0.1490581312
0.149035361
0.1490117878
0.1489873664
0.1489620468
0.1489357769
0.1489085286
0.1488802601
0.1488509283
0.1488206872
0.1487892827
0.148756659
0.1487227607
0.1486875304
0.1486509347
0.1486129421
0.1485735209
0.1485326415
0.1484905243
0.1484470047
0.1484020118
0.1483555727
0.1483073296
0.1482572536
0.1482047487
0.1481498721
0.1480918618
0.148031067
0.1479665502
0.1478984404
0.1478255427
0.1477482592
0.1476650197
0.1475761531
0.1474794631
0.1473756009
0.1472608684
0.1471347274
0.1469924774
0.1468349413
0.1466574837
0.1464597494
0.1462366743
0.1459875004
0.1457044461
0.145386375
0.1450219946
0.1446081041
0.1441274553
0.143570672
0.1429114603
0.1421337866
0.1411967616
0.1400700888
0.1386838676
0.1369819822
0.1348416981
0.1321602478
0.1287397169
0.1244294546
0.118930029
0.1118627224
0.1029992137
0.09288173619
0.08275901851
0.07351479511
0.06532506149