/*--------------------------------*- C++ -*----------------------------------*\
| =========                 |                                                 |
| \\      /  F ield         | OpenFOAM: The Open Source CFD Toolbox           |
|  \\    /   O peration     | Version:  v2006                                 |
|   \\  /    A nd           | Website:  www.openfoam.com                      |
|    \\/     M anipulation  |                                                 |
\*---------------------------------------------------------------------------*/
FoamFile
{
    version     2.0;
    format      ascii;
    class       volScalarField;
    location    "0.1";
    object      H;
}
// * * * * * * * * * * * * * * * * * * * * * * * * * * * * * * * * * * * * * //

dimensions      [0 0 0 0 0 0 0];


internalField   nonuniform List<scalar> 
72000
(
2.536592151e-10
2.53744787e-10
2.539117739e-10
2.541532061e-10
2.544613768e-10
2.548286464e-10
2.552476388e-10
2.557117486e-10
2.562149628e-10
2.567520849e-10
2.573184283e-10
2.57910125e-10
2.585238549e-10
2.59156766e-10
2.598065283e-10
2.604711983e-10
2.611491283e-10
2.618391156e-10
2.625401649e-10
2.632514602e-10
2.639724951e-10
2.647028652e-10
2.654422457e-10
2.661904278e-10
2.669473296e-10
2.677127689e-10
2.684866629e-10
2.692692591e-10
2.700608585e-10
2.708618523e-10
2.716725867e-10
2.724933983e-10
2.733245973e-10
2.741664202e-10
2.750192703e-10
2.758835648e-10
2.76759697e-10
2.776480581e-10
2.785491818e-10
2.794635224e-10
2.803915187e-10
2.813336519e-10
2.82290346e-10
2.832621396e-10
2.84249497e-10
2.852529266e-10
2.86272926e-10
2.87310075e-10
2.883648445e-10
2.894376863e-10
2.90529251e-10
2.916399974e-10
2.927706048e-10
2.939217283e-10
2.95094037e-10
2.962881167e-10
2.975045049e-10
2.987438782e-10
3.000068051e-10
3.012938072e-10
3.026055165e-10
3.039426191e-10
3.053060234e-10
3.066964676e-10
3.081146811e-10
3.096817225e-10
3.123397053e-10
3.150516186e-10
3.178196639e-10
3.206457145e-10
3.235313977e-10
3.264786574e-10
3.294891876e-10
3.325647203e-10
3.357071219e-10
3.389180125e-10
3.42199971e-10
3.455543444e-10
3.489830773e-10
3.524881224e-10
3.560710829e-10
3.597347249e-10
3.634813925e-10
3.673140811e-10
3.712355265e-10
3.752486931e-10
3.793559547e-10
3.835595296e-10
3.878565943e-10
3.922532263e-10
3.967534681e-10
4.013610944e-10
4.060794128e-10
4.109107409e-10
4.158588628e-10
4.209261636e-10
4.261161311e-10
4.31431934e-10
4.368770825e-10
4.424550925e-10
4.481685698e-10
4.540199775e-10
4.600112535e-10
4.661436012e-10
4.724180462e-10
4.788349071e-10
4.853945579e-10
4.920951489e-10
4.989315614e-10
5.058925271e-10
5.129755844e-10
5.201673245e-10
5.274467409e-10
5.347829135e-10
5.438710383e-10
5.560772024e-10
5.669583641e-10
5.828106149e-10
5.787255165e-10
6.144274079e-10
5.936327712e-10
6.437349354e-10
6.055421174e-10
6.732306748e-10
6.16289468e-10
7.03792552e-10
6.267327956e-10
7.366457363e-10
6.372400047e-10
7.730900256e-10
6.476888452e-10
8.144169615e-10
6.583211182e-10
8.651225938e-10
6.70265e-10
9.559877974e-10
6.992728815e-10
1.036962565e-09
7.543761472e-10
1.147073835e-09
8.317886773e-10
1.289138528e-09
9.565163971e-10
1.556880432e-09
1.166694434e-09
1.938383402e-09
1.429107987e-09
2.43951875e-09
1.889973884e-09
3.54903281e-09
2.653997918e-09
5.491556764e-09
4.343941631e-09
1.049024986e-08
8.568198753e-09
2.265976021e-08
2.202097581e-08
3.828389442e-08
6.54737719e-08
2.798603816e-07
2.657258844e-07
9.931471165e-06
2.309194824e-06
2.502643831e-07
4.312200645e-08
1.077750711e-08
3.071029976e-09
9.606711614e-10
2.863761659e-10
8.10608242e-11
2.402557912e-11
5.703891139e-12
1.810685167e-12
4.564917003e-13
1.448576952e-13
5.530454067e-14
2.053472262e-14
7.189909872e-15
3.150014049e-15
1.765800226e-15
1.064907097e-15
6.285117542e-16
4.240792183e-16
2.713098996e-16
1.976929895e-16
1.468053642e-16
1.069441127e-16
7.898762057e-17
6.371830222e-17
5.12889639e-17
4.117316354e-17
3.293286279e-17
2.593451358e-17
1.994290031e-17
1.625792903e-17
1.401478405e-17
1.185497348e-17
1.001105923e-17
8.486367203e-18
7.234866771e-18
6.205434977e-18
5.353574665e-18
4.643427611e-18
4.046900467e-18
3.542156558e-18
3.112193128e-18
2.743685755e-18
2.426103355e-18
2.151046074e-18
1.911752627e-18
1.702732876e-18
1.519492081e-18
1.358322331e-18
1.216143125e-18
1.090378405e-18
9.788608501e-19
8.797567313e-19
7.915064313e-19
7.127769869e-19
6.424239712e-19
5.79460658e-19
5.230329254e-19
4.723987079e-19
4.269110776e-19
3.860042414e-19
3.491818898e-19
3.160074562e-19
2.860959356e-19
2.591069822e-19
2.347390616e-19
2.127244755e-19
1.928251116e-19
1.748288008e-19
1.585461826e-19
1.438079983e-19
1.304627476e-19
1.183746512e-19
1.074218757e-19
9.749498236e-20
8.849556747e-20
8.033506799e-20
7.293370987e-20
6.621957977e-20
6.012780397e-20
5.459982086e-20
4.958273483e-20
4.502874161e-20
4.089461638e-20
3.714125684e-20
3.373327499e-20
3.063863182e-20
2.782831e-20
2.527602032e-20
2.295793798e-20
2.085246574e-20
1.894002063e-20
1.720284209e-20
1.562481896e-20
1.419133343e-20
1.288912038e-20
1.170614022e-20
1.063146413e-20
9.655170249e-21
8.768249754e-21
7.962522073e-21
7.230557909e-21
6.565609725e-21
5.961548641e-21
5.412807377e-21
4.91432842e-21
4.461517107e-21
4.050199084e-21
3.676581654e-21
3.337218807e-21
3.028979389e-21
2.74901823e-21
2.494750037e-21
2.263825563e-21
2.054110034e-21
1.86366356e-21
1.690723304e-21
1.533687367e-21
1.391100025e-21
1.261638469e-21
1.14410061e-21
1.037394148e-21
9.405264701e-22
8.525956023e-22
7.727819779e-22
7.003408752e-22
6.345956204e-22
5.749313531e-22
5.207894467e-22
4.716623436e-22
4.270889122e-22
3.866501923e-22
3.499655613e-22
3.16689265e-22
2.865071986e-22
2.59134038e-22
2.343105962e-22
2.118014495e-22
1.913927873e-22
1.72890423e-22
1.561179732e-22
1.409152882e-22
1.271369054e-22
1.14650759e-22
1.033369405e-22
9.308656486e-23
8.380076838e-23
7.538983156e-23
6.777227837e-23
6.087417632e-23
5.462839063e-23
4.89740128e-23
4.385574716e-23
3.92234527e-23
3.503160464e-23
3.123889967e-23
2.780786444e-23
2.470450012e-23
2.189800007e-23
1.936036417e-23
1.706624794e-23
1.499265849e-23
1.31187194e-23
1.142556028e-23
9.896006406e-24
8.514538113e-24
7.267069479e-24
6.140832187e-24
5.124253422e-24
4.206871794e-24
3.379200117e-24
2.632622225e-24
1.959333952e-24
1.352305718e-24
8.051571416e-25
3.121067079e-25
0
0
0
0
0
0
0
0
0
0
0
0
0
0
0
0
0
0
0
0
0
0
0
0
0
0
0
0
0
0
0
0
0
0
0
0
0
0
0
0
0
0
0
0
0
0
0
0
0
0
0
0
0
0
0
0
0
0
0
0
0
0
0
0
0
0
0
0
0
0
0
0
0
0
0
0
0
0
0
0
0
0
0
0
0
0
0
0
0
0
0
0
0
0
0
0
0
0
0
0
0
0
0
0
0
0
0
0
0
0
0
0
0
0
0
0
0
0
0
0
0
0
0
0
0
0
0
0
0
0
0
0
0
0
0
0
0
0
0
0
0
0
0
0
0
0
0
0
0
0
0
0
0
0
0
0
0
0
0
0
0
0
0
0
0
0
0
0
0
0
0
0
0
0
0
0
0
0
0
0
0
0
0
0
0
0
0
0
0
0
0
0
0
0
0
0
0
0
0
0
0
0
0
0
0
0
0
0
0
0
0
0
0
0
0
0
0
0
0
0
0
0
0
0
0
0
0
0
0
0
0
0
0
0
0
0
0
0
0
0
0
0
0
0
0
0
0
0
0
0
0
0
0
0
0
0
0
0
0
0
3.882974143e-09
3.887720096e-09
3.896833026e-09
3.909904458e-09
3.926517576e-09
3.946276445e-09
3.968811148e-09
3.993794801e-09
4.020933774e-09
4.049974942e-09
4.080694012e-09
4.112905674e-09
4.146450919e-09
4.181196183e-09
4.217030161e-09
4.253863662e-09
4.291619987e-09
4.33024435e-09
4.369693161e-09
4.409931886e-09
4.450939357e-09
4.492696748e-09
4.535195289e-09
4.578429382e-09
4.622399214e-09
4.66710327e-09
4.712534727e-09
4.758713433e-09
4.805669463e-09
4.853429751e-09
4.902019276e-09
4.95146255e-09
5.001784797e-09
5.053011167e-09
5.105171879e-09
5.158296811e-09
5.212414139e-09
5.267554689e-09
5.323755854e-09
5.381055264e-09
5.439490323e-09
5.499100587e-09
5.559922265e-09
5.621995764e-09
5.685356269e-09
5.750037544e-09
5.81606813e-09
5.883465589e-09
5.952226112e-09
6.022312446e-09
6.111266119e-09
6.212073077e-09
6.315121748e-09
6.420554876e-09
6.528509771e-09
6.639102952e-09
6.75243932e-09
6.868625456e-09
6.987760008e-09
7.109939823e-09
7.23526472e-09
7.363845834e-09
7.495809506e-09
7.631277272e-09
7.770371889e-09
7.913202818e-09
8.059842323e-09
8.210505513e-09
8.365363338e-09
8.524577623e-09
8.688301818e-09
8.856671471e-09
9.02977756e-09
9.207893917e-09
9.3912379e-09
9.580005125e-09
9.774426987e-09
9.97469814e-09
1.018103981e-08
1.039369823e-08
1.061293259e-08
1.083905008e-08
1.107232277e-08
1.131305463e-08
1.15615333e-08
1.181810472e-08
1.208309269e-08
1.235686051e-08
1.272512553e-08
1.311440838e-08
1.351698879e-08
1.393355016e-08
1.436475054e-08
1.481124129e-08
1.527376866e-08
1.575303048e-08
1.624982728e-08
1.676492966e-08
1.732969501e-08
1.791836877e-08
1.853109892e-08
1.916909954e-08
1.983365161e-08
2.052597155e-08
2.124716958e-08
2.199847206e-08
2.278139833e-08
2.359729893e-08
2.449582602e-08
2.564887168e-08
2.68484645e-08
2.809478368e-08
2.938771106e-08
3.072526059e-08
3.210229824e-08
3.351148872e-08
3.494746156e-08
3.637640069e-08
3.786790485e-08
3.905857254e-08
4.055101041e-08
4.160580056e-08
4.321770017e-08
4.421800801e-08
4.604308621e-08
4.704034561e-08
4.917458466e-08
5.025325886e-08
5.313966438e-08
5.443838756e-08
5.798682113e-08
5.934273162e-08
6.356341749e-08
6.505095143e-08
7.032663641e-08
7.238097151e-08
8.061463997e-08
8.512980271e-08
9.678842501e-08
1.042308429e-07
1.234533317e-07
1.367331782e-07
1.627919382e-07
1.818323491e-07
2.251752413e-07
2.565334214e-07
3.206275838e-07
3.785144576e-07
4.881539314e-07
5.966902562e-07
8.051593165e-07
1.019475839e-06
1.439575733e-06
1.908541437e-06
2.830081275e-06
3.947659508e-06
6.101833568e-06
8.808694123e-06
1.225682123e-05
1.668357889e-05
2.107278565e-05
1.402851824e-05
3.858511128e-06
1.030000459e-06
3.395804981e-07
1.305821135e-07
5.31861745e-08
2.13139308e-08
8.14755328e-09
2.704173092e-09
8.411468369e-10
2.266700705e-10
5.143651042e-11
1.280313527e-11
3.094599473e-12
6.110035465e-13
2.04679612e-13
5.0977974e-14
2.312674921e-14
8.743187495e-15
3.37439599e-15
2.078731457e-15
1.242934071e-15
6.770626168e-16
3.188884846e-16
1.666812124e-16
1.303196196e-16
1.022016308e-16
7.988827202e-17
6.204960084e-17
4.83951894e-17
4.050257115e-17
3.395079957e-17
2.848493343e-17
2.384801974e-17
1.990799693e-17
1.65950663e-17
1.386249714e-17
1.16323453e-17
9.815597251e-18
8.330917388e-18
7.110818596e-18
6.101602759e-18
5.261237669e-18
4.556945447e-18
3.963096753e-18
3.459533099e-18
3.030284381e-18
2.662603835e-18
2.346242273e-18
2.07290056e-18
1.835813678e-18
1.629433098e-18
1.449181456e-18
1.291261838e-18
1.152508407e-18
1.030268555e-18
9.223093711e-19
8.267428742e-19
7.419659814e-19
6.666119966e-19
5.995112457e-19
5.396589691e-19
4.86189015e-19
4.383521984e-19
3.954984184e-19
3.570618244e-19
3.225484614e-19
2.915259418e-19
2.636147807e-19
2.384810979e-19
2.158304501e-19
1.954026002e-19
1.769670682e-19
1.603193307e-19
1.452775681e-19
1.316798694e-19
1.193818222e-19
1.082544313e-19
9.818231338e-20
8.906212853e-20
8.080121315e-20
7.331638481e-20
6.653289615e-20
6.038351602e-20
5.48077209e-20
4.975098188e-20
4.516413435e-20
4.100282017e-20
3.72269924e-20
3.380047547e-20
3.069057357e-20
2.786772141e-20
2.530517248e-20
2.297872038e-20
2.086644918e-20
1.894850997e-20
1.720691999e-20
1.562538253e-20
1.418912492e-20
1.288475268e-20
1.170011829e-20
1.062420285e-20
9.647009299e-21
8.759466254e-21
7.953340944e-21
7.221160714e-21
6.556141929e-21
5.95212581e-21
5.403520265e-21
4.905247278e-21
4.452695305e-21
4.041676077e-21
3.668385548e-21
3.329368398e-21
3.021485905e-21
2.741886867e-21
2.487981113e-21
2.257415548e-21
2.048052378e-21
1.857949371e-21
1.685341981e-21
1.528626983e-21
1.386347814e-21
1.25718105e-21
1.139924323e-21
1.033485191e-21
9.368710858e-22
8.491802547e-22
7.695933776e-22
6.97366114e-22
6.318222033e-22
5.723472587e-22
5.183831413e-22
4.694228213e-22
4.250056513e-22
3.847132029e-22
3.481653868e-22
3.150169468e-22
2.849542797e-22
2.576925216e-22
2.329729571e-22
2.105606394e-22
1.90242183e-22
1.718237806e-22
1.551294725e-22
1.399994625e-22
1.262886487e-22
1.138653117e-22
1.026098385e-22
9.24136322e-23
8.317815224e-23
7.481388767e-23
6.723965441e-23
6.038170841e-23
5.417315964e-23
4.855330332e-23
4.34670482e-23
3.886441204e-23
3.470002716e-23
3.093273973e-23
2.752525246e-23
2.444370355e-23
2.165735068e-23
1.913838651e-23
1.686154207e-23
1.480391397e-23
1.294475287e-23
1.126523668e-23
9.748304912e-24
8.378487574e-24
7.141789407e-24
6.025507308e-24
5.018122427e-24
4.109231416e-24
3.289376435e-24
2.550008694e-24
1.883390562e-24
1.282523758e-24
7.41056765e-25
2.532439506e-25
0
0
0
0
0
0
0
0
0
0
0
0
0
0
0
0
0
0
0
0
0
0
0
0
0
0
0
0
0
0
0
0
0
0
0
0
0
0
0
0
0
0
0
0
0
0
0
0
0
0
0
0
0
0
0
0
0
0
0
0
0
0
0
0
0
0
0
0
0
0
0
0
0
0
0
0
0
0
0
0
0
0
0
0
0
0
0
0
0
0
0
0
0
0
0
0
0
0
0
0
0
0
0
0
0
0
0
0
0
0
0
0
0
0
0
0
0
0
0
0
0
0
0
0
0
0
0
0
0
0
0
0
0
0
0
0
0
0
0
0
0
0
0
0
0
0
0
0
0
0
0
0
0
0
0
0
0
0
0
0
0
0
0
0
0
0
0
0
0
0
0
0
0
0
0
0
0
0
0
0
0
0
0
0
0
0
0
0
0
0
0
0
0
0
0
0
0
0
0
0
0
0
0
0
0
0
0
0
0
0
0
0
0
0
0
0
0
0
0
0
0
0
0
0
0
0
0
0
0
0
0
0
0
0
0
0
0
0
0
0
0
0
0
0
0
0
0
0
0
0
0
0
0
0
0
0
0
0
0
2.202588976e-08
2.205600661e-08
2.211331481e-08
2.219508198e-08
2.229865893e-08
2.242156623e-08
2.25615359e-08
2.271654275e-08
2.288479373e-08
2.306472739e-08
2.325498945e-08
2.345443656e-08
2.366209474e-08
2.387715274e-08
2.409892731e-08
2.432687054e-08
2.456052462e-08
2.479954613e-08
2.504367441e-08
2.529270711e-08
2.554650707e-08
2.580496846e-08
2.606803505e-08
2.633568425e-08
2.660791942e-08
2.688476669e-08
2.720805725e-08
2.756810601e-08
2.793448281e-08
2.830738274e-08
2.86870013e-08
2.907353543e-08
2.946719549e-08
2.986820716e-08
3.027680988e-08
3.069324733e-08
3.111776361e-08
3.155062811e-08
3.199215369e-08
3.244265337e-08
3.290244874e-08
3.337186958e-08
3.385123181e-08
3.434086798e-08
3.48410991e-08
3.535223029e-08
3.587455677e-08
3.640830965e-08
3.695361749e-08
3.75103684e-08
3.807780986e-08
3.865672239e-08
3.924835313e-08
3.985345751e-08
4.0472946e-08
4.110750821e-08
4.175776154e-08
4.242430434e-08
4.310770818e-08
4.38085322e-08
4.452724509e-08
4.526455568e-08
4.602117603e-08
4.679784866e-08
4.759532687e-08
4.841436327e-08
4.938607333e-08
5.047040155e-08
5.158554441e-08
5.27326751e-08
5.391301579e-08
5.513407887e-08
5.644661572e-08
5.779848153e-08
5.919119656e-08
6.062632318e-08
6.210554503e-08
6.363053811e-08
6.520303466e-08
6.682490116e-08
6.849829822e-08
7.022594665e-08
7.200991822e-08
7.385249097e-08
7.575603634e-08
7.772327561e-08
7.975700989e-08
8.186028984e-08
8.403633412e-08
8.667350982e-08
8.954229508e-08
9.251567413e-08
9.559861349e-08
9.879637501e-08
1.021144669e-07
1.055585753e-07
1.09134907e-07
1.128498412e-07
1.167106073e-07
1.207231682e-07
1.248934612e-07
1.292301098e-07
1.337416682e-07
1.384364976e-07
1.437433834e-07
1.497803176e-07
1.560656158e-07
1.626073366e-07
1.694185949e-07
1.765102568e-07
1.839114052e-07
1.917309326e-07
1.998471139e-07
2.082548578e-07
2.169407914e-07
2.258812829e-07
2.359212822e-07
2.466001159e-07
2.573835872e-07
2.680077052e-07
2.78930875e-07
2.897895886e-07
3.01336964e-07
3.129282799e-07
3.256046954e-07
3.383833799e-07
3.526400769e-07
3.670713775e-07
3.834583696e-07
4.011781353e-07
4.222498978e-07
4.43552207e-07
4.687217196e-07
4.9467255e-07
5.265553964e-07
5.611602634e-07
6.061620581e-07
6.597431319e-07
7.299727271e-07
8.070159354e-07
9.017531355e-07
1.016237962e-06
1.155381221e-06
1.314701528e-06
1.521729828e-06
1.757069127e-06
2.069152604e-06
2.439793614e-06
2.927639832e-06
3.537793185e-06
4.361705413e-06
5.408572868e-06
6.855168558e-06
8.732972294e-06
1.134409275e-05
1.474863342e-05
1.930567605e-05
2.464207332e-05
3.015479688e-05
3.384219952e-05
3.05679963e-05
1.796340767e-05
7.785174061e-06
3.340477641e-06
1.539711098e-06
7.514224588e-07
3.752214295e-07
1.840363998e-07
8.71640154e-08
3.837081555e-08
1.457011497e-08
5.162173634e-09
1.536649982e-09
3.861321931e-10
8.629326898e-11
1.880058014e-11
4.024657921e-12
7.845981155e-13
1.985587939e-13
7.114652992e-14
2.302361578e-14
1.002977004e-14
5.412691402e-15
2.129567674e-15
1.108648763e-15
7.602254515e-16
4.998307814e-16
3.157488837e-16
1.722245175e-16
6.614759476e-17
5.474755993e-17
4.539800209e-17
3.774430078e-17
3.144719437e-17
2.623908205e-17
2.192497254e-17
1.836179178e-17
1.54357154e-17
1.303798692e-17
1.106956225e-17
9.446553851e-18
8.100991924e-18
6.978911121e-18
6.037755707e-18
5.243960658e-18
4.570950029e-18
3.99755494e-18
3.506801023e-18
3.084989391e-18
2.720994255e-18
2.405725237e-18
2.131711467e-18
1.892781166e-18
1.683809862e-18
1.500522257e-18
1.339335287e-18
1.197232976e-18
1.071666265e-18
9.604720973e-19
8.618080075e-19
7.740988354e-19
6.959932157e-19
6.263278678e-19
5.640981576e-19
5.084337683e-19
4.585784991e-19
4.138734307e-19
3.737428516e-19
3.376824473e-19
3.052493616e-19
2.760538009e-19
2.49751916e-19
2.260397512e-19
2.046480902e-19
1.853380378e-19
1.6789724e-19
1.521366245e-19
1.378875897e-19
1.249995731e-19
1.133379411e-19
1.027821533e-19
9.322416244e-20
8.456701361e-20
7.672361884e-20
6.961567977e-20
6.317273986e-20
5.73313484e-20
5.20343213e-20
4.723008772e-20
4.287210888e-20
3.891836325e-20
3.533088754e-20
3.207536778e-20
2.912077445e-20
2.643903631e-20
2.400474845e-20
2.179491113e-20
1.978869487e-20
1.796723031e-20
1.631341887e-20
1.481176272e-20
1.344821161e-20
1.221002501e-20
1.108564763e-20
1.006459748e-20
9.13736455e-21
8.295319364e-21
7.53063047e-21
6.836189738e-21
6.205544836e-21
5.632838172e-21
5.112751527e-21
4.640456078e-21
4.211566983e-21
3.822102313e-21
3.468445818e-21
3.147313189e-21
2.855721443e-21
2.590961168e-21
2.35057135e-21
2.132316531e-21
1.934166119e-21
1.754275525e-21
1.590969149e-21
1.44272486e-21
1.308159919e-21
1.186018235e-21
1.075158728e-21
9.745448517e-22
8.83234967e-22
8.00373707e-22
7.25184047e-22
6.569601646e-22
5.950609073e-22
5.389039005e-22
4.879601249e-22
4.417490991e-22
3.998343895e-22
3.618196172e-22
3.273447684e-22
2.960828769e-22
2.67737001e-22
2.420374909e-22
2.187394631e-22
1.976205578e-22
1.784788647e-22
1.611310608e-22
1.454106781e-22
1.311666181e-22
1.182616636e-22
1.065712709e-22
9.598241306e-23
8.639244038e-23
7.770823523e-23
6.984525664e-23
6.272678913e-23
5.628322159e-23
5.045140626e-23
4.517400336e-23
4.039902438e-23
3.607928956e-23
3.21720189e-23
2.863840225e-23
2.544321945e-23
2.255456281e-23
1.994347535e-23
1.758370504e-23
1.54514622e-23
1.352519039e-23
1.178531169e-23
1.02140989e-23
8.795514111e-24
7.514984097e-24
6.359326288e-24
5.3165958e-24
4.375971944e-24
3.527633852e-24
2.762730235e-24
2.073224942e-24
1.451835898e-24
8.919947313e-25
3.877079962e-25
0
0
0
0
0
0
0
0
0
0
0
0
0
0
0
0
0
0
0
0
0
0
0
0
0
0
0
0
0
0
0
0
0
0
0
0
0
0
0
0
0
0
0
0
0
0
0
0
0
0
0
0
0
0
0
0
0
0
0
0
0
0
0
0
0
0
0
0
0
0
0
0
0
0
0
0
0
0
0
0
0
0
0
0
0
0
0
0
0
0
0
0
0
0
0
0
0
0
0
0
0
0
0
0
0
0
0
0
0
0
0
0
0
0
0
0
0
0
0
0
0
0
0
0
0
0
0
0
0
0
0
0
0
0
0
0
0
0
0
0
0
0
0
0
0
0
0
0
0
0
0
0
0
0
0
0
0
0
0
0
0
0
0
0
0
0
0
0
0
0
0
0
0
0
0
0
0
0
0
0
0
0
0
0
0
0
0
0
0
0
0
0
0
0
0
0
0
0
0
0
0
0
0
0
0
0
0
0
0
0
0
0
0
0
0
0
0
0
0
0
0
0
0
0
0
0
0
0
0
0
0
0
0
0
0
0
0
0
0
0
0
0
0
0
0
0
0
0
0
0
0
0
0
0
0
0
0
0
7.566084552e-08
7.577178767e-08
7.598175399e-08
7.628006195e-08
7.665680455e-08
7.71029054e-08
7.761016027e-08
7.81712669e-08
7.877979362e-08
7.943014151e-08
8.011748541e-08
8.083772909e-08
8.158741247e-08
8.236364084e-08
8.316399344e-08
8.398647605e-08
8.482946474e-08
8.569174932e-08
8.657243243e-08
8.747081704e-08
8.838641024e-08
8.931886793e-08
9.02679672e-08
9.123364772e-08
9.221598925e-08
9.321524505e-08
9.434437347e-08
9.557720911e-08
9.683161021e-08
9.810808316e-08
9.94072301e-08
1.00729708e-07
1.020762242e-07
1.034475358e-07
1.048444426e-07
1.062677713e-07
1.077183318e-07
1.091968224e-07
1.107044202e-07
1.122422668e-07
1.138114539e-07
1.154130771e-07
1.170482103e-07
1.187179518e-07
1.204234205e-07
1.221656959e-07
1.239458431e-07
1.257647892e-07
1.276233527e-07
1.295222203e-07
1.314621563e-07
1.334448672e-07
1.354966065e-07
1.376584204e-07
1.39872386e-07
1.421407289e-07
1.444656015e-07
1.468491247e-07
1.492934105e-07
1.518006119e-07
1.547595552e-07
1.578418712e-07
1.610055116e-07
1.642540392e-07
1.6759078e-07
1.710191278e-07
1.745426389e-07
1.781647944e-07
1.81889159e-07
1.857195719e-07
1.896601751e-07
1.937155131e-07
1.978906804e-07
2.021894792e-07
2.066164199e-07
2.111763552e-07
2.158744348e-07
2.207159121e-07
2.257060531e-07
2.308495727e-07
2.361526771e-07
2.423233516e-07
2.488836625e-07
2.556591542e-07
2.626589622e-07
2.698930309e-07
2.773718778e-07
2.851066311e-07
2.931090386e-07
3.013920479e-07
3.099673103e-07
3.188467423e-07
3.280455996e-07
3.375802603e-07
3.474656159e-07
3.579040959e-07
3.700454503e-07
3.826474686e-07
3.957321009e-07
4.093218928e-07
4.235793204e-07
4.384027726e-07
4.538113317e-07
4.698343642e-07
4.864994371e-07
5.038349646e-07
5.219036392e-07
5.427832855e-07
5.64507393e-07
5.87105498e-07
6.106030724e-07
6.350197686e-07
6.603658872e-07
6.866408961e-07
7.138309101e-07
7.419061168e-07
7.731481695e-07
8.058137852e-07
8.391879449e-07
8.730733564e-07
9.07824969e-07
9.435324782e-07
9.808261801e-07
1.019631085e-06
1.060754143e-06
1.10551984e-06
1.155186129e-06
1.207783416e-06
1.264758236e-06
1.325574778e-06
1.391485878e-06
1.462356837e-06
1.541219891e-06
1.633825535e-06
1.739706819e-06
1.859686683e-06
2.00005354e-06
2.16472705e-06
2.363862065e-06
2.590644707e-06
2.863762069e-06
3.177550003e-06
3.550197106e-06
3.990058504e-06
4.512527814e-06
5.133028236e-06
5.890243012e-06
6.806561127e-06
7.939137068e-06
9.330126972e-06
1.108196423e-05
1.327086397e-05
1.604927867e-05
1.955601777e-05
2.399162841e-05
2.941383395e-05
3.582885772e-05
4.25574125e-05
4.795474221e-05
4.870375473e-05
4.123078157e-05
2.794355912e-05
1.633721085e-05
9.068375582e-06
5.004232799e-06
2.77846766e-06
1.540188241e-06
8.533937979e-07
4.648869255e-07
2.451711017e-07
1.220487098e-07
5.517614641e-08
2.123108749e-08
7.546238756e-09
2.163722154e-09
5.086177359e-10
1.157960558e-10
2.297028099e-11
4.315529694e-12
1.30491772e-12
3.092641148e-13
7.789528273e-14
3.521286014e-14
1.326151799e-14
5.734695268e-15
3.384564566e-15
1.576046193e-15
6.817422391e-16
4.954662029e-16
3.472140131e-16
2.284906938e-16
1.329644545e-16
5.599029687e-17
3.34300537e-17
2.806784438e-17
2.364597733e-17
1.999841114e-17
1.698868805e-17
1.44999236e-17
1.243368182e-17
1.070945658e-17
9.262829201e-18
8.042586667e-18
7.007987708e-18
6.126514339e-18
5.37209599e-18
4.723694505e-18
4.164217064e-18
3.679698018e-18
3.258660143e-18
2.891621759e-18
2.570703803e-18
2.289330977e-18
2.041990272e-18
1.824039042e-18
1.631551405e-18
1.461194173e-18
1.310127178e-18
1.175921335e-18
1.05649209e-18
9.500445685e-19
8.550284471e-19
7.701006217e-19
6.940940882e-19
6.25992072e-19
5.64906363e-19
5.10059107e-19
4.607674797e-19
4.16430711e-19
3.765190993e-19
3.405646642e-19
3.08153158e-19
2.789172317e-19
2.525305786e-19
2.287028751e-19
2.07175437e-19
1.877174431e-19
1.701226626e-19
1.542066084e-19
1.398040555e-19
1.267668708e-19
1.149621144e-19
1.042703667e-19
9.458426243e-20
8.580719583e-20
7.785217732e-20
7.064082227e-20
6.410245361e-20
5.817330765e-20
5.2795824e-20
4.791801716e-20
4.349291379e-20
3.947805103e-20
3.583502783e-20
3.252910353e-20
2.95288378e-20
2.680576863e-20
2.43341218e-20
2.209055125e-20
2.005390477e-20
1.820501343e-20
1.652650189e-20
1.500261751e-20
1.361907605e-20
1.236292287e-20
1.122240717e-20
1.018686873e-20
9.246635368e-21
8.392930412e-21
7.617788836e-21
6.913981617e-21
6.274946943e-21
5.69472838e-21
5.167918451e-21
4.689607768e-21
4.255338895e-21
3.861064524e-21
3.503109542e-21
3.178136667e-21
2.883115307e-21
2.615293239e-21
2.372171011e-21
2.151478652e-21
1.951154577e-21
1.769326394e-21
1.604293584e-21
1.454511647e-21
1.318577798e-21
1.195217997e-21
1.083275087e-21
9.816980896e-22
8.895324884e-22
8.059113656e-22
7.300473573e-22
6.612253962e-22
5.987960536e-22
5.421695547e-22
4.908102771e-22
4.442318179e-22
4.019924702e-22
3.636911316e-22
3.289635667e-22
2.974790511e-22
2.689372865e-22
2.430656242e-22
2.196165077e-22
1.983651967e-22
1.791076419e-22
1.616586368e-22
1.458500289e-22
1.315291823e-22
1.185575937e-22
1.068095044e-22
9.617081075e-23
8.653797237e-23
7.781698e-23
6.992259931e-23
6.27774305e-23
5.631128786e-23
5.046047163e-23
4.516723558e-23
4.037916271e-23
3.604870686e-23
3.213277924e-23
2.859228194e-23
2.539177078e-23
2.249909814e-23
1.98851374e-23
1.75234625e-23
1.539012861e-23
1.346343223e-23
1.172371948e-23
1.015316207e-23
8.735611325e-24
7.456435643e-24
6.302389956e-24
5.261451635e-24
4.322767993e-24
3.476502646e-24
2.713741611e-24
2.026426653e-24
1.407241378e-24
8.495765249e-25
3.474618748e-25
0
0
0
0
0
0
0
0
0
0
0
0
0
0
0
0
0
0
0
0
0
0
0
0
0
0
0
0
0
0
0
0
0
0
0
0
0
0
0
0
0
0
0
0
0
0
0
0
0
0
0
0
0
0
0
0
0
0
0
0
0
0
0
0
0
0
0
0
0
0
0
0
0
0
0
0
0
0
0
0
0
0
0
0
0
0
0
0
0
0
0
0
0
0
0
0
0
0
0
0
0
0
0
0
0
0
0
0
0
0
0
0
0
0
0
0
0
0
0
0
0
0
0
0
0
0
0
0
0
0
0
0
0
0
0
0
0
0
0
0
0
0
0
0
0
0
0
0
0
0
0
0
0
0
0
0
0
0
0
0
0
0
0
0
0
0
0
0
0
0
0
0
0
0
0
0
0
0
0
0
0
0
0
0
0
0
0
0
0
0
0
0
0
0
0
0
0
0
0
0
0
0
0
0
0
0
0
0
0
0
0
0
0
0
0
0
0
0
0
0
0
0
0
0
0
0
0
0
0
0
0
0
0
0
0
0
0
0
0
0
0
0
0
0
0
0
0
0
0
0
0
0
0
0
0
0
1.88789693e-07
1.890791408e-07
1.896249375e-07
1.903978576e-07
1.913715051e-07
1.925221133e-07
1.938284522e-07
1.952717378e-07
1.968355021e-07
1.985054397e-07
2.002692487e-07
2.021165205e-07
2.040384969e-07
2.060278525e-07
2.080784672e-07
2.10185211e-07
2.123435189e-07
2.145506935e-07
2.168046242e-07
2.191036031e-07
2.21446381e-07
2.238321018e-07
2.262602168e-07
2.287303667e-07
2.312428132e-07
2.337984619e-07
2.363984918e-07
2.390436896e-07
2.417346777e-07
2.444724491e-07
2.472582152e-07
2.500933343e-07
2.529792802e-07
2.559176262e-07
2.589100394e-07
2.623794757e-07
2.659442962e-07
2.696593592e-07
2.734686463e-07
2.773541077e-07
2.813183785e-07
2.853641527e-07
2.894941192e-07
2.937110368e-07
2.980177427e-07
3.024172329e-07
3.069125528e-07
3.115060085e-07
3.162002216e-07
3.209979447e-07
3.259023497e-07
3.309176287e-07
3.360490065e-07
3.413018537e-07
3.466804241e-07
3.521895016e-07
3.578340083e-07
3.636188626e-07
3.695491311e-07
3.756301651e-07
3.81867831e-07
3.885745876e-07
3.959028427e-07
4.034264786e-07
4.111526821e-07
4.19089235e-07
4.272450168e-07
4.356273143e-07
4.442438312e-07
4.531032341e-07
4.622148444e-07
4.715885702e-07
4.812346908e-07
4.911633225e-07
5.013850563e-07
5.119110982e-07
5.227532595e-07
5.339238526e-07
5.454357589e-07
5.579765996e-07
5.716370993e-07
5.857280807e-07
6.002689296e-07
6.152790392e-07
6.307769614e-07
6.467850993e-07
6.633265436e-07
6.804251895e-07
6.981059433e-07
7.163947259e-07
7.353183262e-07
7.549498772e-07
7.760262777e-07
7.990137972e-07
8.228291302e-07
8.475109007e-07
8.730998729e-07
8.996381944e-07
9.271706663e-07
9.557451051e-07
9.854146786e-07
1.016230304e-06
1.04874519e-06
1.084683958e-06
1.122046372e-06
1.160898205e-06
1.201308245e-06
1.243351186e-06
1.287084368e-06
1.332571891e-06
1.379875613e-06
1.431946273e-06
1.48676555e-06
1.543443473e-06
1.601961266e-06
1.662547092e-06
1.725201263e-06
1.789896473e-06
1.857879643e-06
1.930733323e-06
2.00625509e-06
2.084821279e-06
2.167114099e-06
2.253602254e-06
2.34513304e-06
2.442208479e-06
2.548819273e-06
2.662816351e-06
2.785614577e-06
2.918069031e-06
3.062160361e-06
3.222201313e-06
3.402860244e-06
3.599247447e-06
3.819562625e-06
4.07182564e-06
4.367134351e-06
4.703189398e-06
5.087602266e-06
5.533739688e-06
6.049032012e-06
6.64421269e-06
7.331837742e-06
8.135959309e-06
9.07171205e-06
1.017709458e-05
1.147507346e-05
1.302706888e-05
1.489724989e-05
1.715026516e-05
1.988576897e-05
2.320201748e-05
2.72630113e-05
3.22039181e-05
3.81557833e-05
4.51142404e-05
5.28243666e-05
6.034694806e-05
6.570128574e-05
6.58965142e-05
5.897728197e-05
4.663325752e-05
3.325684856e-05
2.211924408e-05
1.403740803e-05
8.584114719e-06
5.093523686e-06
2.940058981e-06
1.684309389e-06
9.512124222e-07
5.320735977e-07
2.914494614e-07
1.513097921e-07
7.156337477e-08
2.947033178e-08
1.053188437e-08
3.178561375e-09
8.939101981e-10
2.20635684e-10
5.018841294e-11
1.048613308e-11
1.947832776e-12
5.262715193e-13
1.703121985e-13
3.927285941e-14
2.210121772e-14
8.492556616e-15
3.828027138e-15
2.367191333e-15
1.191775676e-15
4.867364678e-16
3.659910742e-16
2.664635409e-16
1.840466956e-16
1.154730315e-16
5.821229101e-17
2.31644382e-17
1.991043445e-17
1.71867767e-17
1.489587506e-17
1.295859015e-17
1.131190794e-17
9.905529105e-18
8.698977669e-18
7.65949534e-18
6.760494806e-18
5.980240581e-18
5.300814994e-18
4.707385326e-18
4.187601159e-18
3.731141771e-18
3.329314981e-18
2.974783139e-18
2.661323802e-18
2.383638826e-18
2.137200374e-18
1.918123439e-18
1.723065506e-18
1.549140582e-18
1.393849625e-18
1.255022236e-18
1.130768273e-18
1.019437658e-18
9.195861055e-19
8.299465835e-19
7.494051294e-19
6.769802793e-19
6.118056618e-19
5.531150254e-19
5.002294981e-19
4.5254666e-19
4.095310775e-19
3.70706166e-19
3.356471423e-19
3.039748879e-19
2.753506579e-19
2.494714296e-19
2.260658458e-19
2.048906652e-19
1.857276482e-19
1.683808171e-19
1.526740486e-19
1.384489347e-19
1.255629049e-19
1.13887557e-19
1.033071788e-19
9.371743494e-20
8.502419699e-20
7.714250615e-20
6.999564034e-20
6.351428947e-20
5.763581334e-20
5.230357899e-20
4.746636694e-20
4.307783904e-20
3.909606023e-20
3.548307101e-20
3.220449986e-20
2.922921795e-20
2.652902643e-20
2.407837537e-20
2.185411047e-20
1.983524482e-20
1.800275251e-20
1.633938314e-20
1.482949363e-20
1.345889671e-20
1.221472378e-20
1.108530109e-20
1.006003763e-20
9.129323953e-21
8.284440082e-21
7.517472986e-21
6.821241034e-21
6.18922609e-21
5.615511811e-21
5.094727784e-21
4.621998954e-21
4.192899599e-21
3.803411901e-21
3.449888094e-21
3.129016355e-21
2.837789732e-21
2.573478035e-21
2.333602283e-21
2.115911598e-21
1.918362134e-21
1.739098037e-21
1.576434149e-21
1.428840299e-21
1.294927024e-21
1.173432637e-21
1.063211524e-21
9.63223391e-22
8.725236605e-22
7.902546302e-22
7.156375228e-22
6.479652115e-22
5.865956466e-22
5.309458769e-22
4.804866343e-22
4.347373856e-22
3.932618449e-22
3.556639519e-22
3.215841458e-22
2.90696011e-22
2.627032424e-22
2.373368604e-22
2.143527468e-22
1.935292933e-22
1.746653755e-22
1.575784593e-22
1.421028776e-22
1.280883132e-22
1.153983443e-22
1.039091949e-22
9.350856285e-23
8.40945323e-23
7.557466559e-23
6.786509385e-23
6.088975894e-23
5.457965516e-23
4.887219698e-23
4.371063734e-23
3.904350302e-23
3.482412971e-23
3.101021612e-23
2.756339507e-23
2.444887748e-23
2.163515286e-23
1.90936471e-23
1.679847974e-23
1.472618736e-23
1.285550321e-23
1.116716803e-23
9.643741507e-24