/*--------------------------------*- C++ -*----------------------------------*\
| =========                 |                                                 |
| \\      /  F ield         | OpenFOAM: The Open Source CFD Toolbox           |
|  \\    /   O peration     | Version:  v2006                                 |
|   \\  /    A nd           | Website:  www.openfoam.com                      |
|    \\/     M anipulation  |                                                 |
\*---------------------------------------------------------------------------*/
FoamFile
{
    version     2.0;
    format      ascii;
    class       volScalarField;
    location    "0.1";
    object      H2;
}
// * * * * * * * * * * * * * * * * * * * * * * * * * * * * * * * * * * * * * //

dimensions      [0 0 0 0 0 0 0];


internalField   nonuniform List<scalar> 
72000
(
4.094226844e-05
4.094229607e-05
4.094234884e-05
4.094242372e-05
4.094251801e-05
4.094262933e-05
4.09427555e-05
4.094289475e-05
4.094304544e-05
4.094320621e-05
4.094337587e-05
4.094355345e-05
4.094373813e-05
4.094392921e-05
4.094412611e-05
4.094432838e-05
4.094453562e-05
4.094474749e-05
4.094496375e-05
4.094518418e-05
4.094540863e-05
4.094563793e-05
4.094587118e-05
4.094610811e-05
4.094634864e-05
4.094659273e-05
4.094684029e-05
4.094709133e-05
4.094734595e-05
4.094760417e-05
4.094786604e-05
4.094813162e-05
4.094840096e-05
4.094867413e-05
4.094895123e-05
4.09492323e-05
4.094951736e-05
4.094980642e-05
4.095009955e-05
4.095039687e-05
4.095069847e-05
4.095100445e-05
4.095131488e-05
4.095162979e-05
4.09519492e-05
4.095227306e-05
4.095260122e-05
4.095293329e-05
4.095326854e-05
4.095360588e-05
4.095396626e-05
4.095434082e-05
4.095471871e-05
4.095510106e-05
4.095548881e-05
4.095588259e-05
4.095628278e-05
4.095668976e-05
4.095710376e-05
4.095752509e-05
4.095795402e-05
4.095839045e-05
4.095883464e-05
4.095928665e-05
4.095974683e-05
4.096021086e-05
4.096064464e-05
4.096108643e-05
4.096153668e-05
4.096199557e-05
4.096246318e-05
4.096293922e-05
4.096342323e-05
4.096391632e-05
4.096441922e-05
4.096493216e-05
4.096545543e-05
4.096598934e-05
4.096653435e-05
4.096709088e-05
4.096765953e-05
4.096824104e-05
4.096883577e-05
4.096944381e-05
4.097006537e-05
4.097070082e-05
4.097135058e-05
4.097201524e-05
4.097270062e-05
4.09734046e-05
4.097412589e-05
4.097486557e-05
4.097562461e-05
4.097640409e-05
4.097720489e-05
4.097802833e-05
4.097887533e-05
4.097974659e-05
4.098063816e-05
4.098155548e-05
4.098249993e-05
4.098347315e-05
4.098447697e-05
4.098551267e-05
4.098658193e-05
4.098768627e-05
4.098882757e-05
4.099000764e-05
4.09912289e-05
4.099249259e-05
4.099380243e-05
4.099515874e-05
4.099656509e-05
4.099804014e-05
4.099946887e-05
4.10026594e-05
4.099352269e-05
4.10489377e-05
4.087988531e-05
4.120534057e-05
4.087650365e-05
4.138180426e-05
4.087320488e-05
4.157668411e-05
4.086983242e-05
4.178412385e-05
4.086564544e-05
4.201111418e-05
4.086228957e-05
4.227029253e-05
4.085785805e-05
4.257279916e-05
4.085265986e-05
4.295733684e-05
4.084300574e-05
4.367097529e-05
4.083519556e-05
4.386773778e-05
4.082270452e-05
4.400222341e-05
4.081328977e-05
4.416235416e-05
4.082606849e-05
4.438809958e-05
4.088477386e-05
4.46761386e-05
4.095806927e-05
4.501262471e-05
4.097235045e-05
4.563713733e-05
4.094198171e-05
4.604775063e-05
4.089246836e-05
4.748521428e-05
4.080819866e-05
4.759887558e-05
4.065563293e-05
4.054731673e-05
4.043387901e-05
5.757326262e-05
4.146858589e-05
0.000376784305
0.0007929969015
0.0009674097581
0.0009889868338
0.0009463025183
0.0008767199369
0.0007959815873
0.0007119546033
0.0006292369353
0.0005506526725
0.000478189206
0.0004127851357
0.0003550365446
0.0003047392572
0.0002615087452
0.0002247111591
0.0001935788297
0.0001673071289
0.0001451637714
0.0001264807423
0.0001106859126
9.726617053e-05
8.582504145e-05
7.601327411e-05
6.756425437e-05
6.026056451e-05
5.391256443e-05
4.835090961e-05
4.346239305e-05
3.917842916e-05
3.543268186e-05
3.206180303e-05
2.900911708e-05
2.623441435e-05
2.361802231e-05
2.104647642e-05
1.868735612e-05
1.658584198e-05
1.473718088e-05
1.311772933e-05
1.169900077e-05
1.045356627e-05
9.357131752e-06
8.388933292e-06
7.531471287e-06
6.770043738e-06
6.092270506e-06
5.487676203e-06
4.947345532e-06
4.463645602e-06
4.030004171e-06
3.640732781e-06
3.290884714e-06
2.976140106e-06
2.692712302e-06
2.437270916e-06
2.206878081e-06
1.998935223e-06
1.811138337e-06
1.641440161e-06
1.488017998e-06
1.349246201e-06
1.223672535e-06
1.109997783e-06
1.007058074e-06
9.138095196e-07
8.293148077e-07
7.527314713e-07
6.83301591e-07
6.203427333e-07
5.632399549e-07
5.114387331e-07
4.64438703e-07
4.217880961e-07
3.830787956e-07
3.479419309e-07
3.160439474e-07
2.870830946e-07
2.607862853e-07
2.369062821e-07
2.152191745e-07
1.955221149e-07
1.776312844e-07
1.613800636e-07
1.466173866e-07
1.332062583e-07
1.210224181e-07
1.099531349e-07
9.98961195e-08
9.075854222e-08
8.245614589e-08
7.491244364e-08
6.805799348e-08
6.182974233e-08
5.617043189e-08
5.102806121e-08
4.635539955e-08
4.210954521e-08
3.825152599e-08
3.47459366e-08
3.156061044e-08
2.866632152e-08
2.603651418e-08
2.364705834e-08
2.147602672e-08
1.950349327e-08
1.771134981e-08
1.608313986e-08
1.460390751e-08
1.326006033e-08
1.203924496e-08
1.093023389e-08
9.922822883e-09
9.007737549e-09
8.176548481e-09
7.421594473e-09
6.73591237e-09
6.113173491e-09
5.547625903e-09
5.034041796e-09
4.567669936e-09
4.144192049e-09
3.759683645e-09
3.410577978e-09
3.093633714e-09
2.805905038e-09
2.544714887e-09
2.307630582e-09
2.092441426e-09
1.897138582e-09
1.719896591e-09
1.559056849e-09
1.413112295e-09
1.280693642e-09
1.160556767e-09
1.051571341e-09
9.527105401e-10
8.630414968e-10
7.817167884e-10
7.079665928e-10
6.410916458e-10
5.804568629e-10
5.254854335e-10
4.756534127e-10
4.304850703e-10
3.895482908e-10
3.524507501e-10
3.188362342e-10
2.883812682e-10
2.60792142e-10
2.358023127e-10
2.131697196e-10
1.926747137e-10
1.741178351e-10
1.573181233e-10
1.421112895e-10
1.283483632e-10
1.158940844e-10
1.046257342e-10
9.44319728e-11
8.52117823e-11
7.687363357e-11
6.933432749e-11
6.251856211e-11
5.63580209e-11
5.079067196e-11
4.576045148e-11
4.121632451e-11
3.711218022e-11
3.340616521e-11
3.006034069e-11
2.704031962e-11
2.431502072e-11
2.185625597e-11
1.963842196e-11
1.763832862e-11
1.583509231e-11
1.420975621e-11
1.274514201e-11
1.142569701e-11
1.023734197e-11
9.16731562e-12
8.204103579e-12
7.337339571e-12
6.557573657e-12
5.856259553e-12
5.225720792e-12
4.658982224e-12
4.149718703e-12
3.692308451e-12
3.281618228e-12
2.913004155e-12
2.58224995e-12
2.28558169e-12
2.019576735e-12
1.78111561e-12
1.567484886e-12
1.376131387e-12
1.204807026e-12
1.051443341e-12
9.143370427e-13
7.917155069e-13
6.821668596e-13
5.842661415e-13
4.968018308e-13
4.188075114e-13
3.49212177e-13
2.872024197e-13
2.318930313e-13
1.826530839e-13
1.388019872e-13
9.976317255e-14
6.503850374e-14
3.417647603e-14
6.771879086e-15
0
0
0
0
0
0
0
0
0
0
0
0
0
0
0
0
0
0
0
0
0
0
0
0
0
0
0
0
0
0
0
0
0
0
0
0
0
0
0
0
0
0
0
0
0
0
0
0
0
0
0
0
0
0
0
0
0
0
0
0
0
0
0
0
0
0
0
0
0
0
0
0
0
0
0
0
0
0
0
0
0
0
0
0
0
0
0
0
0
0
0
0
0
0
0
0
0
0
0
0
0
0
0
0
0
0
0
0
0
0
0
0
0
0
0
0
0
0
0
0
0
0
0
0
0
0
0
0
0
0
0
0
0
0
0
0
0
0
0
0
0
0
0
0
0
0
0
0
0
0
0
0
0
0
0
0
0
0
0
0
0
0
0
0
0
0
0
0
0
0
0
0
0
0
0
0
0
0
0
0
0
0
0
0
0
0
0
0
0
0
0
0
0
0
0
0
0
0
0
0
0
0
0
0
0
0
0
0
0
0
0
0
0
0
0
0
0
0
0
0
0
0
0
0
4.806809996e-05
4.8073412e-05
4.808354731e-05
4.809800324e-05
4.811629264e-05
4.81379679e-05
4.816261949e-05
4.81898906e-05
4.821946509e-05
4.82510723e-05
4.828447413e-05
4.831947412e-05
4.835590539e-05
4.839362685e-05
4.843252172e-05
4.847249423e-05
4.851346263e-05
4.85553679e-05
4.859816228e-05
4.864180648e-05
4.868627307e-05
4.873153736e-05
4.877758189e-05
4.882439429e-05
4.887196998e-05
4.892030417e-05
4.896939226e-05
4.901924662e-05
4.906988536e-05
4.912132681e-05
4.917358945e-05
4.922669243e-05
4.928065613e-05
4.93355011e-05
4.939125336e-05
4.944793578e-05
4.950556489e-05
4.956415839e-05
4.962374516e-05
4.96843577e-05
4.974602716e-05
4.98087846e-05
4.987265708e-05
4.993767297e-05
5.000385345e-05
5.007121309e-05
5.013975101e-05
5.020944101e-05
5.028021127e-05
5.035191715e-05
5.042349636e-05
5.049539768e-05
5.056835949e-05
5.064256907e-05
5.071817897e-05
5.079529898e-05
5.087400994e-05
5.09543819e-05
5.103647588e-05
5.112035016e-05
5.120606201e-05
5.12936634e-05
5.138321482e-05
5.147477322e-05
5.15683926e-05
5.16641027e-05
5.176191219e-05
5.186203682e-05
5.196454181e-05
5.206950568e-05
5.217699643e-05
5.228704416e-05
5.239960156e-05
5.251491816e-05
5.263313402e-05
5.27543562e-05
5.287870521e-05
5.300627858e-05
5.313719547e-05
5.327160013e-05
5.340965825e-05
5.355156421e-05
5.369743807e-05
5.384740424e-05
5.400159071e-05
5.416016503e-05
5.432328187e-05
5.449110978e-05
5.466113933e-05
5.483591744e-05
5.501596887e-05
5.520156832e-05
5.539301013e-05
5.559058128e-05
5.579459388e-05
5.600534328e-05
5.622316139e-05
5.644831932e-05
5.667122416e-05
5.690132056e-05
5.713922999e-05
5.738537444e-05
5.764019929e-05
5.790410599e-05
5.817746103e-05
5.846065577e-05
5.875416555e-05
5.905844793e-05
5.937300829e-05
5.969471739e-05
6.002826267e-05
6.037382351e-05
6.073177489e-05
6.110190601e-05
6.148291955e-05
6.187364872e-05
6.227608534e-05
6.267931126e-05
6.311933825e-05
6.346748967e-05
6.394006852e-05
6.426294304e-05
6.479232959e-05
6.51079688e-05
6.57144578e-05
6.603385389e-05
6.6723925e-05
6.703339164e-05
6.778599709e-05
6.810171894e-05
6.89639375e-05
6.929028799e-05
7.028332145e-05
7.062190177e-05
7.178739545e-05
7.216292536e-05
7.374666001e-05
7.442936666e-05
7.64177388e-05
7.740250864e-05
7.97512863e-05
8.108184759e-05
8.407925375e-05
8.5834697e-05
8.961736039e-05
9.163258348e-05
9.627494554e-05
9.926364577e-05
0.0001053676632
0.0001097113618
0.0001181834925
0.0001244470828
0.0001366939546
0.0001459993842
0.0001645038234
0.0001798554853
0.000210420419
0.0002397534648
0.0002753473904
0.0003256097325
0.0004421348389
0.0006717458047
0.0008910997805
0.0009836681892
0.0009888304204
0.0009473778702
0.0008823045976
0.0008058756204
0.0007250565852
0.0006442926139
0.0005665376199
0.0004938653284
0.0004277096264
0.000368662164
0.0003168244565
0.0002720469553
0.0002337297167
0.0002012273172
0.0001737618124
0.000150602876
0.0001310746531
0.0001145530611
0.0001005427893
8.861229617e-05
7.839595652e-05
6.95999613e-05
6.201450119e-05
5.54954787e-05
4.976088251e-05
4.469279157e-05
4.020677803e-05
3.620191181e-05
3.257953209e-05
2.928821823e-05
2.625265459e-05
2.344445196e-05
2.086971245e-05
1.855741119e-05
1.650985421e-05
1.470810659e-05
1.312496324e-05
1.173238738e-05
1.050468365e-05
9.419461691e-06
8.457629895e-06
7.603031085e-06
6.841991776e-06
6.162899543e-06
5.555843851e-06
5.012320899e-06
4.524995214e-06
4.087507416e-06
3.694320018e-06
3.340591777e-06
3.02207493e-06
2.735030488e-06
2.476157874e-06
2.242536095e-06
2.031574102e-06
1.840968778e-06
1.668669079e-06
1.512845344e-06
1.371862881e-06
1.244259128e-06
1.128723851e-06
1.024081905e-06
9.292781718e-07
8.43364377e-07
7.654874978e-07
6.948795653e-07
6.308486597e-07
5.727709432e-07
5.200835982e-07
4.722785618e-07
4.288969437e-07
3.895240631e-07
3.537850132e-07
3.213407011e-07
2.918843047e-07
2.651380999e-07
2.408506154e-07
2.1879408e-07
1.987621286e-07
1.805677403e-07
1.640413836e-07
1.490293453e-07
1.353922254e-07
1.230035794e-07
1.117486943e-07
1.015234821e-07
9.223348185e-08
8.379295695e-08
7.612407917e-08
6.915619065e-08
6.28251363e-08
5.707265912e-08
5.18458533e-08
4.709666807e-08
4.278145887e-08
3.886058045e-08
3.529801782e-08
3.2061052e-08
2.911995657e-08
2.644772254e-08
2.401980912e-08
2.181391695e-08
1.980978292e-08
1.798899342e-08
1.633481525e-08
1.483204181e-08
1.34668535e-08
1.222669112e-08
1.110014063e-08
1.007682877e-08
9.147327942e-09
8.30306992e-09
7.536267696e-09
6.839844067e-09
6.207367034e-09
5.632990923e-09
5.111403007e-09
4.637775087e-09
4.207719085e-09
3.817247287e-09
3.462735565e-09
3.140890556e-09
2.848719352e-09
2.583502123e-09
2.342767447e-09
2.124269435e-09
1.925967422e-09
1.746007109e-09
1.582703623e-09
1.43452616e-09
1.30008393e-09
1.178113219e-09
1.067466025e-09
9.670994378e-10
8.760660365e-10
7.935051899e-10
7.18635067e-10
6.507455581e-10
5.891917564e-10
5.333878968e-10
4.828019184e-10
4.369507438e-10
3.953956418e-10
3.577382038e-10
3.236167593e-10
2.92702856e-10
2.646982774e-10
2.393324288e-10
2.163594804e-10
1.955564865e-10
1.767209062e-10
1.596690315e-10
1.442341369e-10
1.302649093e-10
1.176240664e-10
1.061869913e-10
9.584064189e-11
8.648258039e-11
7.801979215e-11
7.036781962e-11
6.345029404e-11
5.71977982e-11
5.154741651e-11
4.644215562e-11
4.183031176e-11
3.76650201e-11
3.390378248e-11
3.050816083e-11
2.744325844e-11
2.467742848e-11
2.218210068e-11
1.993128892e-11
1.790151127e-11
1.607151526e-11
1.442208229e-11
1.293576451e-11
1.159677978e-11
1.039079431e-11
9.304905042e-12
8.327471862e-12
7.447848917e-12
6.656558749e-12
5.94492237e-12
5.305056488e-12
4.729959245e-12
4.213214107e-12
3.749061227e-12
3.332344872e-12
2.958287396e-12
2.622666273e-12
2.321589506e-12
2.051671084e-12
1.809726614e-12
1.592974372e-12
1.398828096e-12
1.224973552e-12
1.069436505e-12
9.303079169e-13
8.058763783e-13
6.947463267e-13
5.954449223e-13
5.067057567e-13
4.275928068e-13
3.569828647e-13
2.940746595e-13
2.379716206e-13
1.880153081e-13
1.435420855e-13
1.039501099e-13
6.870936695e-14
3.743877471e-14
9.604711121e-15
0
0
0
0
0
0
0
0
0
0
0
0
0
0
0
0
0
0
0
0
0
0
0
0
0
0
0
0
0
0
0
0
0
0
0
0
0
0
0
0
0
0
0
0
0
0
0
0
0
0
0
0
0
0
0
0
0
0
0
0
0
0
0
0
0
0
0
0
0
0
0
0
0
0
0
0
0
0
0
0
0
0
0
0
0
0
0
0
0
0
0
0
0
0
0
0
0
0
0
0
0
0
0
0
0
0
0
0
0
0
0
0
0
0
0
0
0
0
0
0
0
0
0
0
0
0
0
0
0
0
0
0
0
0
0
0
0
0
0
0
0
0
0
0
0
0
0
0
0
0
0
0
0
0
0
0
0
0
0
0
0
0
0
0
0
0
0
0
0
0
0
0
0
0
0
0
0
0
0
0
0
0
0
0
0
0
0
0
0
0
0
0
0
0
0
0
0
0
0
0
0
0
0
0
0
0
0
0
0
0
0
0
0
0
0
0
0
0
0
0
0
0
0
0
5.311855336e-05
5.312784263e-05
5.314545205e-05
5.317047518e-05
5.320206177e-05
5.323943521e-05
5.328189799e-05
5.332883439e-05
5.337970524e-05
5.343404418e-05
5.349144989e-05
5.355158422e-05
5.361416122e-05
5.36789418e-05
5.374572489e-05
5.3814346e-05
5.38846689e-05
5.395659e-05
5.403002897e-05
5.410492127e-05
5.41812175e-05
5.425887657e-05
5.433786836e-05
5.441817245e-05
5.44997789e-05
5.458268527e-05
5.466612939e-05
5.47503085e-05
5.48358071e-05
5.492265254e-05
5.501087256e-05
5.510049697e-05
5.519155961e-05
5.528409915e-05
5.537815923e-05
5.547377991e-05
5.557098197e-05
5.56697896e-05
5.577025261e-05
5.587242746e-05
5.597636861e-05
5.608212758e-05
5.6189751e-05
5.629928478e-05
5.641076896e-05
5.652423298e-05
5.663968586e-05
5.67570974e-05
5.687637613e-05
5.699729835e-05
5.711928657e-05
5.724262943e-05
5.736785242e-05
5.749520203e-05
5.762497996e-05
5.775736607e-05
5.789249275e-05
5.80304711e-05
5.817140164e-05
5.831538595e-05
5.846253643e-05
5.861292768e-05
5.876665441e-05
5.892382763e-05
5.908455974e-05
5.924895758e-05
5.941589585e-05
5.958591897e-05
5.975996038e-05
5.993816865e-05
6.012069454e-05
6.030665924e-05
6.048808563e-05
6.067397569e-05
6.08644801e-05
6.105975246e-05
6.12599571e-05
6.146525926e-05
6.167583329e-05
6.189188128e-05
6.211368554e-05
6.2341716e-05
6.257605552e-05
6.28168319e-05
6.306425024e-05
6.331856896e-05
6.358005784e-05
6.384899734e-05
6.412565342e-05
6.440746899e-05
6.469660352e-05
6.499448031e-05
6.530157805e-05
6.561836936e-05
6.594529621e-05
6.628286701e-05
6.663171516e-05
6.699218255e-05
6.736487519e-05
6.775011046e-05
6.814819904e-05
6.856002131e-05
6.898637452e-05
6.942796827e-05
6.98827335e-05
7.03506246e-05
7.083548512e-05
7.133797472e-05
7.185915533e-05
7.239998933e-05
7.295644795e-05
7.350865383e-05
7.408077154e-05
7.46729804e-05
7.528515641e-05
7.591700319e-05
7.656299861e-05
7.722414061e-05
7.790188018e-05
7.858622569e-05
7.929808914e-05
8.002021382e-05
8.078695801e-05
8.156847049e-05
8.241164665e-05
8.327283243e-05
8.42129155e-05
8.514225403e-05
8.614233365e-05
8.715636996e-05
8.827973679e-05
8.942695329e-05
9.071676571e-05
9.204628418e-05
9.357412636e-05
9.519252109e-05
9.707022939e-05
9.905068155e-05
0.0001013865971
0.0001038987852
0.0001068508533
0.0001099228042
0.0001134958322
0.000117351956
0.0001218248204
0.0001265581413
0.0001322304096
0.0001383608285
0.0001457932364
0.0001540678649
0.0001641104915
0.0001755313234
0.0001897451652
0.0002062727035
0.000227584082
0.0002535016426
0.0002883768624
0.0003324187526
0.0003920078118
0.0004798983394
0.0006168152684
0.0007903636118
0.000928009743
0.000992814424
0.000998852515
0.0009666319281
0.0009112442403
0.0008425635512
0.0007668950689
0.0006889378312
0.0006119974914
0.00053852508
0.0004703269311
0.0004083683606
0.0003531523632
0.0003047283516
0.0002627839839
0.0002267760248
0.0001960897648
0.0001700081861
0.0001479028139
0.000129143694
0.000113191388
9.962807096e-05
8.801478585e-05
7.796864486e-05
6.926461153e-05
6.16800905e-05
5.499555693e-05
4.90943897e-05
4.384496519e-05
3.91376243e-05
3.494024487e-05
3.118645313e-05
2.781667314e-05
2.479110633e-05
2.208603366e-05
1.968525984e-05
1.756450478e-05
1.569373533e-05
1.404232381e-05
1.258202671e-05
1.128798302e-05
1.013875559e-05
9.116009517e-06
8.204087887e-06
7.389583737e-06
6.660967444e-06
6.00828239e-06
5.422892619e-06
4.897277117e-06
4.424859042e-06
3.999869458e-06
3.617232509e-06
3.272469896e-06
2.961620862e-06
2.681174576e-06
2.428013047e-06
2.199362027e-06
1.992749139e-06
1.80596768e-06
1.637045386e-06
1.48421732e-06
1.345902224e-06
1.220681907e-06
1.107283185e-06
1.004562021e-06
9.114895682e-07
8.27139853e-07
7.506789011e-07
6.813551036e-07
6.18490665e-07
5.614740032e-07
5.097530004e-07
4.628289647e-07
4.202512684e-07
3.816125386e-07
3.465443606e-07
3.147134312e-07
2.8581811e-07
2.595853245e-07
2.357677939e-07
2.141415285e-07
1.945035863e-07
1.766700507e-07
1.604742107e-07
1.457649206e-07
1.324051197e-07
1.202704993e-07
1.092482966e-07
9.923620718e-08
9.01414022e-08
8.187963937e-08
7.437445939e-08
6.755645921e-08
6.136263374e-08
5.573578123e-08
5.062396302e-08
4.598001602e-08
4.176110995e-08
3.792834658e-08
3.44463964e-08
3.128316929e-08
2.840951564e-08
2.579895596e-08
2.342743491e-08
2.127309855e-08
1.931609217e-08
1.753837676e-08
1.592356248e-08
1.445675761e-08
1.31244311e-08
1.191428824e-08
1.081515738e-08
9.816887212e-09
8.9102535e-09
8.086874381e-09
7.339133367e-09
6.66010944e-09
6.043513517e-09
5.483630782e-09
4.97526834e-09
4.513707431e-09
4.094660327e-09
3.714230932e-09
3.368879029e-09
3.055387894e-09
2.770834677e-09
2.512563747e-09
2.278162157e-09
2.065437644e-09
1.872398396e-09
1.697234839e-09
1.538302962e-09
1.394109271e-09
1.263296911e-09
1.144633394e-09
1.036999081e-09
9.39376995e-10
8.508433639e-10
7.705591343e-10
6.9776224e-10
6.31760604e-10
5.719256607e-10
5.176866231e-10
4.685251616e-10
4.239706382e-10
3.835956477e-10
3.470122471e-10
3.138680904e-10
2.838433719e-10
2.566478609e-10
2.320179319e-10
2.09714458e-10
1.895203142e-10
1.712384707e-10
1.546901415e-10
1.397131457e-10
1.26160191e-10
1.138977469e-10
1.028046224e-10
9.277093637e-11
8.369699859e-11
7.549232792e-11
6.807497012e-11
6.137053671e-11
5.531158954e-11
4.983702168e-11
4.489146775e-11
4.042462324e-11
3.639094864e-11
3.27492584e-11
2.946210703e-11
2.649563386e-11
2.381915659e-11
2.140487979e-11
1.922756625e-11
1.726449296e-11
1.54950182e-11
1.390043407e-11
1.246387897e-11
1.116994131e-11
1.000478748e-11
8.955923427e-12
8.012015989e-12
7.162832987e-12
6.39904475e-12
5.71231701e-12
5.095019836e-12
4.540364172e-12
4.042119813e-12
3.594725312e-12
3.193130314e-12
2.832739545e-12
2.509451157e-12
2.21958138e-12
1.959764852e-12
1.726946096e-12
1.518429741e-12
1.331702421e-12
1.164616161e-12
1.015162523e-12
8.814676204e-13
7.620315116e-13
6.553432893e-13
5.600306474e-13
4.749655933e-13
3.990621882e-13
3.314465164e-13
2.711713277e-13
2.174540824e-13
1.696274165e-13
1.270508347e-13
8.918183813e-14
5.55330985e-14
2.558898795e-14
0
0
0
0
0
0
0
0
0
0
0
0
0
0
0
0
0
0
0
0
0
0
0
0
0
0
0
0
0
0
0
0
0
0
0
0
0
0
0
0
0
0
0
0
0
0
0
0
0
0
0
0
0
0
0
0
0
0
0
0
0
0
0
0
0
0
0
0
0
0
0
0
0
0
0
0
0
0
0
0
0
0
0
0
0
0
0
0
0
0
0
0
0
0
0
0
0
0
0
0
0
0
0
0
0
0
0
0
0
0
0
0
0
0
0
0
0
0
0
0
0
0
0
0
0
0
0
0
0
0
0
0
0
0
0
0
0
0
0
0
0
0
0
0
0
0
0
0
0
0
0
0
0
0
0
0
0
0
0
0
0
0
0
0
0
0
0
0
0
0
0
0
0
0
0
0
0
0
0
0
0
0
0
0
0
0
0
0
0
0
0
0
0
0
0
0
0
0
0
0
0
0
0
0
0
0
0
0
0
0
0
0
0
0
0
0
0
0
0
0
0
0
0
0
5.768160271e-05
5.7694165e-05
5.771788143e-05
5.775147741e-05
5.779379147e-05
5.784377824e-05
5.790050738e-05
5.796316023e-05
5.803102243e-05
5.810347624e-05
5.817999279e-05
5.826012614e-05
5.834350189e-05
5.842980627e-05
5.851877563e-05
5.861018969e-05
5.870386788e-05
5.8799677e-05
5.889751578e-05
5.899730194e-05
5.909897012e-05
5.920246713e-05
5.930774927e-05
5.94147867e-05
5.952357058e-05
5.963411334e-05
5.974576627e-05
5.985870148e-05
5.997342607e-05
6.008996602e-05
6.020835419e-05
6.032862918e-05
6.045083576e-05
6.057502653e-05
6.070126713e-05
6.082965779e-05
6.096017842e-05
6.109280748e-05
6.122764472e-05
6.136478512e-05
6.15043041e-05
6.164627011e-05
6.179074688e-05
6.193779694e-05
6.208748206e-05
6.223985775e-05
6.239495838e-05
6.255277448e-05
6.271326871e-05
6.287637463e-05
6.304204177e-05
6.321042021e-05
6.337868034e-05
6.354210415e-05
6.370870427e-05
6.387864919e-05
6.405208383e-05
6.422913402e-05
6.440991695e-05
6.459454816e-05
6.478110516e-05
6.497141635e-05
6.516583684e-05
6.536453235e-05
6.556765549e-05
6.577535684e-05
6.598776214e-05
6.620503738e-05
6.642737048e-05
6.665494545e-05
6.688796503e-05
6.712666947e-05
6.73713495e-05
6.762209325e-05
6.787906893e-05
6.814247477e-05
6.841252606e-05
6.868944308e-05
6.897344122e-05
6.926469133e-05
6.956347366e-05
6.986783687e-05
7.01797179e-05
7.050004444e-05
7.082913518e-05
7.116734986e-05
7.151506801e-05
7.187268125e-05
7.224059499e-05
7.261925685e-05
7.300914041e-05
7.341072555e-05
7.382480692e-05
7.425214237e-05
7.46931127e-05
7.514789198e-05
7.561479376e-05
7.609703428e-05
7.659534436e-05
7.711045402e-05
7.761535313e-05
7.813569652e-05
7.867422999e-05
7.923197966e-05
7.980946508e-05
8.040749079e-05
8.102687747e-05
8.166447792e-05
8.232529939e-05
8.301041084e-05
8.37208589e-05
8.4457732e-05
8.522161605e-05
8.601305354e-05
8.683259125e-05
8.768074145e-05
8.855355005e-05
8.945384636e-05
9.038284876e-05
9.13132399e-05
9.225195526e-05
9.322396122e-05
9.424080255e-05
9.530117815e-05
9.641970289e-05
9.759000439e-05
9.882996745e-05
0.0001001359994
0.0001015306929
0.0001030057866
0.0001045306026
0.0001061341886
0.0001078740547
0.0001097401883
0.0001117950054
0.0001140457926
0.0001165413441
0.0001192120037
0.0001222084961
0.000125526063
0.000129230167
0.0001332100766
0.0001377001073
0.0001426713915
0.0001481792722
0.000154376054
0.0001613170863
0.0001692181613
0.0001783167352
0.0001887340005
0.0002009700056
0.0002153029021
0.0002325005397
0.0002532154457
0.0002789037221
0.0003109281966
0.0003520946472
0.0004052199649
0.0004759693554
0.0005724994106
0.0006986441952
0.000834295973
0.0009422988661
0.001003134581
0.001019761188
0.001002235875
0.0009606482352
0.0009028098208
0.0008348729868
0.0007613919363
0.0006861530257
0.0006121634485
0.0005416128782
0.0004759616111
0.0004162019413
0.0003627107371
0.0003154839349
0.0002742116662
0.0002384697122
0.000207715613
0.0001812932858
0.000158679591
0.0001392057712
0.000122422744
0.0001078963621
9.526287471e-05
8.425632883e-05
7.459364648e-05
6.613395824e-05
5.871428174e-05
5.218210136e-05
4.641308393e-05
4.131328418e-05
3.679475629e-05
3.278557677e-05
2.92291157e-05
2.607786157e-05
2.328940886e-05
2.082301475e-05
1.863983217e-05
1.670446535e-05
1.498589272e-05
1.345724476e-05
1.209530409e-05
1.088002612e-05
9.794110418e-06
8.822566158e-06
7.952343452e-06
7.172056025e-06
6.471737725e-06
5.842644734e-06
5.277075086e-06
4.768236026e-06
4.310122976e-06
3.897417458e-06
3.525400385e-06
3.189877111e-06
2.887114575e-06
2.613785365e-06
2.366920101e-06
2.143865638e-06
1.94224882e-06
1.759944844e-06
1.595049342e-06
1.445854034e-06
1.310825282e-06
1.188585151e-06
1.077894724e-06
9.776392962e-07
8.868153048e-07
8.045187236e-07
7.299347262e-07
6.623284968e-07
6.010370657e-07
5.454619861e-07
4.9506285e-07
4.493514521e-07
4.078865798e-07
3.702693489e-07
3.361390233e-07
3.05169264e-07
2.770647678e-07
2.515582334e-07
2.284076494e-07
2.073938461e-07
1.883182951e-07
1.710011276e-07
1.552793461e-07
1.41005218e-07
1.280448179e-07
1.162767211e-07
1.055908181e-07
9.588724623e-08
8.707542388e-08
7.907317749e-08
7.180595171e-08
6.520609699e-08
5.921222171e-08
5.376860903e-08
4.882468732e-08
4.433455112e-08
4.025652722e-08
3.655278191e-08
3.318896434e-08
3.013388457e-08
2.735922063e-08
2.483925353e-08
2.255062688e-08
2.04721289e-08
1.858449463e-08
1.687022683e-08
1.53134328e-08
1.389967736e-08
1.261584839e-08
1.145003544e-08
1.039141938e-08
9.430172266e-09
8.557366292e-09
7.764891314e-09
7.04537993e-09
6.392139302e-09
5.799089465e-09
5.260707143e-09
4.771974824e-09
4.328334347e-09
3.925645062e-09
3.560145431e-09
3.22841838e-09
2.927359914e-09
2.654150318e-09
2.406228211e-09
2.18126697e-09
1.977153198e-09
1.791967192e-09
1.623965313e-09
1.471563793e-09
1.333324202e-09
1.207940045e-09
1.094224782e-09
9.911008124e-10
8.975895119e-10
8.128021399e-10
7.359316623e-10
6.662452444e-10
6.030774902e-10
5.458241969e-10
4.939368271e-10
4.469173042e-10
4.043135481e-10
3.657150662e-10
3.307492289e-10
2.990779216e-10
2.703940976e-10
2.444191776e-10
2.209003706e-10
1.99608116e-10
1.803343214e-10
1.628899751e-10
1.47103704e-10
1.328199513e-10
1.198977223e-10
1.082090082e-10
9.763769189e-11
8.807856214e-11
7.943613699e-11
7.162386279e-11
6.456322857e-11
5.818311372e-11
5.241897741e-11
4.721234431e-11
4.251021237e-11
3.826459472e-11
3.443194989e-11
3.097284182e-11
2.785153828e-11
2.503569957e-11
2.249595359e-11
2.020581022e-11
1.814125403e-11
1.628051654e-11
1.460392678e-11
1.309360992e-11
1.173342693e-11
1.050880632e-11
9.40657143e-12
8.414788174e-12
7.522584706e-12
6.720279538e-12
5.999002929e-12
5.350761346e-12
4.768356912e-12
4.245302891e-12
3.775682546e-12
3.354199303e-12
2.976021334e-12
2.636848148e-12
2.332801617e-12
2.060275062e-12
1.816159203e-12
1.597527114e-12
1.401825388e-12
1.226728255e-12
1.070084674e-12
9.300971511e-13
8.049934553e-13
6.932439196e-13
5.934988269e-13
5.044787683e-13
4.251180376e-13
3.543316599e-13
2.912644232e-13
2.350917659e-13
1.851023628e-13
1.406336649e-13
1.010837062e-13
6.589772817e-14
3.467242565e-14
6.971170246e-15
0
0
0
0
0
0
0
0
0
0
0
0
0
0
0
0
0
0
0
0
0
0
0
0
0
0
0
0
0
0
0
0
0
0
0
0
0
0
0
0
0
0
0
0
0
0
0
0
0
0
0
0
0
0
0
0
0
0
0
0
0
0
0
0
0
0
0
0
0
0
0
0
0
0
0
0
0
0
0
0
0
0
0
0
0
0
0
0
0
0
0
0
0
0
0
0
0
0
0
0
0
0
0
0
0
0
0
0
0
0
0
0
0
0
0
0
0
0
0
0
0
0
0
0
0
0
0
0
0
0
0
0
0
0
0
0
0
0
0
0
0
0
0
0
0
0
0
0
0
0
0
0
0
0
0
0
0
0
0
0
0
0
0
0
0
0
0
0
0
0
0
0
0
0
0
0
0
0
0
0
0
0
0
0
0
0
0
0
0
0
0
0
0
0
0
0
0
0
0
0
0
0
0
0
0
0
0
0
0
0
0
0
0
0
0
0
0
0
0
0
0
0
6.178455661e-05
6.180009198e-05
6.182933972e-05
6.187067365e-05
6.192263766e-05
6.198393639e-05
6.205342642e-05
6.213010615e-05
6.22131041e-05
6.230166681e-05
6.239514943e-05
6.249301323e-05
6.259480905e-05
6.270016009e-05
6.280874901e-05
6.292030454e-05
6.303457401e-05
6.315142468e-05
6.327074768e-05
6.339244703e-05
6.351644428e-05
6.364267499e-05
6.377108206e-05
6.390160167e-05
6.403422454e-05
6.416899537e-05
6.430595511e-05
6.444512156e-05
6.458650504e-05
6.473013264e-05
6.487604228e-05
6.502428006e-05
6.517489905e-05
6.532795855e-05
6.548352141e-05
6.564097552e-05
6.580098603e-05
6.595443979e-05
6.61080736e-05
6.626431562e-05
6.642324192e-05
6.658492594e-05
6.674943826e-05
6.691684974e-05
6.708723651e-05
6.726069956e-05
6.743733605e-05
6.761710865e-05
6.780003078e-05
6.798612943e-05
6.817546492e-05
6.836818475e-05
6.856452023e-05
6.876470624e-05
6.89688693e-05
6.917717455e-05
6.938978517e-05
6.960683766e-05
6.982846582e-05
7.005480642e-05
7.0285991e-05
7.052170085e-05
7.076186189e-05
7.100731978e-05
7.125826345e-05
7.151491551e-05
7.177760026e-05
7.204642089e-05
7.232150713e-05
7.260306609e-05
7.289133843e-05
7.31865894e-05
7.348908513e-05
7.379904035e-05
7.411668198e-05
7.444226122e-05
7.47760485e-05
7.511832592e-05
7.546938643e-05
7.582858114e-05
7.619606895e-05
7.657305754e-05
7.695999499e-05
7.735733171e-05
7.7765407e-05
7.818473414e-05
7.861581147e-05
7.905913579e-05
7.951521566e-05
7.998457998e-05
8.046780111e-05
8.094823954e-05
8.14289147e-05
8.192263025e-05
8.243156951e-05
8.295633392e-05
8.349752946e-05
8.40560284e-05
8.463267481e-05
8.522836938e-05
8.584420402e-05
8.648114662e-05
8.713992194e-05
8.782058031e-05
8.852487257e-05
8.925391475e-05
9.000893201e-05
9.079128395e-05
9.160208762e-05
9.244278888e-05
9.3314609e-05
9.421832019e-05
9.515530027e-05
9.610103084e-05
9.705443332e-05
9.804248594e-05
9.906640606e-05
0.0001001267825
0.0001012250793
0.0001023635428
0.0001035466195
0.0001047786749
0.0001060672042
0.0001074171437
0.0001088373635
0.0001103005682
0.000111801876
0.0001133908101
0.0001150802872
0.000116877878
0.0001188006212
0.0001208625423
0.0001230891285
0.0001253912482
0.0001278978792
0.0001306465569
0.0001336868724
0.0001370330076
0.0001406139724
0.0001445835754
0.0001489988791
0.000153810601
0.0001591257695
0.0001650709407
0.0001716096979
0.0001789958735
0.0001872400605
0.0001966283765
0.00020739031
0.0002197708817
0.0002341745926
0.0002510305562
0.0002711087167
0.0002951649974
0.0003244063915
0.0003602839855
0.0004048253666
0.000460674368
0.0005317833134
0.0006223595312
0.0007315030799
0.0008460683139
0.0009450973378
0.00101318483
0.001046814378
0.001049113764
0.001025704911
0.0009826676386
0.000925311388
0.0008587058994
0.0007869310065
0.0007134029918
0.0006409443068
0.0005715824638
0.0005067912372
0.000447408297
0.000393781778
0.000346056556
0.0003039267519
0.0002669438074
0.000234631476
0.0002064037666
0.0001816890444
0.0001600697814
0.0001411861333
0.0001247011586
0.0001102965059
9.768581627e-05
8.662598766e-05
7.691359299e-05
6.836272027e-05
6.081844685e-05
5.415733009e-05
4.826837629e-05
4.305405085e-05
3.843627181e-05
3.434525441e-05
3.071799811e-05
2.749921811e-05
2.464012053e-05
2.20968281e-05
1.983160169e-05
1.781178941e-05
1.600878953e-05
1.439755198e-05
1.29562634e-05
1.166584902e-05
1.050951542e-05
9.472496414e-06
8.541774787e-06
7.705886318e-06
6.954663596e-06
6.279108705e-06
5.671243346e-06
5.123983031e-06
4.631029769e-06