/*--------------------------------*- C++ -*----------------------------------*\
| =========                 |                                                 |
| \\      /  F ield         | OpenFOAM: The Open Source CFD Toolbox           |
|  \\    /   O peration     | Version:  v2006                                 |
|   \\  /    A nd           | Website:  www.openfoam.com                      |
|    \\/     M anipulation  |                                                 |
\*---------------------------------------------------------------------------*/
FoamFile
{
    version     2.0;
    format      ascii;
    class       volScalarField;
    location    "0.1";
    object      H2O;
}
// * * * * * * * * * * * * * * * * * * * * * * * * * * * * * * * * * * * * * //

dimensions      [0 0 0 0 0 0 0];


internalField   nonuniform List<scalar> 
72000
(
0.1235320296
0.1235320293
0.1235320288
0.1235320282
0.1235320273
0.1235320263
0.1235320251
0.1235320238
0.1235320225
0.123532021
0.1235320194
0.1235320178
0.1235320161
0.1235320144
0.1235320126
0.1235320107
0.1235320088
0.1235320069
0.1235320049
0.1235320029
0.1235320008
0.1235319987
0.1235319966
0.1235319944
0.1235319922
0.12353199
0.1235319877
0.1235319854
0.1235319831
0.1235319807
0.1235319783
0.1235319759
0.1235319734
0.1235319709
0.1235319684
0.1235319658
0.1235319632
0.1235319606
0.1235319579
0.1235319552
0.1235319524
0.1235319496
0.1235319468
0.1235319439
0.1235319409
0.123531938
0.123531935
0.1235319319
0.1235319289
0.1235319258
0.1235319225
0.1235319191
0.1235319156
0.1235319121
0.1235319086
0.123531905
0.1235319013
0.1235318976
0.1235318938
0.1235318899
0.123531886
0.123531882
0.1235318779
0.1235318738
0.1235318696
0.1235318652
0.1235318601
0.1235318549
0.1235318496
0.1235318442
0.1235318387
0.1235318331
0.1235318274
0.1235318216
0.1235318156
0.1235318096
0.1235318034
0.1235317971
0.1235317906
0.123531784
0.1235317773
0.1235317704
0.1235317634
0.1235317562
0.1235317488
0.1235317413
0.1235317336
0.1235317257
0.1235317176
0.1235317093
0.1235317008
0.1235316921
0.1235316831
0.123531674
0.1235316645
0.1235316548
0.1235316449
0.1235316347
0.1235316242
0.1235316135
0.1235316024
0.123531591
0.1235315793
0.1235315673
0.1235315548
0.123531542
0.1235315288
0.1235315152
0.1235315012
0.1235314867
0.1235314718
0.1235314564
0.1235314405
0.123531424
0.1235314092
0.1235313809
0.123531463
0.1235309668
0.1235324819
0.1235295655
0.1235325127
0.1235279841
0.1235325427
0.1235262374
0.1235325733
0.1235243779
0.1235326112
0.1235223429
0.1235326416
0.1235200191
0.1235326817
0.1235173066
0.1235327287
0.1235138583
0.1235328157
0.1235074583
0.1235328867
0.1235056888
0.1235330007
0.1235044745
0.1235330879
0.1235030276
0.1235329574
0.123500988
0.1235323702
0.1234983851
0.1235316371
0.1234953412
0.1235315173
0.1234897065
0.1235318631
0.1234859279
0.1235323612
0.1234729931
0.1235328423
0.1234717837
0.123534075
0.1235348536
0.1235358598
0.1233788838
0.1235240558
0.1195475225
0.1082208487
0.09511151427
0.08332922432
0.07310868646
0.06412640173
0.05611308814
0.04891159925
0.04244295438
0.03665992938
0.03153934972
0.02704901824
0.0231557666
0.01981092261
0.01696160073
0.0145508005
0.01251988667
0.01081164185
0.009375199989
0.008165182509
0.007142981648
0.006275542675
0.005536143256
0.004902611401
0.00435720027
0.003885765871
0.003476129561
0.003117421917
0.00280214364
0.002525866188
0.002284307256
0.002066929182
0.001870075338
0.001691172343
0.001522495219
0.001356711898
0.001204626286
0.001069150184
0.0009499763023
0.0008455797612
0.0007541236716
0.0006738394785
0.0006031608292
0.0005407490172
0.0004854758251
0.0004363934191
0.0003927036693
0.000353731253
0.0003189014307
0.0002877221416
0.0002597697055
0.000234677419
0.0002121263979
0.0001918381693
0.0001735686351
0.0001571031107
0.0001422522154
0.0001288484411
0.0001167432689
0.0001058047302
9.59153328e-05
8.697028683e-05
7.887598096e-05
7.154866757e-05
6.491332377e-05
5.890266086e-05
5.345626018e-05
4.851981682e-05
4.404447584e-05
3.998624816e-05
3.63054951e-05
3.296647273e-05
2.993692806e-05
2.718774061e-05
2.469260371e-05
2.242774041e-05
2.037165025e-05
1.850488281e-05
1.680983527e-05
1.527057109e-05
1.387265732e-05
1.260301872e-05
1.144980661e-05
1.040228098e-05
9.450704346e-06
8.586246234e-06
7.800897015e-06
7.087390228e-06
6.439132476e-06
5.850140118e-06
5.31498208e-06
4.828728147e-06
4.386902207e-06
3.985439967e-06
3.620650656e-06
3.289182381e-06
2.987990733e-06
2.71431034e-06
2.465629123e-06
2.239664919e-06
2.034344324e-06
1.847783482e-06
1.678270663e-06
1.524250482e-06
1.384309545e-06
1.257163456e-06
1.141644991e-06
1.036693395e-06
9.413446358e-07
8.547225693e-07
7.760309201e-07
7.045459815e-07
6.396100066e-07
5.806251845e-07
5.270481703e-07
4.78385136e-07
4.341872488e-07
3.940465728e-07
3.575923486e-07
3.244876006e-07
2.944260723e-07
2.671294156e-07
2.423446645e-07
2.198419127e-07
1.994122296e-07
1.808657329e-07
1.640298639e-07
1.487478161e-07
1.348770921e-07
1.222882055e-07
1.108634904e-07
1.004960362e-07
9.108870012e-08
8.255322047e-08
7.480940318e-08
6.778438912e-08
6.141199106e-08
5.563207793e-08
5.039002634e-08
4.563621486e-08
4.132557014e-08
3.741715571e-08
3.387379136e-08
3.066170449e-08
2.775023036e-08
2.511151553e-08
2.272027147e-08
2.055353724e-08
1.859046219e-08
1.681211428e-08
1.52013126e-08
1.374245435e-08
1.242138131e-08
1.122523665e-08
1.014235596e-08
9.162149457e-09
8.275014775e-09
7.47223327e-09
6.7458947e-09
6.088822286e-09
5.494504591e-09
4.957041802e-09
4.471071044e-09
4.031738485e-09
3.634640556e-09
3.275778786e-09
2.951539399e-09
2.658632769e-09
2.394086671e-09
2.155203305e-09
1.939537202e-09
1.744871832e-09
1.569203748e-09
1.410716e-09
1.267758234e-09
1.138835659e-09
1.022602151e-09
9.178357859e-10
8.234292782e-10
7.383801292e-10
6.61780813e-10
5.928087617e-10
5.30721777e-10
4.748516669e-10
4.245893044e-10
3.793838106e-10
3.387403737e-10
3.022093873e-10
2.693831434e-10
2.398992718e-10
2.134268929e-10
1.896666701e-10
1.68346829e-10
1.49224109e-10
1.320778927e-10
1.167071039e-10
1.029368399e-10
9.06025271e-11
7.955925781e-11
6.967370235e-11
6.083607014e-11
5.293210045e-11
4.587078655e-11
3.95602778e-11
3.392248158e-11
2.88951047e-11
2.44091117e-11
2.041207189e-11
1.684692603e-11
1.367300579e-11
1.084644141e-11
8.330068256e-12
6.091777366e-12
4.102465564e-12
2.33601372e-12
7.688795913e-13
0
0
0
0
0
0
0
0
0
0
0
0
0
0
0
0
0
0
0
0
0
0
0
0
0
0
0
0
0
0
0
0
0
0
0
0
0
0
0
0
0
0
0
0
0
0
0
0
0
0
0
0
0
0
0
0
0
0
0
0
0
0
0
0
0
0
0
0
0
0
0
0
0
0
0
0
0
0
0
0
0
0
0
0
0
0
0
0
0
0
0
0
0
0
0
0
0
0
0
0
0
0
0
0
0
0
0
0
0
0
0
0
0
0
0
0
0
0
0
0
0
0
0
0
0
0
0
0
0
0
0
0
0
0
0
0
0
0
0
0
0
0
0
0
0
0
0
0
0
0
0
0
0
0
0
0
0
0
0
0
0
0
0
0
0
0
0
0
0
0
0
0
0
0
0
0
0
0
0
0
0
0
0
0
0
0
0
0
0
0
0
0
0
0
0
0
0
0
0
0
0
0
0
0
0
0
0
0
0
0
0
0
0
0
0
0
0
0
0
0
0
0
0
0.1234679204
0.1234678725
0.1234677811
0.1234676507
0.1234674858
0.1234672903
0.123467068
0.1234668221
0.1234665554
0.1234662704
0.1234659692
0.1234656536
0.1234653251
0.1234649851
0.1234646344
0.1234642741
0.1234639048
0.1234635271
0.1234631413
0.123462748
0.1234623472
0.1234619393
0.1234615244
0.1234611026
0.1234606739
0.1234602384
0.1234597962
0.1234593471
0.1234588909
0.1234584275
0.1234579568
0.1234574785
0.1234569925
0.1234564986
0.1234559965
0.1234554861
0.1234549672
0.1234544396
0.1234539031
0.1234533574
0.1234528022
0.1234522373
0.1234516623
0.1234510771
0.1234504815
0.1234498752
0.1234492584
0.1234486313
0.1234479945
0.1234473492
0.1234467037
0.1234460543
0.1234453954
0.1234447252
0.1234440425
0.1234433461
0.1234426354
0.1234419097
0.1234411685
0.1234404113
0.1234396376
0.1234388468
0.1234380385
0.1234372121
0.1234363671
0.1234355034
0.1234346207
0.1234337172
0.1234327923
0.1234318452
0.1234308754
0.1234298826
0.1234288673
0.123427827
0.1234267608
0.1234256674
0.123424546
0.1234233955
0.123422215
0.1234210031
0.1234197584
0.1234184791
0.1234171641
0.1234158123
0.1234144226
0.1234129935
0.1234115236
0.1234100113
0.1234084801
0.1234069059
0.1234052838
0.1234036112
0.1234018855
0.1234001041
0.1233982642
0.1233963629
0.1233943974
0.1233923651
0.1233903489
0.1233882676
0.1233861157
0.1233838896
0.123381585
0.1233791986
0.1233767268
0.1233741663
0.1233715127
0.123368762
0.1233659175
0.1233630036
0.1233599828
0.1233568534
0.1233536121
0.1233502609
0.1233468115
0.1233432746
0.1233396324
0.1233359836
0.1233320036
0.1233288546
0.123324583
0.1233216641
0.1233168808
0.1233140283
0.1233085495
0.1233056637
0.1232994245
0.1232966156
0.1232897784
0.1232869087
0.1232790724
0.1232761064
0.1232670809
0.1232640033
0.123253408
0.1232499895
0.1232355813
0.1232293584
0.1232112567
0.1232022627
0.1231807797
0.1231685711
0.123141103
0.1231249559
0.1230901721
0.1230715245
0.1230286529
0.1230008088
0.1229440296
0.1229032338
0.1228234208
0.1227635343
0.1226457531
0.1225539293
0.122368708
0.1222075457
0.1218729536
0.1215219598
0.1210567045
0.1203250142
0.1183070977
0.112744531
0.103026608
0.09238103457
0.0822668912
0.07302289236
0.06461106316
0.05693537566
0.04992425478
0.04354343878
0.03777638039
0.03261577967
0.02805179946
0.02406056964
0.02060746734
0.01765128269
0.01513906739
0.01301728307
0.01123063316
0.009727520208
0.008461949258
0.007393041214
0.006487147148
0.005716026319
0.005056114453
0.004488349699
0.003998912661
0.003578330059
0.003208390682
0.00288147482
0.002592133281
0.002333873959
0.002100292615
0.001888069759
0.001692346492
0.001511290186
0.001345292312
0.00119621922
0.001064217982
0.000948066547
0.0008460100148
0.0007562401516
0.0006770998935
0.0006071454068
0.0005451456412
0.0004900588054
0.0004410032864
0.0003972303854
0.0003581011504
0.0003230673395
0.0002916560451
0.0002634572964
0.0002381141151
0.0002153144127
0.000194784364
0.0001762829449
0.0001595973954
0.0001445394264
0.0001309420193
0.0001186567172
0.0001075513126
9.750786952e-05
8.842101973e-05
8.019649092e-05
7.27498299e-05
6.600529125e-05
5.989486656e-05
5.435743419e-05
4.933801238e-05
4.478710169e-05
4.066010458e-05
3.691681186e-05
3.352094747e-05
3.043976461e-05
2.764368594e-05
2.510598365e-05
2.280249356e-05
2.071135989e-05
1.881280683e-05
1.708893411e-05
1.552353352e-05
1.410192445e-05
1.281080597e-05
1.1638124e-05
1.057295166e-05
9.605381674e-06
8.726429261e-06
7.927944691e-06
7.202534354e-06
6.543489469e-06
5.944721737e-06
5.40070518e-06
4.906423537e-06
4.4573227e-06
4.049267685e-06
3.678503656e-06
3.341620678e-06
3.035521741e-06
2.757393824e-06
2.504681676e-06
2.275064026e-06
2.06643204e-06
1.876869766e-06
1.704636394e-06
1.5481502e-06
1.405973925e-06
1.276801554e-06
1.159446275e-06
1.052829586e-06
9.559713766e-07
8.679809328e-07
7.880487786e-07
7.154392457e-07
6.494837476e-07
5.89574647e-07
5.351596975e-07
4.857370034e-07
4.408504184e-07
4.00085381e-07
3.630651207e-07
3.294472165e-07
2.989204767e-07
2.712020768e-07
2.460349968e-07
2.23185651e-07
2.024417725e-07
1.836104593e-07
1.665164105e-07
1.510003356e-07
1.369174803e-07
1.241363177e-07
1.125373326e-07
1.020119302e-07
9.246144536e-08
8.379623764e-08
7.593485683e-08
6.880331085e-08
6.233438088e-08
5.646700291e-08
5.114570665e-08
4.632010075e-08
4.19444165e-08
3.797708772e-08
3.438036008e-08
3.111994066e-08
2.816469367e-08
2.548634155e-08
2.305920569e-08
2.08599753e-08
1.886748066e-08
1.70625008e-08
1.542759509e-08
1.394691904e-08
1.260610315e-08
1.139209302e-08
1.029304812e-08
9.298222493e-09
8.39786354e-09
7.583123013e-09
6.845968971e-09
6.179115506e-09
5.57596019e-09
5.03050795e-09
4.537315238e-09
4.091459857e-09
3.688467657e-09
3.324283538e-09
2.995234104e-09
2.697986891e-09
2.429521319e-09
2.187098251e-09
1.968240239e-09
1.770698082e-09
1.592432046e-09
1.431600692e-09
1.286529134e-09
1.155703892e-09
1.037755177e-09
9.314442957e-10
8.356466791e-10
7.493451209e-10
6.716157651e-10
6.016269696e-10
5.38628495e-10
4.819341832e-10
4.309331841e-10
3.850661102e-10
3.438248594e-10
3.067581411e-10
2.734523902e-10
2.435363672e-10
2.166777701e-10
1.925686648e-10
1.709368968e-10
1.515316149e-10
1.341345812e-10
1.185405514e-10
1.045702356e-10
9.205694093e-11
8.085150798e-11
7.082669215e-11
6.185944984e-11
5.383947537e-11
4.66768215e-11
4.027655842e-11
3.455706201e-11
2.945800415e-11
2.490698969e-11
2.085237506e-11
1.72363729e-11
1.401654529e-11
1.115011876e-11
8.598302602e-12
6.32693575e-12
4.311457069e-12
2.517472115e-12
9.274488721e-13
0
0
0
0
0
0
0
0
0
0
0
0
0
0
0
0
0
0
0
0
0
0
0
0
0
0
0
0
0
0
0
0
0
0
0
0
0
0
0
0
0
0
0
0
0
0
0
0
0
0
0
0
0
0
0
0
0
0
0
0
0
0
0
0
0
0
0
0
0
0
0
0
0
0
0
0
0
0
0
0
0
0
0
0
0
0
0
0
0
0
0
0
0
0
0
0
0
0
0
0
0
0
0
0
0
0
0
0
0
0
0
0
0
0
0
0
0
0
0
0
0
0
0
0
0
0
0
0
0
0
0
0
0
0
0
0
0
0
0
0
0
0
0
0
0
0
0
0
0
0
0
0
0
0
0
0
0
0
0
0
0
0
0
0
0
0
0
0
0
0
0
0
0
0
0
0
0
0
0
0
0
0
0
0
0
0
0
0
0
0
0
0
0
0
0
0
0
0
0
0
0
0
0
0
0
0
0
0
0
0
0
0
0
0
0
0
0
0
0
0
0
0
0
0.1234222337
0.1234221497
0.1234219903
0.1234217639
0.1234214781
0.1234211399
0.1234207556
0.1234203309
0.1234198705
0.1234193787
0.123418859
0.1234183147
0.1234177482
0.1234171618
0.1234165571
0.1234159358
0.1234152991
0.1234146478
0.1234139827
0.1234133044
0.1234126134
0.12341191
0.1234111944
0.1234104669
0.1234097276
0.1234089764
0.1234082182
0.1234074516
0.1234066731
0.1234058822
0.1234050788
0.1234042626
0.1234034332
0.1234025904
0.1234017337
0.1234008628
0.1233999774
0.1233990773
0.1233981622
0.1233972314
0.1233962845
0.1233953209
0.1233943404
0.1233933424
0.1233923265
0.1233912926
0.1233902405
0.1233891705
0.1233880833
0.1233869811
0.1233858691
0.1233847445
0.1233836028
0.1233824415
0.123381258
0.1233800507
0.1233788183
0.1233775598
0.1233762744
0.123374961
0.1233736186
0.1233722466
0.1233708441
0.1233694101
0.1233679435
0.1233664434
0.1233649245
0.1233633803
0.1233617998
0.1233601815
0.123358524
0.1233568358
0.1233551924
0.1233535082
0.1233517817
0.1233500117
0.1233481965
0.1233463347
0.1233444246
0.1233424644
0.1233404514
0.1233383815
0.1233362537
0.123334067
0.1233318193
0.1233295084
0.1233271317
0.1233246866
0.1233221707
0.1233196045
0.1233169696
0.1233142541
0.1233114535
0.1233085635
0.1233055799
0.1233024979
0.1232993119
0.1232960184
0.1232926119
0.1232890894
0.1232854479
0.1232816792
0.1232777761
0.1232737318
0.1232695576
0.1232652525
0.1232607903
0.1232561647
0.123251366
0.1232463853
0.12324126
0.1232361753
0.1232309072
0.1232254543
0.123219818
0.1232140011
0.1232080426
0.12320194
0.1231956872
0.123189378
0.1231828176
0.1231761664
0.1231691048
0.1231619105
0.123154147
0.1231462209
0.1231375655
0.1231289879
0.1231197331
0.1231103403
0.1230999201
0.123089281
0.1230773055
0.1230649613
0.1230507522
0.1230356913
0.1230181204
0.1229995014
0.1229774616
0.1229537368
0.1229258057
0.1228965204
0.1228623424
0.1228253267
0.1227821056
0.1227361134
0.1226805679
0.1226197956
0.1225454375
0.1224613226
0.1223571924
0.122236006
0.1220807303
0.1218927735
0.1216389554
0.1213110107
0.1208365678
0.1201829286
0.1192071177
0.1175726398
0.1144690614
0.1088498139
0.1009537734
0.09222634164
0.08352813797
0.07521001412
0.06737096797
0.06002509592
0.05316913867
0.04681552031
0.04097979378
0.03567803621
0.03091914146
0.02669867984
0.02299856551
0.01978980225
0.0170317956
0.01467741001
0.01267811285
0.01098404369
0.009550186612
0.008335676181
0.007303884047
0.006427059222
0.005676930695
0.005028303357
0.004466448855
0.00397699064
0.003545688479
0.003164997869
0.002826488611
0.002522954692
0.002252318006
0.002010294165
0.001793038467
0.001597982194
0.001423593965
0.001268827919
0.001132117273
0.001011524662
0.0009050746911
0.0008109459157
0.0007275351499
0.0006534600827
0.0005875385023
0.0005287609167
0.0004762629369
0.0004293012398
0.0003872339365
0.0003495042964
0.0003156274789
0.00028517952
0.0002577885443
0.0002331273604
0.0002109073011
0.0001908730636
0.0001727983502
0.0001564821872
0.0001417457595
0.0001284297112
0.0001163918115
0.0001055049415
9.565534623e-05
8.674110984e-05
7.867082739e-05
7.136244043e-05
6.474221456e-05
5.87438398e-05
5.330763679e-05
4.837985574e-05
4.391205553e-05
3.986055245e-05
3.618593033e-05
3.285260554e-05
2.982843781e-05
2.708438463e-05
2.459419125e-05
2.233411381e-05
2.028267133e-05
1.842042353e-05
1.672977128e-05
1.519477774e-05
1.380100711e-05
1.253538013e-05
1.138604369e-05
1.034225358e-05
9.394268707e-06
8.533255771e-06
7.751203321e-06
7.040843988e-06
6.395584465e-06
5.809442107e-06
5.276987662e-06
4.793293481e-06
4.353886674e-06
3.954706688e-06
3.592066984e-06
3.26262022e-06
2.96332683e-06
2.691426486e-06
2.444412278e-06
2.220007288e-06
2.016143373e-06
1.830941899e-06
1.662696316e-06
1.509856306e-06
1.371013426e-06
1.244888078e-06
1.130317686e-06
1.026245958e-06
9.317131488e-07
8.458472115e-07
7.67855776e-07
6.97018851e-07
6.326822048e-07
5.742513536e-07
5.211861026e-07
4.72995584e-07
4.292337515e-07
3.894952861e-07
3.534118789e-07
3.206488576e-07
2.909021075e-07
2.638952925e-07
2.393773168e-07
2.171200201e-07
1.969160908e-07
1.785771565e-07
1.61932067e-07
1.468253122e-07
1.331156052e-07
1.206745771e-07
1.093856046e-07
9.914273397e-08
8.98497124e-08
8.141909321e-08
7.377144472e-08
6.68346083e-08
6.054304163e-08
5.483720936e-08
4.966303602e-08
4.497140785e-08
4.071772174e-08
3.68614678e-08
3.336585986e-08
3.01974925e-08
2.732603397e-08
2.472393879e-08
2.236620473e-08
2.023012374e-08
1.829508491e-08
1.654238341e-08
1.495502904e-08
1.351761051e-08
1.221613451e-08
1.103790281e-08
9.971392998e-09
9.006152784e-09
8.132689459e-09
7.342397219e-09
6.627465522e-09
5.98081272e-09
5.396013965e-09
4.867237908e-09
4.389202745e-09
3.957114271e-09
3.566626219e-09
3.213800358e-09
2.895068488e-09
2.607188574e-09
2.347225675e-09
2.112525457e-09
1.900674625e-09
1.709490921e-09
1.536996925e-09
1.38140127e-09
1.241077466e-09
1.114561054e-09
1.000521713e-09
8.977537526e-10
8.051704737e-10
7.217786256e-10
6.466866585e-10
5.790893522e-10
5.18256306e-10
4.635280745e-10
4.143033768e-10
3.70045085e-10
3.302614632e-10
2.945149701e-10
2.624040798e-10
2.335703675e-10
2.076883471e-10
1.844618613e-10
1.636265536e-10
1.449450123e-10
1.282003459e-10
1.131956341e-10
9.975716578e-11
8.77229584e-11
7.695457995e-11
6.732259009e-11
5.870621958e-11
5.100880148e-11
4.413296002e-11
3.799025192e-11
3.25079809e-11
2.761616e-11
2.325846809e-11
1.937385558e-11
1.591188916e-11
1.282955885e-11
1.008558574e-11
7.645007071e-12
5.476415675e-12
3.546579487e-12
1.835339734e-12
3.164162672e-13
0
0
0
0
0
0
0
0
0
0
0
0
0
0
0
0
0
0
0
0
0
0
0
0
0
0
0
0
0
0
0
0
0
0
0
0
0
0
0
0
0
0
0
0
0
0
0
0
0
0
0
0
0
0
0
0
0
0
0
0
0
0
0
0
0
0
0
0
0
0
0
0
0
0
0
0
0
0
0
0
0
0
0
0
0
0
0
0
0
0
0
0
0
0
0
0
0
0
0
0
0
0
0
0
0
0
0
0
0
0
0
0
0
0
0
0
0
0
0
0
0
0
0
0
0
0
0
0
0
0
0
0
0
0
0
0
0
0
0
0
0
0
0
0
0
0
0
0
0
0
0
0
0
0
0
0
0
0
0
0
0
0
0
0
0
0
0
0
0
0
0
0
0
0
0
0
0
0
0
0
0
0
0
0
0
0
0
0
0
0
0
0
0
0
0
0
0
0
0
0
0
0
0
0
0
0
0
0
0
0
0
0
0
0
0
0
0
0
0
0
0
0
0.1233803956
0.1233802813
0.1233800656
0.12337976
0.1233793751
0.1233789204
0.1233784045
0.1233778346
0.1233772175
0.1233765586
0.1233758628
0.1233751341
0.1233743761
0.1233735914
0.1233727826
0.1233719517
0.1233711002
0.1233702295
0.1233693404
0.1233684336
0.1233675099
0.1233665696
0.1233656132
0.1233646409
0.1233636528
0.1233626489
0.1233616319
0.1233606012
0.1233595541
0.1233584905
0.12335741
0.1233563123
0.123355197
0.1233540637
0.1233529116
0.1233517399
0.1233505488
0.1233493385
0.123348108
0.1233468565
0.1233455834
0.1233442878
0.1233429694
0.1233416275
0.1233402615
0.123338871
0.1233374556
0.1233360154
0.1233345508
0.1233330622
0.1233315503
0.1233300135
0.1233284748
0.1233269725
0.1233254407
0.1233238779
0.1233222828
0.1233206542
0.123318991
0.1233172921
0.1233155686
0.1233138093
0.1233120117
0.1233101743
0.1233082956
0.1233063742
0.123304409
0.1233023983
0.1233003405
0.1232982338
0.1232960763
0.1232938657
0.1232915994
0.1232892765
0.1232868955
0.1232844544
0.1232819512
0.1232793839
0.1232767504
0.1232740491
0.1232712773
0.1232684457
0.1232655418
0.1232625589
0.123259494
0.1232563438
0.1232531046
0.123249773
0.1232463449
0.1232428163
0.1232391828
0.1232354397
0.1232315798
0.1232275961
0.1232234849
0.1232192446
0.1232148918
0.1232103961
0.1232057507
0.1232009489
0.1231962434
0.123191392
0.1231863688
0.1231811642
0.1231757731
0.1231701877
0.1231643999
0.1231584195
0.1231522172
0.1231457827
0.123139106
0.1231321767
0.1231249893
0.1231175384
0.123109819
0.1231018266
0.1230935696
0.1230850447
0.1230762491
0.1230674342
0.1230585347
0.1230493227
0.1230396865
0.1230296387
0.1230190379
0.1230079279
0.1229961332
0.1229837072
0.1229704294
0.1229563805
0.122941784
0.122926403
0.1229096945
0.1228916929
0.1228718283
0.122850025
0.1228257385
0.1227994979
0.1227698872
0.1227370255
0.1227000655
0.122659934
0.1226144156
0.1225636201
0.1225066594
0.1224420571
0.1223683295
0.1222833201
0.1221835069
0.1220665124
0.1219254714
0.1217552132
0.1215431144
0.1212769951
0.1209305195
0.1204739592
0.1198499923
0.1189849755
0.1177245363
0.1157652076
0.1125926877
0.1077544203
0.1014301628
0.094275315
0.08683366709
0.07940971099
0.07216230989
0.06517007644
0.05848791248
0.05215899674
0.04623071932
0.04074301093
0.03572599894
0.03119528039
0.02715295089
0.02358535821
0.02046631268
0.01775941221
0.01542555822
0.01342437853
0.01170909388
0.01024340743
0.008983200954
0.007897863209
0.006959278629
0.006143439002
0.005432878683
0.004809331923
0.004263607827
0.003785034324
0.003363751623
0.002991724357
0.002662881509
0.002371576944
0.002113131431
0.001883876762
0.001680748073
0.001501010138
0.001342035231
0.001201318138
0.001076576397
0.0009658097356
0.0008672857025
0.0007795074019
0.0007011825566
0.0006311958505
0.0005685808977
0.0005124964631
0.0004622085744
0.0004170748194
0.0003765315897
0.0003400824435
0.0003072895518
0.0002777658944
0.0002511686786
0.0002271937486
0.0002055707531
0.0001860590939
0.000168444319
0.0001525350536
0.0001381603053
0.000125167128
0.0001134185824
0.0001027919368
9.317709715e-05
8.447522536e-05
7.659751822e-05
6.946413209e-05
6.300322865e-05
5.715013243e-05
5.184658287e-05
4.704006809e-05
4.268323266e-05
3.873335137e-05
3.51518573e-05
3.190392389e-05
2.895808883e-05
2.628591829e-05
2.386170631e-05
2.166220542e-05
1.966638485e-05
1.785521394e-05
1.621146662e-05
1.471954663e-05
1.336532972e-05
1.213602187e-05
1.102003156e-05
1.000685455e-05
9.086970333e-06
8.251748193e-06
7.49336301e-06
6.804718873e-06
6.179380222e-06
5.611509598e-06
5.095811399e-06
4.627480972e-06
4.2021587e-06
3.815888254e-06
3.465079014e-06
3.146471934e-06
2.857108678e-06
2.594303653e-06
2.355618699e-06
2.138840104e-06
1.941957863e-06
1.763146789e-06
1.600749445e-06
1.453260648e-06
1.319313425e-06
1.197666259e-06
1.087191558e-06
9.868651291e-07
8.957567091e-07
8.130212995e-07
7.378913402e-07
6.696696024e-07
6.077227312e-07
5.514753819e-07
5.004049028e-07
4.540365076e-07
4.119388816e-07
3.737202064e-07
3.390245387e-07
3.075285289e-07
2.789384299e-07
2.529874007e-07
2.294330317e-07
2.080551124e-07
1.88653608e-07
1.710468043e-07
1.550696348e-07
1.40572162e-07
1.274181897e-07
1.154840042e-07
1.046572376e-07
9.483582527e-08
8.59270687e-08
7.784677172e-08
7.05184686e-08
6.387271409e-08
5.784644149e-08
5.23823765e-08
4.74285104e-08
4.293761616e-08
3.886681279e-08
3.517716287e-08
3.183331627e-08
2.880317479e-08
2.605760444e-08
2.35701513e-08
2.131680151e-08
1.92757655e-08
1.742725585e-08
1.575331972e-08
1.423766615e-08
1.286550126e-08
1.162341469e-08
1.049922569e-08
9.481890236e-09
8.561383577e-09
7.728619404e-09
6.975348274e-09
6.294087099e-09
5.678055606e-09
5.121100526e-09
4.617643966e-09
4.162626338e-09
3.751464322e-09
3.379998625e-09
3.044460845e-09
2.741435298e-09
2.467829505e-09
2.220837463e-09
1.99791774e-09
1.796767598e-09
1.615302926e-09
1.451630858e-09
1.304044255e-09
1.170995462e-09
1.051081621e-09
9.430350509e-10
8.457038204e-10
7.58047859e-10
6.791281183e-10
6.080954374e-10
5.441807327e-10
4.866833742e-10
4.349794465e-10
3.884973445e-10
3.467219305e-10
3.091893424e-10
2.754815475e-10
2.452172453e-10
2.180551023e-10
1.936837341e-10
1.718259992e-10
1.522319748e-10
1.3466923e-10
1.189373907e-10
1.048478322e-10
9.223600276e-11
8.095201983e-11
7.085726049e-11
6.18358881e-11
5.377369149e-11
4.65720925e-11
4.01441102e-11
3.440729346e-11
2.929296454e-11
2.473120175e-11
2.066689244e-11
1.704689818e-11
1.382537849e-11
1.09596358e-11
8.41087668e-12
6.14334969e-12
4.13106534e-12
2.345885256e-12
7.627379879e-13
0
0
0
0
0
0
0
0
0
0
0
0
0
0
0
0
0
0
0
0
0
0
0
0
0
0
0
0
0
0
0
0
0
0
0
0
0
0
0
0
0
0
0
0
0
0
0
0
0
0
0
0
0
0
0
0
0
0
0
0
0
0
0
0
0
0
0
0
0
0
0
0
0
0
0
0
0
0
0
0
0
0
0
0
0
0
0
0
0
0
0
0
0
0
0
0
0
0
0
0
0
0
0
0
0
0
0
0
0
0
0
0
0
0
0
0
0
0
0
0
0
0
0
0
0
0
0
0
0
0
0
0
0
0
0
0
0
0
0
0
0
0
0
0
0
0
0
0
0
0
0
0
0
0
0
0
0
0
0
0
0
0
0
0
0
0
0
0
0
0
0
0
0
0
0
0
0
0
0
0
0
0
0
0
0
0
0
0
0
0
0
0
0
0
0
0
0
0
0
0
0
0
0
0
0
0
0
0
0
0
0
0
0
0
0
0
0
0
0
0
0
0.1233420587
0.1233419154
0.1233416458
0.1233412647
0.1233407855
0.1233402202
0.1233395794
0.1233388722
0.1233381068
0.12333729
0.1233364277
0.1233355251
0.1233345862
0.1233336144
0.1233326128
0.1233315838
0.1233305298
0.1233294519
0.1233283512
0.1233272286
0.1233260848
0.1233249203
0.1233237357
0.1233225316
0.123321308
0.1233200646
0.1233188009
0.1233175168
0.1233162121
0.1233148867
0.1233135401
0.123312172
0.1233107818
0.123309369
0.1233079329
0.1233064772
0.1233049975
0.1233035681
0.1233021342
0.1233006759
0.1232991926
0.1232976835
0.123296148
0.1232945854
0.123292995
0.1232913759
0.1232897271
0.1232880491
0.1232863415
0.1232846043
0.1232828367
0.1232810375
0.1232792044
0.1232773353
0.1232754291
0.1232734841
0.1232714989
0.1232694722
0.1232674028
0.1232652893
0.1232631304
0.1232609266
0.1232586772
0.1232563782
0.1232540278
0.1232516239
0.1232491635
0.1232466457
0.1232440692
0.123241432
0.123238732
0.1232359666
0.1232331334
0.1232302303
0.1232272552
0.1232242058
0.1232210796
0.1232178738
0.1232145857
0.1232112105
0.1232077453
0.12320419
0.1232005405
0.1231967924
0.1231929426
0.1231889862
0.1231849185
0.1231807348
0.1231764302
0.1231719998
0.1231674381
0.1231628823
0.1231582954
0.1231535645
0.1231486859
0.1231436538
0.123138462
0.1231331023
0.1231275665
0.1231218457
0.1231159294
0.1231098082
0.1231034688
0.1230968888
0.1230900772
0.1230830233
0.1230757148
0.1230681386
0.1230602837
0.1230521363
0.1230436843
0.1230348899
0.1230257629
0.1230165512
0.1230072676
0.1229976496
0.1229876862
0.1229773726
0.1229666828
0.1229555775
0.1229440371
0.122932018
0.1229194444
0.1229062664
0.122892394
0.1228780352
0.1228631661
0.1228474168
0.1228306541
0.1228127994
0.1227936759
0.1227730987
0.1227507797
0.1227274885
0.1227020541
0.1226740357
0.1226428433
0.1226083823
0.1225709637
0.1225292092
0.1224825097
0.122430897
0.1223733142
0.1223083719
0.1222356291
0.1221526148
0.1220581073
0.1219486292
0.1218205713
0.121669547
0.1214891533
0.1212716288
0.1210041528
0.1206725398
0.120253796
0.1197182087
0.1190219048
0.1180987446
0.116830043
0.1150072736
0.1123340123
0.1085489843
0.1036803758
0.09799037448
0.09179265466
0.0853200738
0.07873949993
0.07217342466
0.06571048576
0.0594410025
0.05343650391
0.04775833482
0.0424608651
0.03757998987
0.03313803934
0.02914015231
0.02557566719
0.02242991553
0.01966972695
0.01725771336
0.01515700698
0.01332564571
0.01172493556
0.01032656814
0.009106063394
0.008041479504
0.007111557176
0.006297819623
0.005584344177
0.004957887741
0.004406452035
0.003920030202
0.003490578856
0.00311093216
0.002774794765
0.002477127234
0.002213433015
0.001979651113
0.001772199755
0.001587932907
0.001424021731
0.001278033227
0.00114786246
0.001031665674
0.000927828124
0.0008349437512
0.0007517830564
0.0006772636162
0.0006104336961
0.0005504543031
0.0004965865527
0.0004481751516
0.0004046401891
0.0003654674741
0.0003302004259
0.000298433156
0.0002698041796
0.0002439915089
0.0002207078967
0.0001996968854
0.0001807292662
0.0001636000007
0.0001481255566
0.0001341414875
0.0001215003465
0.0001100698384
9.973117611e-05
9.037764172e-05
8.191329356e-05
7.425183095e-05
6.731558711e-05
6.103462538e-05
5.534593981e-05
5.019274218e-05
4.552382304e-05
4.129298809e-05
3.745854912e-05
3.398286992e-05
3.083196026e-05
2.797511246e-05
2.538457547e-05
2.303526336e-05
2.090449162e-05
1.897174236e-05
1.721845235e-05
1.562782279e-05
1.418464817e-05
1.287516185e-05
1.168689794e-05
1.060856543e-05
9.629936173e-06
8.741743e-06
7.935588106e-06
7.203860296e-06
6.539660324e-06
5.936733339e-06
5.389408169e-06
4.892541941e-06
4.441470523e-06
4.03196341e-06
3.660183021e-06
3.322647864e-06
3.016199219e-06
2.737970919e-06
2.485362101e-06
2.256012429e-06
2.047779719e-06
1.858719635e-06
1.687067319e-06
1.531220719e-06
1.38972552e-06
1.261261406e-06
1.144629725e-06
1.038742181e-06
9.42610659e-07
8.553379687e-07
7.76109451e-07
7.041853742e-07
6.388940066e-07
5.796253748e-07
5.258255572e-07
4.769915385e-07
4.32666517e-07
3.924356586e-07
3.559222333e-07
3.227841214e-07
2.927106245e-07
2.654195816e-07
2.406547515e-07
2.181834324e-07
1.977942958e-07
1.792954262e-07
1.625125485e-07
1.472873935e-07
1.334762416e-07
1.20948581e-07
1.095859006e-07
9.92805852e-08
8.993491636e-08
8.146016495e-08
7.377576793e-08
6.680857728e-08
6.049217501e-08
5.476626563e-08
4.957610747e-08
4.487200257e-08
4.060883586e-08
3.674565039e-08
3.324527549e-08
3.007396497e-08
2.720109162e-08
2.459885842e-08
2.22420357e-08
2.010773198e-08
1.817517054e-08
1.642550071e-08
1.484161917e-08
1.34080028e-08
1.211057303e-08
1.093655554e-08
9.874366502e-09
8.913495178e-09
8.044408727e-09
7.25846404e-09
6.547820652e-09
5.905370992e-09
5.324672417e-09
4.799880657e-09
4.325696086e-09
3.897319649e-09
3.510398824e-09
3.160992123e-09
2.845525664e-09
2.56075979e-09
2.303761089e-09
2.071873483e-09
1.86268975e-09
1.674029144e-09
1.503916771e-09
1.350569178e-09
1.212367561e-09
1.087846085e-09
9.756817815e-10
8.74675402e-10
7.837394533e-10
7.018975568e-10
6.282555124e-10
5.620148241e-10
5.024505082e-10
4.489027529e-10
4.007822935e-10
3.575516371e-10
3.187265692e-10
2.838690881e-10
2.525878334e-10
2.245234213e-10
1.99354959e-10
1.767908484e-10
1.56571234e-10
1.384575659e-10
1.222400284e-10
1.077230617e-10
9.473379902e-11
8.31179858e-11
7.273428501e-11
6.345747969e-11
5.517327546e-11
4.777737389e-11
4.117854122e-11
3.529143781e-11
3.004446172e-11
2.53711005e-11
2.121019816e-11
1.750652165e-11
1.421003987e-11
1.128068671e-11
8.676505249e-12
6.365382402e-12
4.314021719e-12
2.495058299e-12
8.818277612e-13
0
0
0
0
0
0
0
0
0
0
0
0
0
0