/*--------------------------------*- C++ -*----------------------------------*\
| =========                 |                                                 |
| \\      /  F ield         | OpenFOAM: The Open Source CFD Toolbox           |
|  \\    /   O peration     | Version:  v2006                                 |
|   \\  /    A nd           | Website:  www.openfoam.com                      |
|    \\/     M anipulation  |                                                 |
\*---------------------------------------------------------------------------*/
FoamFile
{
    version     2.0;
    format      ascii;
    class       volScalarField;
    location    "0.1";
    object      H2O2;
}
// * * * * * * * * * * * * * * * * * * * * * * * * * * * * * * * * * * * * * //

dimensions      [0 0 0 0 0 0 0];


internalField   nonuniform List<scalar> 
72000
(
1.228942591e-06
1.22893041e-06
1.2289066e-06
1.228872128e-06
1.228828086e-06
1.228775562e-06
1.228715616e-06
1.228649198e-06
1.228577176e-06
1.228500301e-06
1.22841925e-06
1.228334585e-06
1.228246785e-06
1.228156265e-06
1.228063362e-06
1.22796836e-06
1.227871496e-06
1.227772945e-06
1.22767285e-06
1.22757133e-06
1.227468457e-06
1.227364322e-06
1.227258942e-06
1.227152343e-06
1.227044534e-06
1.226935541e-06
1.226825374e-06
1.226713996e-06
1.226601364e-06
1.22648742e-06
1.226372112e-06
1.22625539e-06
1.226137209e-06
1.226017535e-06
1.22589631e-06
1.225773473e-06
1.225648962e-06
1.225522719e-06
1.225394665e-06
1.225264735e-06
1.225132864e-06
1.224998982e-06
1.224863027e-06
1.224724918e-06
1.224584584e-06
1.224441947e-06
1.224296925e-06
1.224149416e-06
1.223999323e-06
1.223846541e-06
1.223691683e-06
1.223534379e-06
1.223374156e-06
1.22321095e-06
1.223044693e-06
1.222875316e-06
1.222702751e-06
1.222526908e-06
1.222347706e-06
1.222165078e-06
1.221978936e-06
1.221789172e-06
1.221595658e-06
1.22139828e-06
1.221196942e-06
1.220984898e-06
1.220710091e-06
1.220429711e-06
1.220143535e-06
1.219851367e-06
1.219553033e-06
1.219248316e-06
1.218937017e-06
1.218618985e-06
1.218294043e-06
1.217962024e-06
1.21762266e-06
1.217275816e-06
1.216921297e-06
1.216558907e-06
1.216188494e-06
1.215809783e-06
1.215422534e-06
1.215026428e-06
1.214621176e-06
1.214206471e-06
1.213782071e-06
1.213347757e-06
1.212904035e-06
1.212450175e-06
1.211985699e-06
1.211510237e-06
1.211023465e-06
1.210525172e-06
1.210014979e-06
1.209492678e-06
1.208957923e-06
1.2084104e-06
1.207849596e-06
1.207275319e-06
1.20668734e-06
1.20608545e-06
1.205469509e-06
1.204839435e-06
1.204195181e-06
1.203536771e-06
1.202864236e-06
1.202177846e-06
1.20147825e-06
1.200766721e-06
1.200043664e-06
1.199310555e-06
1.198569807e-06
1.197825443e-06
1.197028914e-06
1.196198499e-06
1.195063493e-06
1.195683289e-06
1.190383459e-06
1.198477768e-06
1.189108666e-06
1.202158053e-06
1.18806953e-06
1.206475022e-06
1.187117835e-06
1.21116862e-06
1.186161624e-06
1.216384692e-06
1.185227876e-06
1.222455047e-06
1.184261403e-06
1.229666647e-06
1.183253546e-06
1.239008051e-06
1.181989159e-06
1.256666695e-06
1.179451101e-06
1.258313895e-06
1.174703531e-06
1.256278248e-06
1.168311406e-06
1.253225406e-06
1.160502312e-06
1.249179228e-06
1.151157706e-06
1.243867399e-06
1.139490687e-06
1.236009299e-06
1.120658448e-06
1.227129293e-06
1.092418745e-06
1.20091112e-06
1.048709953e-06
1.177699275e-06
9.783301254e-07
1.082832619e-06
8.576982468e-07
7.734140013e-07
6.807098223e-07
8.682589012e-07
4.256340034e-07
1.226380968e-05
1.692238669e-05
1.75587971e-05
1.87001684e-05
1.944315139e-05
1.940437813e-05
1.874304024e-05
1.76413323e-05
1.625576111e-05
1.469511001e-05
1.309771479e-05
1.157201727e-05
1.014179987e-05
8.818509668e-06
7.671666063e-06
6.675135881e-06
5.803751168e-06
5.046277674e-06
4.4068372e-06
3.858790626e-06
3.390616781e-06
2.987294234e-06
2.643085789e-06
2.34275587e-06
2.082786829e-06
1.857584082e-06
1.662114377e-06
1.491972048e-06
1.342344057e-06
1.211158537e-06
1.096405864e-06
9.931045704e-07
8.995268382e-07
8.14130024e-07
7.33307855e-07
6.537991428e-07
5.807813457e-07
5.156755716e-07
4.583570169e-07
4.081105305e-07
3.640657775e-07
3.253812429e-07
2.913097541e-07
2.612116079e-07
2.345469507e-07
2.108617332e-07
1.897732496e-07
1.70957404e-07
1.541381607e-07
1.390790302e-07
1.255762604e-07
1.134534007e-07
1.025569317e-07
9.275272754e-08
8.392316954e-08
7.596477295e-08
6.878621924e-08
6.230671172e-08
5.645459313e-08
5.116617543e-08
4.638474396e-08
4.205970526e-08
3.814585459e-08
3.460274366e-08
3.139413257e-08
2.8487513e-08
2.585369211e-08
2.34664282e-08
2.130211079e-08
1.933947906e-08
1.755937329e-08
1.594451507e-08
1.447931247e-08
1.314968709e-08
1.194292019e-08
1.084751557e-08
9.853077262e-09
8.950200189e-09
8.130372387e-09
7.385887378e-09
6.709765609e-09
6.095683934e-09
5.537912241e-09
5.03125648e-09
4.571007367e-09
4.152894196e-09
3.773043202e-09
3.427939999e-09
3.114395697e-09
2.829516284e-09
2.570674977e-09
2.335487224e-09
2.121788091e-09
1.927611814e-09
1.751173284e-09
1.590851287e-09
1.445173328e-09
1.312801871e-09
1.192521887e-09
1.083229549e-09
9.839220023e-10
8.936880698e-10
8.116998271e-10
7.372049703e-10
6.695198733e-10
6.08023302e-10
5.521506974e-10
5.013889968e-10
4.552719198e-10
4.133756963e-10
3.753151867e-10
3.407403516e-10
3.09333055e-10
2.808041506e-10
2.548908364e-10
2.313542605e-10
2.099773344e-10
1.905627506e-10
1.729311827e-10
1.569196453e-10
1.423800108e-10
1.291776502e-10
1.171902115e-10
1.063064959e-10
9.642545003e-11
8.745523387e-11
7.931238617e-11
7.192106476e-11
6.521234827e-11
5.912360849e-11
5.359793442e-11
4.8583617e-11
4.403367173e-11
3.990540949e-11
3.616004331e-11
3.276233385e-11
2.968026876e-11
2.68847649e-11
2.434940295e-11
2.205018293e-11
1.996530457e-11
1.807496849e-11
1.636119207e-11
1.480764082e-11
1.339948343e-11
1.212324831e-11
1.096670442e-11
9.918746455e-12
8.969289836e-12
8.109177906e-12
7.330100968e-12
6.624512594e-12
5.98556505e-12
5.407040025e-12
4.883295939e-12
4.409210969e-12
3.980140847e-12
3.591868741e-12
3.240568809e-12
2.922769951e-12
2.635322868e-12
2.375374069e-12
2.140329772e-12
1.927842385e-12
1.735782091e-12
1.562215009e-12
1.405393304e-12
1.263725934e-12
1.13577536e-12
1.020236774e-12
9.159274099e-13
8.217752312e-13
7.368112532e-13
6.601566935e-13
5.910133533e-13
5.286582695e-13
4.724403751e-13
4.217686757e-13
3.761076257e-13
3.349723593e-13
2.979239457e-13
2.645645457e-13
2.345351891e-13
2.075126951e-13
1.83202456e-13
1.613380369e-13
1.416801153e-13
1.240112357e-13
1.081342092e-13
9.387376636e-14
8.106987373e-14
6.95777543e-14
5.92659638e-14
5.001684588e-14
4.172369688e-14
3.428926738e-14
2.762895776e-14
2.166317405e-14
1.632182899e-14
1.154043814e-14
7.265889116e-15
3.442927668e-15
2.753074914e-17
0
0
0
0
0
0
0
0
0
0
0
0
0
0
0
0
0
0
0
0
0
0
0
0
0
0
0
0
0
0
0
0
0
0
0
0
0
0
0
0
0
0
0
0
0
0
0
0
0
0
0
0
0
0
0
0
0
0
0
0
0
0
0
0
0
0
0
0
0
0
0
0
0
0
0
0
0
0
0
0
0
0
0
0
0
0
0
0
0
0
0
0
0
0
0
0
0
0
0
0
0
0
0
0
0
0
0
0
0
0
0
0
0
0
0
0
0
0
0
0
0
0
0
0
0
0
0
0
0
0
0
0
0
0
0
0
0
0
0
0
0
0
0
0
0
0
0
0
0
0
0
0
0
0
0
0
0
0
0
0
0
0
0
0
0
0
0
0
0
0
0
0
0
0
0
0
0
0
0
0
0
0
0
0
0
0
0
0
0
0
0
0
0
0
0
0
0
0
0
0
0
0
0
0
0
0
0
0
0
0
0
0
0
0
0
0
0
0
0
0
0
0
0
0
0
0
0
0
0
0
0
0
0
0
0
0
1.299364662e-06
1.299440641e-06
1.299584404e-06
1.299788049e-06
1.300044461e-06
1.300347449e-06
1.300691554e-06
1.301072155e-06
1.30148526e-06
1.301927508e-06
1.302395982e-06
1.302888296e-06
1.303402471e-06
1.30393682e-06
1.304489974e-06
1.305060781e-06
1.305648273e-06
1.306251774e-06
1.306870734e-06
1.307504689e-06
1.308153284e-06
1.3088162e-06
1.309493144e-06
1.310183929e-06
1.310888514e-06
1.311606884e-06
1.312339152e-06
1.313085437e-06
1.313845841e-06
1.314620552e-06
1.315409809e-06
1.316213896e-06
1.317033128e-06
1.317867835e-06
1.31871844e-06
1.319585265e-06
1.320468453e-06
1.321368136e-06
1.322284713e-06
1.323218716e-06
1.324170646e-06
1.325140963e-06
1.326130066e-06
1.327138321e-06
1.328165957e-06
1.329213002e-06
1.330279043e-06
1.331362992e-06
1.332462558e-06
1.333573504e-06
1.334612508e-06
1.335613642e-06
1.33662651e-06
1.337655621e-06
1.338704475e-06
1.33977549e-06
1.340870324e-06
1.341990288e-06
1.343136524e-06
1.344310136e-06
1.345512177e-06
1.346743402e-06
1.348004681e-06
1.349296851e-06
1.350620668e-06
1.351976272e-06
1.353363598e-06
1.354787695e-06
1.356249208e-06
1.35774938e-06
1.359289243e-06
1.360868815e-06
1.36248608e-06
1.364146771e-06
1.365853713e-06
1.367608943e-06
1.369414561e-06
1.371272401e-06
1.373184754e-06
1.375154519e-06
1.377185239e-06
1.379280931e-06
1.381443573e-06
1.383674971e-06
1.385977325e-06
1.38835357e-06
1.39080655e-06
1.393339199e-06
1.395731507e-06
1.398184229e-06
1.400724326e-06
1.403356982e-06
1.406088367e-06
1.408924623e-06
1.411872113e-06
1.414937206e-06
1.41812682e-06
1.421446307e-06
1.425060056e-06
1.428831669e-06
1.432764346e-06
1.436869363e-06
1.441158764e-06
1.445643845e-06
1.450335803e-06
1.455246185e-06
1.460387806e-06
1.465774642e-06
1.471344144e-06
1.476836976e-06
1.482610119e-06
1.488676559e-06
1.49505792e-06
1.50176377e-06
1.508778787e-06
1.516101731e-06
1.523836898e-06
1.531747229e-06
1.540832425e-06
1.54804942e-06
1.55854829e-06
1.56561563e-06
1.577860632e-06
1.585033724e-06
1.599372821e-06
1.60681427e-06
1.62377828e-06
1.632058319e-06
1.652399029e-06
1.6608811e-06
1.684259934e-06
1.693147008e-06
1.7201453e-06
1.729286472e-06
1.76061976e-06
1.76976549e-06
1.810328189e-06
1.825376585e-06
1.875825508e-06
1.899746401e-06
1.963570041e-06
1.995603683e-06
2.079310077e-06
2.12286006e-06
2.235353781e-06
2.286211439e-06
2.42829914e-06
2.506598616e-06
2.706549242e-06
2.826103437e-06
3.110927422e-06
3.288108155e-06
3.702669463e-06
3.942665894e-06
4.538924369e-06
4.875750998e-06
5.727714791e-06
6.23027743e-06
6.682827609e-06
7.157854617e-06
8.272956653e-06
1.023049809e-05
1.27409846e-05
1.488858296e-05
1.669623523e-05
1.763623525e-05
1.778632598e-05
1.733210656e-05
1.644635843e-05
1.527536962e-05
1.392830731e-05
1.254300888e-05
1.117807947e-05
9.866237647e-06
8.663276825e-06
7.592132472e-06
6.632234759e-06
5.794413359e-06
5.064298772e-06
4.443613164e-06
3.905050596e-06
3.43390246e-06
3.032880313e-06
2.690902599e-06
2.397834796e-06
2.137945105e-06
1.907178193e-06
1.708606368e-06
1.533737808e-06
1.379045235e-06
1.242100551e-06
1.120062302e-06
1.009348574e-06
9.084849609e-07
8.152289271e-07
7.287654206e-07
6.493335874e-07
5.778716348e-07
5.144915574e-07
4.586420154e-07
4.095078236e-07
3.662408453e-07
3.280597081e-07
2.942810993e-07
2.643207583e-07
2.376830792e-07
2.139477915e-07
1.927573267e-07
1.7380602e-07
1.568312029e-07
1.416059866e-07
1.279334294e-07
1.156418492e-07
1.045809959e-07
9.46189153e-08
8.563935986e-08
7.753963351e-08
7.022878759e-08
6.362609571e-08
5.765976122e-08
5.226581246e-08
4.738715602e-08
4.297276073e-08
3.897695146e-08
3.535879609e-08
3.208157121e-08
2.911229508e-08
2.642131815e-08
2.398196301e-08
2.17702073e-08
1.976440343e-08
1.794503061e-08
1.629447481e-08
1.479683346e-08
1.343774138e-08
1.220421589e-08
1.108451842e-08
1.006803084e-08
9.145144742e-09
8.307162377e-09
7.546207666e-09
6.85514644e-09
6.227514674e-09
5.65745402e-09
5.139653765e-09
4.66929856e-09
4.242021309e-09
3.853860683e-09
3.501222796e-09
3.180846579e-09
2.889772519e-09
2.625314406e-09
2.385033775e-09
2.166716794e-09
1.968353355e-09
1.788118138e-09
1.624353475e-09
1.475553811e-09
1.340351645e-09
1.217504781e-09
1.105884767e-09
1.004466423e-09
9.123183334e-10
8.285942296e-10
7.525251778e-10
6.83412476e-10
6.206212244e-10
5.635744741e-10
5.117479297e-10
4.646651289e-10
4.218930687e-10
3.830382396e-10
3.47743013e-10
3.15682372e-10
2.865609291e-10
2.60110225e-10
2.360862779e-10
2.14267346e-10
1.94451904e-10
1.764567975e-10
1.601155711e-10
1.452769505e-10
1.318034518e-10
1.195701352e-10
1.08463453e-10
9.838022094e-11
8.922666876e-11
8.091758213e-11
7.337552983e-11
6.653014691e-11
6.031749841e-11
5.467948847e-11
4.956332961e-11
4.492106143e-11
4.070911037e-11
3.688788427e-11
3.342141633e-11
3.027703228e-11
2.742504969e-11
2.483850523e-11
2.249290446e-11
2.036599996e-11
1.843758712e-11
1.668931426e-11
1.510451227e-11
1.366804668e-11
1.236617235e-11
1.118640749e-11
1.011742127e-11
9.148923574e-12
8.271571585e-12
7.476887819e-12
6.757170714e-12
6.105435607e-12
5.515337134e-12
4.981119935e-12
4.497560694e-12
4.059918956e-12
3.663893837e-12
3.305581261e-12
2.981439769e-12
2.688260101e-12
2.423128236e-12
2.183398259e-12
1.966677613e-12
1.770791561e-12
1.593769049e-12
1.433824546e-12
1.289338247e-12
1.158841941e-12
1.041004225e-12
9.346208759e-13
8.385986299e-13
7.519460465e-13
6.737680433e-13
6.032505221e-13
5.396578241e-13
4.823241329e-13
4.306473455e-13
3.840808451e-13
3.42130197e-13
3.04346353e-13
2.7032507e-13
2.397016642e-13
2.121426288e-13
1.873510239e-13
1.650549525e-13
1.450074532e-13
1.269891483e-13
1.107990198e-13
9.625661308e-14
8.320038928e-14
7.148068343e-14
6.096519951e-14
5.153201601e-14
4.307503167e-14
3.549449449e-14
2.870324434e-14
2.262026457e-14
1.717305555e-14
1.229974243e-14
7.940525886e-15
4.041794666e-15
5.597984294e-16
0
0
0
0
0
0
0
0
0
0
0
0
0
0
0
0
0
0
0
0
0
0
0
0
0
0
0
0
0
0
0
0
0
0
0
0
0
0
0
0
0
0
0
0
0
0
0
0
0
0
0
0
0
0
0
0
0
0
0
0
0
0
0
0
0
0
0
0
0
0
0
0
0
0
0
0
0
0
0
0
0
0
0
0
0
0
0
0
0
0
0
0
0
0
0
0
0
0
0
0
0
0
0
0
0
0
0
0
0
0
0
0
0
0
0
0
0
0
0
0
0
0
0
0
0
0
0
0
0
0
0
0
0
0
0
0
0
0
0
0
0
0
0
0
0
0
0
0
0
0
0
0
0
0
0
0
0
0
0
0
0
0
0
0
0
0
0
0
0
0
0
0
0
0
0
0
0
0
0
0
0
0
0
0
0
0
0
0
0
0
0
0
0
0
0
0
0
0
0
0
0
0
0
0
0
0
0
0
0
0
0
0
0
0
0
0
0
0
0
0
0
0
0
0
0
0
0
0
0
0
0
0
0
0
0
0
1.271214076e-06
1.271326813e-06
1.271539241e-06
1.271839319e-06
1.272216495e-06
1.272661647e-06
1.273166935e-06
1.273725649e-06
1.274332082e-06
1.274981393e-06
1.275669511e-06
1.27639304e-06
1.277149176e-06
1.277935574e-06
1.278750284e-06
1.279591659e-06
1.280458388e-06
1.281349489e-06
1.282264203e-06
1.283201909e-06
1.284162056e-06
1.28514416e-06
1.28614778e-06
1.287172577e-06
1.28821841e-06
1.289285246e-06
1.290314392e-06
1.291320029e-06
1.292345461e-06
1.293390916e-06
1.294456646e-06
1.295542975e-06
1.296650309e-06
1.297779155e-06
1.298930129e-06
1.300103731e-06
1.301299831e-06
1.302518311e-06
1.303759707e-06
1.305024802e-06
1.306314291e-06
1.307628756e-06
1.308968705e-06
1.310334562e-06
1.311726635e-06
1.313144967e-06
1.314588982e-06
1.316057102e-06
1.317546161e-06
1.319049644e-06
1.320552006e-06
1.322059765e-06
1.323585393e-06
1.325134314e-06
1.326713192e-06
1.32832566e-06
1.329974125e-06
1.33166041e-06
1.333386145e-06
1.335153097e-06
1.336963848e-06
1.338818665e-06
1.340718535e-06
1.342664919e-06
1.344659336e-06
1.346703174e-06
1.34868643e-06
1.35064719e-06
1.352658781e-06
1.354723471e-06
1.356843517e-06
1.359047224e-06
1.361542657e-06
1.364109381e-06
1.366750145e-06
1.369467795e-06
1.372265308e-06
1.375145863e-06
1.378112942e-06
1.381170822e-06
1.384326138e-06
1.387591339e-06
1.390965865e-06
1.394450402e-06
1.398048589e-06
1.401765249e-06
1.405605631e-06
1.409574837e-06
1.413677092e-06
1.417668541e-06
1.421711592e-06
1.425902382e-06
1.430252175e-06
1.434771712e-06
1.439470404e-06
1.444360171e-06
1.449456938e-06
1.454765611e-06
1.460299682e-06
1.46606493e-06
1.472067275e-06
1.478329021e-06
1.484870114e-06
1.491708177e-06
1.498628454e-06
1.505586271e-06
1.512868317e-06
1.520494956e-06
1.528493519e-06
1.536892104e-06
1.54588474e-06
1.556243383e-06
1.567136644e-06
1.578594281e-06
1.590646304e-06
1.603331438e-06
1.616270693e-06
1.629695536e-06
1.64387531e-06
1.658736737e-06
1.674551164e-06
1.691065703e-06
1.708761125e-06
1.727212013e-06
1.747096134e-06
1.767818213e-06
1.790272977e-06
1.81470548e-06
1.84210468e-06
1.870015774e-06
1.900136591e-06
1.931432114e-06
1.965668051e-06
2.001333761e-06
2.040648086e-06
2.081992983e-06
2.130685198e-06
2.181866255e-06
2.238522418e-06
2.299372152e-06
2.368739999e-06
2.442573963e-06
2.528546307e-06
2.619411089e-06
2.722555403e-06
2.83230148e-06
2.95598195e-06
3.090200396e-06
3.244563059e-06
3.405676423e-06
3.589677078e-06
3.776534415e-06
3.983098257e-06
4.180846656e-06
4.392587102e-06
4.575014649e-06
4.76625429e-06
4.908413785e-06
5.052180208e-06
5.238017934e-06
5.802727354e-06
7.424119069e-06
9.745451674e-06
1.221277104e-05
1.42049512e-05
1.542331282e-05
1.592337925e-05
1.584170126e-05
1.531007176e-05
1.446132949e-05
1.341756225e-05
1.227426218e-05
1.109887382e-05
9.944672991e-06
8.856152166e-06
7.846685932e-06
6.928053738e-06
6.108477949e-06
5.387598266e-06
4.745220074e-06
4.194568548e-06
3.712212974e-06
3.296241741e-06
2.940080565e-06
2.619972982e-06
2.33714306e-06
2.09089808e-06
1.87792489e-06
1.689030307e-06
1.520572376e-06
1.360337135e-06
1.216156249e-06
1.087223889e-06
9.716244568e-07
8.67615308e-07
7.740410123e-07
6.90225167e-07
6.157117179e-07
5.497870236e-07
4.915516322e-07
4.400801646e-07
3.945146861e-07
3.540970007e-07
3.181711903e-07
2.861746762e-07
2.576258594e-07
2.321114284e-07
2.092752275e-07
1.888091297e-07
1.704454367e-07
1.539506623e-07
1.391203537e-07
1.257749529e-07
1.137562985e-07
1.029247085e-07
9.315653064e-08
8.434206915e-08
7.63838299e-08
6.919500855e-08
6.26981991e-08
5.682427528e-08
5.151142413e-08
4.670430564e-08
4.235331899e-08
3.841396217e-08
3.484627022e-08
3.161432136e-08
2.868580198e-08
2.603162247e-08
2.362557766e-08
2.144404587e-08
1.946572146e-08
1.767137711e-08
1.604365249e-08
1.456686517e-08
1.322684258e-08
1.201077126e-08
1.090706206e-08
9.905229499e-09
8.995783486e-09
8.170132182e-09
7.420494809e-09
6.739823094e-09
6.12173079e-09
5.560430131e-09
5.050674622e-09
4.587707471e-09
4.167215059e-09
3.785285022e-09
3.438368297e-09
3.12324495e-09
2.836993233e-09
2.576961628e-09
2.340743569e-09
2.126154564e-09
1.931211493e-09
1.75411389e-09
1.593226945e-09
1.44706616e-09
1.314283416e-09
1.193654356e-09
1.084066957e-09
9.845111553e-10
8.940694488e-10
8.119083786e-10
7.372707915e-10
6.694688261e-10
6.078775503e-10
5.519291845e-10
5.01107859e-10
4.549448592e-10
4.130142999e-10
3.749292114e-10
3.403379729e-10
3.089210806e-10
2.803882106e-10
2.544755534e-10
2.3094339e-10
2.095738916e-10
1.901691198e-10
1.72549211e-10
1.56550729e-10
1.42025161e-10
1.288375606e-10
1.168653077e-10
1.05996983e-10
9.613134924e-11
8.7176418e-11
7.904861144e-11
7.167198972e-11
6.497755866e-11
5.890263283e-11
5.339026245e-11
4.838870833e-11
4.385096846e-11
3.97343413e-11
3.600003924e-11
3.261282635e-11
2.954069764e-11
2.675458148e-11
2.422807245e-11
2.193718803e-11
1.986014834e-11
1.797717229e-11
1.627029717e-11
1.472321111e-11
1.332110314e-11
1.20505229e-11
1.089926187e-11
9.856231843e-12
8.911368639e-12
8.055538778e-12
7.280446122e-12
6.578565446e-12
5.943063954e-12
5.367741242e-12
4.846971027e-12
4.37564956e-12
3.949141695e-12
3.563245316e-12
3.214146646e-12
2.898387798e-12
2.612831605e-12
2.354630722e-12
2.121206102e-12
1.910216813e-12
1.71954064e-12
1.547254593e-12
1.391616352e-12
1.251042907e-12
1.124101171e-12
1.009495043e-12
9.060461674e-13
8.12688971e-13
7.28457904e-13
6.524782661e-13
5.839558839e-13
5.221756523e-13
4.664879906e-13
4.163041802e-13
3.710935762e-13
3.303712225e-13
2.937017752e-13
2.606920364e-13
2.30985354e-13
2.04259716e-13
1.802215413e-13
1.586085332e-13
1.391805975e-13
1.217240604e-13
1.060428717e-13
9.196200078e-14
7.93225121e-14
6.797980364e-14
5.780478283e-14
4.868150699e-14
4.050407077e-14
3.317632644e-14
2.661343663e-14
2.073632272e-14
1.547735929e-14
1.077334168e-14
6.565323425e-15
2.806053178e-15
0
0
0
0
0
0
0
0
0
0
0
0
0
0
0
0
0
0
0
0
0
0
0
0
0
0
0
0
0
0
0
0
0
0
0
0
0
0
0
0
0
0
0
0
0
0
0
0
0
0
0
0
0
0
0
0
0
0
0
0
0
0
0
0
0
0
0
0
0
0
0
0
0
0
0
0
0
0
0
0
0
0
0
0
0
0
0
0
0
0
0
0
0
0
0
0
0
0
0
0
0
0
0
0
0
0
0
0
0
0
0
0
0
0
0
0
0
0
0
0
0
0
0
0
0
0
0
0
0
0
0
0
0
0
0
0
0
0
0
0
0
0
0
0
0
0
0
0
0
0
0
0
0
0
0
0
0
0
0
0
0
0
0
0
0
0
0
0
0
0
0
0
0
0
0
0
0
0
0
0
0
0
0
0
0
0
0
0
0
0
0
0
0
0
0
0
0
0
0
0
0
0
0
0
0
0
0
0
0
0
0
0
0
0
0
0
0
0
0
0
0
0
0
0
0
0
0
0
0
0
0
0
0
0
0
0
1.209182282e-06
1.209297557e-06
1.209514082e-06
1.209819136e-06
1.210201803e-06
1.210652838e-06
1.211164461e-06
1.211730121e-06
1.21234431e-06
1.213002403e-06
1.213700551e-06
1.214435618e-06
1.215205057e-06
1.216006743e-06
1.216838883e-06
1.217699928e-06
1.218588613e-06
1.219504113e-06
1.220445806e-06
1.221413145e-06
1.222405583e-06
1.22342257e-06
1.224463539e-06
1.225527947e-06
1.226615594e-06
1.227726544e-06
1.2288043e-06
1.229862143e-06
1.230941623e-06
1.23204287e-06
1.23316605e-06
1.234311413e-06
1.235479321e-06
1.236670305e-06
1.23788525e-06
1.23912613e-06
1.240391068e-06
1.241678378e-06
1.242989357e-06
1.244325254e-06
1.245686814e-06
1.247074571e-06
1.24848898e-06
1.249930434e-06
1.251399286e-06
1.252895791e-06
1.254419565e-06
1.25596908e-06
1.25754212e-06
1.259135779e-06
1.260747527e-06
1.2623796e-06
1.264116751e-06
1.266091369e-06
1.268105967e-06
1.270163842e-06
1.272267569e-06
1.274419089e-06
1.276620082e-06
1.278872151e-06
1.281018618e-06
1.283195242e-06
1.285421915e-06
1.287700651e-06
1.290033459e-06
1.292422256e-06
1.294867827e-06
1.297372745e-06
1.299940409e-06
1.302573729e-06
1.305275982e-06
1.30805139e-06
1.310905419e-06
1.313837829e-06
1.316850494e-06
1.319946053e-06
1.323127496e-06
1.326398004e-06
1.329760704e-06
1.333217983e-06
1.336774373e-06
1.340220069e-06
1.343707326e-06
1.34729667e-06
1.350992375e-06
1.354799495e-06
1.358723387e-06
1.362769392e-06
1.366942913e-06
1.371249805e-06
1.375698795e-06
1.380298853e-06
1.385067266e-06
1.390019072e-06
1.395157163e-06
1.400443335e-06
1.405602069e-06
1.410955028e-06
1.416514148e-06
1.42229124e-06
1.429222525e-06
1.436495012e-06
1.444073378e-06
1.451981929e-06
1.46022537e-06
1.468820616e-06
1.477782617e-06
1.486672045e-06
1.495956754e-06
1.505667989e-06
1.51584004e-06
1.526514289e-06
1.537718934e-06
1.549489269e-06
1.561871477e-06
1.574922725e-06
1.588204904e-06
1.602118575e-06
1.616868071e-06
1.633335807e-06
1.651568846e-06
1.670823351e-06
1.691187672e-06
1.712669716e-06
1.735386365e-06
1.759031648e-06
1.7836928e-06
1.809690579e-06
1.837168337e-06
1.866121842e-06
1.898414664e-06
1.933028292e-06
1.969642459e-06
2.0071753e-06
2.046598902e-06
2.087902815e-06
2.132067417e-06
2.179723995e-06
2.228765058e-06
2.280297894e-06
2.333900679e-06
2.392639173e-06
2.453702504e-06
2.516934445e-06
2.585011237e-06
2.653273959e-06
2.726484267e-06
2.799711945e-06
2.873918031e-06
2.947486853e-06
3.018536302e-06
3.082631962e-06
3.14009459e-06
3.185665358e-06
3.222049171e-06
3.24568769e-06
3.261396919e-06
3.271667653e-06
3.299948662e-06
3.45465411e-06
3.991443757e-06
5.131040541e-06
6.972739603e-06
9.170143322e-06
1.117516718e-05
1.269026585e-05
1.36415777e-05
1.405972903e-05
1.402882656e-05
1.363824318e-05
1.299356545e-05
1.218082534e-05
1.126975963e-05
1.031274596e-05
9.36485224e-06
8.447642228e-06
7.581613129e-06
6.782253936e-06
6.058931903e-06
5.418343378e-06
4.843140269e-06
4.336166901e-06
3.871254148e-06
3.470015792e-06
3.107614484e-06
2.782370204e-06
2.496651398e-06
2.23568539e-06
1.997082412e-06
1.786835178e-06
1.600973364e-06
1.436222069e-06
1.290097675e-06
1.152766851e-06
1.028115148e-06
9.17357716e-07
8.190714165e-07
7.319793336e-07
6.548481854e-07
5.864958698e-07
5.258407382e-07
4.719316289e-07
4.23942181e-07
3.811563552e-07
3.429544192e-07
3.088003139e-07
2.782286287e-07
2.508334871e-07
2.26260194e-07
2.041978528e-07
1.84373354e-07
1.66545853e-07
1.505027198e-07
1.360558238e-07
1.230383925e-07
1.113023387e-07
1.007159435e-07
9.116191178e-08
8.253563679e-08
7.474372162e-08
6.770267878e-08
6.133780119e-08
5.558217574e-08
5.037581137e-08
4.566487831e-08
4.140103696e-08
3.754084501e-08
3.404523447e-08
3.087904741e-08
2.801062573e-08
2.54114468e-08
2.30557986e-08
2.092049094e-08
1.898459862e-08
1.722923101e-08
1.5637328e-08
1.419347618e-08
1.288374478e-08
1.169553865e-08
1.061746656e-08
9.639222951e-09
8.751481901e-09
7.945801505e-09
7.214538281e-09
6.550769955e-09
5.948226025e-09
5.401225215e-09
4.904619044e-09
4.453741114e-09
4.044361094e-09
3.672643464e-09
3.335110098e-09
3.028606519e-09
2.750271402e-09
2.49750901e-09
2.267964245e-09
2.059500148e-09
1.87017744e-09
1.698236099e-09
1.542078637e-09
1.400254964e-09
1.271448686e-09
1.154464694e-09
1.048217902e-09
9.517230765e-10
8.640855795e-10
7.84493002e-10
7.122075659e-10
6.465592418e-10
5.869394975e-10
5.32795642e-10
4.836256702e-10
4.389736177e-10
3.984253149e-10
3.6160455e-10
3.281695855e-10
2.978099922e-10
2.702437756e-10
2.452147689e-10
2.224902669e-10
2.01858872e-10
1.831285457e-10
1.661248338e-10
1.506892574e-10
1.366778471e-10
1.239598211e-10
1.124163725e-10
1.019395747e-10
9.243138988e-11
8.380275952e-11
7.597278468e-11
6.886798137e-11
6.242160045e-11
5.657301059e-11
5.126714137e-11
4.645397195e-11
4.208807192e-11
3.812817794e-11
3.453681537e-11
3.12799503e-11
2.832667497e-11
2.564892042e-11
2.322119834e-11
2.102036388e-11
1.902540213e-11
1.721723088e-11
1.557852601e-11
1.409355712e-11
1.27480465e-11
1.152902991e-11
1.042473894e-11
9.424495208e-12
8.518601603e-12
7.69826004e-12
6.955486878e-12
6.283032221e-12
5.67432408e-12
5.12339318e-12
4.624827241e-12
4.173713539e-12
3.76559919e-12
3.396441488e-12
3.062573289e-12
2.760671826e-12
2.487721634e-12
2.240989206e-12
2.017995054e-12
1.816493055e-12
1.634444923e-12
1.470003917e-12
1.321496147e-12
1.187406092e-12
1.06635865e-12
9.571083663e-13
8.585267629e-13
7.695924866e-13
6.893779469e-13
6.170465135e-13
5.518397276e-13
4.930701052e-13
4.401163876e-13
3.924140764e-13
3.494534716e-13
3.107743639e-13
2.759605921e-13
2.446352471e-13
2.164550057e-13
1.911140624e-13
1.683323089e-13
1.478572956e-13
1.294616883e-13
1.129406042e-13
9.810719143e-14
8.479415964e-14
7.2848921e-14
6.213563695e-14
5.253180821e-14
4.392356187e-14
3.621266074e-14
2.930668959e-14
2.312498551e-14
1.759408831e-14
1.264608371e-14
8.224152532e-15
4.272352896e-15
7.423686321e-16
0
0
0
0
0
0
0
0
0
0
0
0
0
0
0
0
0
0
0
0
0
0
0
0
0
0
0
0
0
0
0
0
0
0
0
0
0
0
0
0
0
0
0
0
0
0
0
0
0
0
0
0
0
0
0
0
0
0
0
0
0
0
0
0
0
0
0
0
0
0
0
0
0
0
0
0
0
0
0
0
0
0
0
0
0
0
0
0
0
0
0
0
0
0
0
0
0
0
0
0
0
0
0
0
0
0
0
0
0
0
0
0
0
0
0
0
0
0
0
0
0
0
0
0
0
0
0
0
0
0
0
0
0
0
0
0
0
0
0
0
0
0
0
0
0
0
0
0
0
0
0
0
0
0
0
0
0
0
0
0
0
0
0
0
0
0
0
0
0
0
0
0
0
0
0
0
0
0
0
0
0
0
0
0
0
0
0
0
0
0
0
0
0
0
0
0
0
0
0
0
0
0
0
0
0
0
0
0
0
0
0
0
0
0
0
0
0
0
0
0
0
0
0
0
0
0
0
0
0
0
0
0
0
0
1.123453336e-06
1.123550858e-06
1.123733658e-06
1.123990705e-06
1.124312648e-06
1.124691717e-06
1.125121506e-06
1.12559673e-06
1.126113012e-06
1.126666692e-06
1.127254748e-06
1.127874873e-06
1.128525292e-06
1.12920451e-06
1.129911229e-06
1.130644216e-06
1.131402007e-06
1.132184427e-06
1.132991246e-06
1.133822074e-06
1.134676448e-06
1.135553808e-06
1.136453404e-06
1.137373997e-06
1.138315286e-06
1.139277868e-06
1.140261864e-06
1.141267175e-06
1.142293686e-06
1.143341344e-06
1.144410171e-06
1.145500275e-06
1.14661186e-06
1.147745219e-06
1.14890066e-06
1.150007697e-06
1.151129889e-06
1.152503971e-06
1.153962693e-06
1.155447601e-06
1.156959206e-06
1.158497885e-06
1.160063944e-06
1.161657656e-06
1.163279441e-06
1.164930536e-06
1.166612014e-06
1.168320636e-06
1.170054782e-06
1.171813238e-06
1.173595634e-06
1.17540387e-06
1.177242004e-06
1.179114151e-06
1.181021553e-06
1.182966426e-06
1.184950828e-06
1.186975852e-06
1.189042399e-06
1.191151237e-06
1.193302442e-06
1.195451737e-06
1.197577243e-06
1.199745459e-06
1.201958323e-06
1.204218568e-06
1.206531813e-06
1.208897021e-06
1.211313847e-06
1.213784044e-06
1.21631014e-06
1.218895173e-06
1.221542013e-06
1.224251884e-06
1.227026167e-06
1.22986674e-06
1.232775809e-06
1.235755725e-06
1.238808907e-06
1.241850309e-06
1.24486788e-06
1.2479512e-06
1.251104944e-06
1.254334081e-06
1.257640421e-06
1.261029409e-06
1.264505702e-06
1.268073573e-06
1.271737247e-06
1.275501223e-06
1.279371227e-06
1.283829438e-06
1.288709349e-06
1.293602346e-06
1.29863453e-06
1.303809982e-06
1.3091319e-06
1.31461394e-06
1.320267262e-06
1.326103825e-06
1.33214048e-06
1.338390938e-06
1.344835801e-06
1.351369645e-06
1.358120337e-06
1.365102146e-06
1.372332488e-06
1.379831348e-06
1.387619344e-06
1.395726886e-06
1.404177106e-06
1.412887329e-06
1.421941721e-06
1.432084399e-06
1.443407564e-06
1.455282374e-06
1.467769279e-06
1.480915197e-06
1.494756701e-06
1.509302113e-06
1.524610089e-06
1.540699621e-06
1.557583948e-06
1.575268511e-06
1.593755226e-06
1.613798285e-06
1.635739892e-06
1.658568004e-06
1.682274076e-06
1.70685254e-06
1.732247269e-06
1.758509826e-06
1.785480791e-06
1.815113991e-06
1.845138518e-06
1.875479391e-06
1.905877316e-06
1.935782103e-06
1.968067338e-06
1.999950637e-06
2.030715699e-06
2.063179982e-06
2.095267384e-06
2.125870879e-06
2.158823088e-06
2.18827574e-06
2.217953876e-06
2.245060505e-06
2.270265125e-06
2.294624735e-06
2.315873947e-06
2.332080398e-06
2.348783701e-06
2.361433058e-06
2.373726819e-06
2.385541194e-06
2.392934453e-06
2.397685268e-06
2.414214798e-06
2.49671696e-06
2.731792263e-06
3.314272105e-06
4.40798556e-06
5.956569652e-06
7.681509682e-06
9.319154883e-06
1.067924738e-05
1.16629515e-05
1.223455099e-05
1.24327224e-05
1.231921322e-05
1.195354716e-05
1.140644552e-05
1.074030289e-05
1.000469713e-05
9.237201994e-06
8.469533807e-06
7.742282975e-06
7.061844358e-06
6.419448018e-06
5.820761156e-06
5.281444672e-06
4.782189066e-06
4.316344629e-06
3.900047634e-06
3.507301657e-06
3.162222908e-06
2.84071221e-06
2.550492316e-06
2.294566381e-06
2.06287163e-06
1.847233529e-06
1.656380874e-06
1.487291667e-06
1.337288493e-06
1.204222401e-06
1.083080001e-06
9.691533487e-07
8.679616936e-07
7.780033845e-07
6.979233011e-07
6.265531209e-07
5.628795952e-07
5.060130375e-07
4.551726444e-07
4.096773566e-07
3.689307232e-07
3.324069033e-07
2.996429894e-07
2.702304739e-07
2.43809261e-07
2.200597169e-07
1.986987669e-07
1.794752492e-07
1.621660089e-07
1.465725608e-07
1.32518048e-07
1.198448694e-07
1.084123731e-07
9.809493972e-08
8.878026085e-08
8.03678427e-08
7.276770876e-08
6.589922047e-08
5.969006006e-08
5.407532868e-08
4.899674417e-08
4.44019378e-08
4.024382244e-08
3.648003727e-08
3.307245514e-08
2.998674013e-08
2.719195619e-08
2.466021785e-08
2.23663772e-08
2.028774767e-08
1.840385446e-08
1.66962119e-08
1.514812431e-08
1.374450773e-08
1.247173002e-08
1.131746784e-08
1.027057717e-08
9.320978162e-09
8.459550986e-09
7.678042511e-09
6.968982237e-09
6.32560651e-09
5.741790638e-09
5.211987134e-09
4.731170653e-09
4.294787981e-09
3.898713018e-09
3.539206133e-09
3.212877488e-09
2.916653851e-09
2.647748767e-09
2.403635354e-09
2.18202195e-09