/*--------------------------------*- C++ -*----------------------------------*\
| =========                 |                                                 |
| \\      /  F ield         | OpenFOAM: The Open Source CFD Toolbox           |
|  \\    /   O peration     | Version:  v2006                                 |
|   \\  /    A nd           | Website:  www.openfoam.com                      |
|    \\/     M anipulation  |                                                 |
\*---------------------------------------------------------------------------*/
FoamFile
{
    version     2.0;
    format      ascii;
    class       volScalarField;
    location    "0.1";
    object      HCO;
}
// * * * * * * * * * * * * * * * * * * * * * * * * * * * * * * * * * * * * * //

dimensions      [0 0 0 0 0 0 0];


internalField   nonuniform List<scalar> 
72000
(
6.485406522e-12
6.48727833e-12
6.490930767e-12
6.49621121e-12
6.50295104e-12
6.510983164e-12
6.520146293e-12
6.530296018e-12
6.541300877e-12
6.55304728e-12
6.565432784e-12
6.57837284e-12
6.591794883e-12
6.60563658e-12
6.619847005e-12
6.63438368e-12
6.649210599e-12
6.664301465e-12
6.679634523e-12
6.69519194e-12
6.71096264e-12
6.726937991e-12
6.743110713e-12
6.759476198e-12
6.776032643e-12
6.792776069e-12
6.809704649e-12
6.826823787e-12
6.844140067e-12
6.861662026e-12
6.879397225e-12
6.897353017e-12
6.91553618e-12
6.933951889e-12
6.952608956e-12
6.971516492e-12
6.990683081e-12
7.010117252e-12
7.029830663e-12
7.049833247e-12
7.070134593e-12
7.090745217e-12
7.111674381e-12
7.132933842e-12
7.154533727e-12
7.176485109e-12
7.198798812e-12
7.221487389e-12
7.244560947e-12
7.26802909e-12
7.291910729e-12
7.316213884e-12
7.340950925e-12
7.366136389e-12
7.391785077e-12
7.41790991e-12
7.4445227e-12
7.471638289e-12
7.499269128e-12
7.527426658e-12
7.556124731e-12
7.585378289e-12
7.615207199e-12
7.645627577e-12
7.67665541e-12
7.710612755e-12
7.765559272e-12
7.821620969e-12
7.878843411e-12
7.937265313e-12
7.996920283e-12
8.057848364e-12
8.120084385e-12
8.183664421e-12
8.248627209e-12
8.315006266e-12
8.3828549e-12
8.452201018e-12
8.523084903e-12
8.59554699e-12
8.669620563e-12
8.745362937e-12
8.822822611e-12
8.902061445e-12
8.983135966e-12
9.066107482e-12
9.151025126e-12
9.23793488e-12
9.326780361e-12
9.417686326e-12
9.510735826e-12
9.60600711e-12
9.70356877e-12
9.803469016e-12
9.905786248e-12
1.001057015e-11
1.011789304e-11
1.022782058e-11
1.034042399e-11
1.045577761e-11
1.057393573e-11
1.069494978e-11
1.081886043e-11
1.094569303e-11
1.10754694e-11
1.120819674e-11
1.134388349e-11
1.148249226e-11
1.162391838e-11
1.176793e-11
1.191447773e-11
1.206328526e-11
1.221392065e-11
1.236575264e-11
1.254875944e-11
1.27881199e-11
1.299621246e-11
1.332992177e-11
1.31745974e-11
1.40169408e-11
1.346317657e-11
1.466902935e-11
1.369343113e-11
1.533405803e-11
1.39010216e-11
1.602656292e-11
1.410230058e-11
1.677375561e-11
1.430519092e-11
1.760693926e-11
1.450642339e-11
1.855669528e-11
1.471084018e-11
1.972924501e-11
1.493862271e-11
2.184414575e-11
1.549918556e-11
2.354496511e-11
1.656497134e-11
2.580189326e-11
1.806608993e-11
2.870823435e-11
2.042608967e-11
3.395865226e-11
2.430075894e-11
4.13518792e-11
2.913839918e-11
5.099409491e-11
3.722633122e-11
7.143692384e-11
5.023486284e-11
1.052571608e-10
7.712054794e-11
1.882909654e-10
1.376417429e-10
3.593267655e-10
2.902668966e-10
4.211691454e-10
5.591829637e-10
2.226431007e-09
7.879287973e-10
2.335539772e-07
5.429799348e-07
1.702465407e-07
4.573223496e-08
1.486012935e-08
5.26505193e-09
1.959350894e-09
7.113936266e-10
2.480338558e-10
8.637485586e-11
2.708256063e-11
9.56308377e-12
2.964617215e-12
1.076585416e-12
4.386470593e-13
1.77754249e-13
7.170451376e-14
3.459541315e-14
1.987949159e-14
1.223116154e-14
7.390069143e-15
5.056872474e-15
3.289233809e-15
2.423873744e-15
1.820034563e-15
1.343313989e-15
1.0052415e-15
8.166864934e-16
6.623568146e-16
5.360275749e-16
4.324930172e-16
3.441195134e-16
2.680616937e-16
2.207383343e-16
1.914555829e-16
1.632027039e-16
1.388905521e-16
1.18610533e-16
1.018191875e-16
8.78914491e-17
7.627398492e-17
6.651563689e-17
5.825964906e-17
5.12265115e-17
4.519702568e-17
3.999825507e-17
3.549262639e-17
3.156970376e-17
2.814002772e-17
2.513049619e-17
2.248088215e-17
2.014118916e-17
1.806962182e-17
1.623101418e-17
1.459560161e-17
1.313805247e-17
1.183669831e-17
1.067291696e-17
9.63063461e-18
8.695921213e-18
7.856659457e-18
7.10227242e-18
6.423498165e-18
5.812202197e-18
5.26122061e-18
4.764228249e-18
4.315627399e-18
3.910453378e-18
3.544294133e-18
3.213221479e-18
2.91373207e-18
2.642696538e-18
2.397315524e-18
2.175081536e-18
1.973745764e-18
1.791289109e-18
1.625896839e-18
1.475936337e-18
1.33993754e-18
1.216575679e-18
1.104656035e-18
1.003100438e-18
9.10935286e-19
8.272809018e-19
7.513420516e-19
6.823994928e-19
6.198024257e-19
5.629617411e-19
5.113439756e-19
4.644658909e-19
4.218896093e-19
3.832182425e-19
3.480919604e-19
3.161844536e-19
2.871997448e-19
2.608693166e-19
2.369495189e-19
2.152192279e-19
1.954777343e-19
1.775428319e-19
1.612490923e-19
1.464463014e-19
1.329980462e-19
1.207804358e-19
1.096809419e-19
9.959734911e-20
9.043680324e-20
8.211494946e-20
7.455514939e-20
6.768777217e-20
6.144955151e-20
5.57830011e-20
5.063588587e-20
4.596074039e-20
4.171443198e-20
3.785776559e-20
3.435512312e-20
3.11741367e-20
2.828539216e-20
2.566215891e-20
2.32801459e-20
2.111727796e-20
1.915349484e-20
1.737056657e-20
1.575192771e-20
1.428252429e-20
1.294867667e-20
1.173795478e-20
1.063906349e-20
9.641739574e-21
8.736657192e-21
7.915343295e-21
7.170099333e-21
6.493930843e-21
5.880482949e-21
5.323982219e-21
4.819184069e-21
4.361323945e-21
3.946073819e-21
3.569502096e-21
3.228037619e-21
2.918437062e-21
2.637754756e-21
2.383315077e-21
2.152688643e-21
1.943668851e-21
1.754252316e-21
1.582620065e-21
1.427120341e-21
1.286253394e-21
1.158658197e-21
1.043098761e-21
9.384535365e-22
8.437040827e-22
7.579264153e-22
6.802816909e-22
6.100092677e-22
5.464185263e-22
4.888828861e-22
4.368338675e-22
3.897556981e-22
3.471810375e-22
3.086851094e-22
2.738834335e-22
2.424272009e-22
2.139997059e-22
1.883146846e-22
1.651115848e-22
1.441549705e-22
1.252311528e-22
1.081464308e-22
9.272523932e-23
7.880887846e-23
6.625342543e-23
5.492816669e-23
4.471470786e-23
3.550641187e-23
2.720648736e-23
1.972722686e-23
1.298922247e-23
6.920590162e-24
1.456177434e-24
0
0
0
0
0
0
0
0
0
0
0
0
0
0
0
0
0
0
0
0
0
0
0
0
0
0
0
0
0
0
0
0
0
0
0
0
0
0
0
0
0
0
0
0
0
0
0
0
0
0
0
0
0
0
0
0
0
0
0
0
0
0
0
0
0
0
0
0
0
0
0
0
0
0
0
0
0
0
0
0
0
0
0
0
0
0
0
0
0
0
0
0
0
0
0
0
0
0
0
0
0
0
0
0
0
0
0
0
0
0
0
0
0
0
0
0
0
0
0
0
0
0
0
0
0
0
0
0
0
0
0
0
0
0
0
0
0
0
0
0
0
0
0
0
0
0
0
0
0
0
0
0
0
0
0
0
0
0
0
0
0
0
0
0
0
0
0
0
0
0
0
0
0
0
0
0
0
0
0
0
0
0
0
0
0
0
0
0
0
0
0
0
0
0
0
0
0
0
0
0
0
0
0
0
0
0
0
0
0
0
0
0
0
0
0
0
0
0
0
0
0
0
0
0
0
0
0
0
0
0
0
0
0
0
0
0
0
0
0
0
0
0
0
0
0
0
0
0
0
0
0
0
0
0
0
0
0
8.033830807e-11
8.043207395e-11
8.061201799e-11
8.08700116e-11
8.119780985e-11
8.158761081e-11
8.203214237e-11
8.25249895e-11
8.306039822e-11
8.363341272e-11
8.42396449e-11
8.487547118e-11
8.553778588e-11
8.622397954e-11
8.693187997e-11
8.765974432e-11
8.840607553e-11
8.916980622e-11
8.995008761e-11
9.074624654e-11
9.155786898e-11
9.238458688e-11
9.322622437e-11
9.408267097e-11
9.495393346e-11
9.583998763e-11
9.674071469e-11
9.765650326e-11
9.858793571e-11
9.953553931e-11
1.004998072e-10
1.014812258e-10
1.024802973e-10
1.034975234e-10
1.045335071e-10
1.055888404e-10
1.066640739e-10
1.077598084e-10
1.088767837e-10
1.100157514e-10
1.111774575e-10
1.123626875e-10
1.135721605e-10
1.148066739e-10
1.160669194e-10
1.173535516e-10
1.186671031e-10
1.200078626e-10
1.213756493e-10
1.22769544e-10
1.244661081e-10
1.263551755e-10
1.282858469e-10
1.302610317e-10
1.322834721e-10
1.343554603e-10
1.364790263e-10
1.386562072e-10
1.408888861e-10
1.431789118e-10
1.455281846e-10
1.479387889e-10
1.50413093e-10
1.529533779e-10
1.555619416e-10
1.582407989e-10
1.609912783e-10
1.638176611e-10
1.667231147e-10
1.697106867e-10
1.727832599e-10
1.75943321e-10
1.791924039e-10
1.825359149e-10
1.859780306e-10
1.895224802e-10
1.931736469e-10
1.969352324e-10
2.00811455e-10
2.048070336e-10
2.089269718e-10
2.131771813e-10
2.175627921e-10
2.220895017e-10
2.267627449e-10
2.315890703e-10
2.36574623e-10
2.417262743e-10
2.483132114e-10
2.552522118e-10
2.624314114e-10
2.698632884e-10
2.775600036e-10
2.855336167e-10
2.937978593e-10
3.023656488e-10
3.112517454e-10
3.204702488e-10
3.307710759e-10
3.415192081e-10
3.527123883e-10
3.643736879e-10
3.765274809e-10
3.891969402e-10
4.024034096e-10
4.161703217e-10
4.305264095e-10
4.454976817e-10
4.617585114e-10
4.816259809e-10
5.023204389e-10
5.238484453e-10
5.462135192e-10
5.693862364e-10
5.932805745e-10
6.177773816e-10
6.428115549e-10
6.67781804e-10
6.940347594e-10
7.1499494e-10
7.415874073e-10
7.603148797e-10
7.892520056e-10
8.071264309e-10
8.40017013e-10
8.579124958e-10
8.966591296e-10
9.16543781e-10
9.681221999e-10
9.909279631e-10
1.053360547e-09
1.0772189e-09
1.151310837e-09
1.17731245e-09
1.269226586e-09
1.303972254e-09
1.444766038e-09
1.519524876e-09
1.717273014e-09
1.841552086e-09
2.149379165e-09
2.356309437e-09
2.774871614e-09
3.069825476e-09
3.722626841e-09
4.174897966e-09
5.110863197e-09
5.889847465e-09
7.407066369e-09
8.767384924e-09
1.140045053e-08
1.386060082e-08
1.868532694e-08
2.338316786e-08
3.29555536e-08
4.31800688e-08
6.608630525e-08
9.660424424e-08
1.472338067e-07
2.512801434e-07
6.107141521e-07
1.451831145e-06
1.292062252e-06
5.236929454e-07
1.965098793e-07
7.830755894e-08
3.226691509e-08
1.318027802e-08
5.236228204e-09
1.911347536e-09
6.717796519e-10
2.201339964e-10
6.709959023e-11
2.155573555e-11
7.207508953e-12
2.216231425e-12
8.724718341e-13
3.022261523e-13
1.480261246e-13
6.461816129e-14
2.965232466e-14
1.88037613e-14
1.164850733e-14
6.691920719e-15
3.476575e-15
2.033388301e-15
1.599438461e-15
1.262469231e-15
9.939013002e-16
7.781897027e-16
6.12175525e-16
5.152950169e-16
4.345286737e-16
3.668368477e-16
3.091297856e-16
2.598306084e-16
2.181300583e-16
1.835156868e-16
1.55079488e-16
1.317594213e-16
1.12573502e-16
9.670056457e-17
8.348327589e-17
7.240445802e-17
6.305890689e-17
5.512836376e-17
4.83613874e-17
4.255787625e-17
3.755737362e-17
3.32302431e-17
2.947099318e-17
2.61931931e-17
2.332558185e-17
2.08090553e-17
1.859431816e-17
1.664004002e-17
1.49113965e-17
1.337890795e-17
1.20175081e-17
1.080579382e-17
9.72541659e-18
8.760586915e-18
7.897668464e-18
7.124844183e-18
6.431840433e-18
5.809698037e-18
5.250581469e-18
4.747619194e-18
4.294769548e-18
3.886707656e-18
3.518729712e-18
3.186671677e-18
2.886839959e-18
2.615952174e-18
2.37108625e-18
2.149636679e-18
1.949276697e-18
1.767925548e-18
1.60372004e-18
1.454989783e-18
1.320235556e-18
1.198110373e-18
1.087402865e-18
9.87022656e-19
8.959874824e-19
8.13411805e-19
7.384967317e-19
6.705210794e-19
6.088334351e-19
5.528450864e-19
5.020237247e-19
4.558878225e-19
4.14001606e-19
3.759705569e-19
3.414373815e-19
3.100783929e-19
2.816002649e-19
2.557371106e-19
2.322478559e-19
2.109138755e-19
1.915368602e-19
1.739368957e-19
1.579507281e-19
1.434301964e-19
1.302408204e-19
1.182605201e-19
1.073784599e-19
9.749400188e-20
8.851575954e-20
8.036073968e-20
7.295356562e-20
6.622577419e-20
6.011517713e-20
5.456528375e-20
4.952477566e-20
4.494703137e-20
4.078969572e-20
3.701428749e-20
3.358584459e-20
3.047260122e-20
2.764569531e-20
2.507890343e-20
2.274839807e-20
2.063253015e-20
1.871162834e-20
1.696781981e-20
1.538486497e-20
1.394800824e-20
1.264384355e-20
1.146018988e-20
1.038598055e-20
9.411160765e-21
8.526595379e-21
7.723985362e-21
6.995791433e-21
6.335163804e-21
5.735880349e-21
5.192288931e-21
4.699255297e-21
4.252115813e-21
3.846634141e-21
3.478962754e-21
3.145607564e-21
2.843395078e-21
2.569442928e-21
2.321134162e-21
2.096092184e-21
1.892158914e-21
1.707375299e-21
1.539962316e-21
1.388304766e-21
1.250937033e-21
1.126527758e-21
1.013869455e-21
9.118652637e-22
8.195202772e-22
7.359315826e-22
6.602797545e-22
5.91821357e-22
5.298815793e-22
4.738482887e-22
4.231667304e-22
3.773332322e-22
3.358905065e-22
2.984249573e-22
2.64560717e-22
2.339571095e-22
2.063055057e-22
1.813259375e-22
1.587646393e-22
1.383915001e-22
1.199983569e-22
1.03396256e-22
8.841385425e-23
7.489641764e-23
6.270325846e-23
5.170722006e-23
4.179321286e-23
3.285714859e-23
2.480455144e-23
1.754995959e-23
1.1015777e-23
5.132120655e-24
0
0
0
0
0
0
0
0
0
0
0
0
0
0
0
0
0
0
0
0
0
0
0
0
0
0
0
0
0
0
0
0
0
0
0
0
0
0
0
0
0
0
0
0
0
0
0
0
0
0
0
0
0
0
0
0
0
0
0
0
0
0
0
0
0
0
0
0
0
0
0
0
0
0
0
0
0
0
0
0
0
0
0
0
0
0
0
0
0
0
0
0
0
0
0
0
0
0
0
0
0
0
0
0
0
0
0
0
0
0
0
0
0
0
0
0
0
0
0
0
0
0
0
0
0
0
0
0
0
0
0
0
0
0
0
0
0
0
0
0
0
0
0
0
0
0
0
0
0
0
0
0
0
0
0
0
0
0
0
0
0
0
0
0
0
0
0
0
0
0
0
0
0
0
0
0
0
0
0
0
0
0
0
0
0
0
0
0
0
0
0
0
0
0
0
0
0
0
0
0
0
0
0
0
0
0
0
0
0
0
0
0
0
0
0
0
0
0
0
0
0
0
0
0
0
0
0
0
0
0
0
0
0
0
0
0
0
0
0
0
0
0
0
0
0
0
0
0
0
0
0
0
0
0
0
0
0
3.858377072e-10
3.863377634e-10
3.872889662e-10
3.886456826e-10
3.903638787e-10
3.924024826e-10
3.947240196e-10
3.972950819e-10
4.000861342e-10
4.03071482e-10
4.062288625e-10
4.095394909e-10
4.129873818e-10
4.165592214e-10
4.202438027e-10
4.240321286e-10
4.279166945e-10
4.318918778e-10
4.359534139e-10
4.400979918e-10
4.443233532e-10
4.486277508e-10
4.53010236e-10
4.574704163e-10
4.620083483e-10
4.666244715e-10
4.717892399e-10
4.773948745e-10
4.831001672e-10
4.889081011e-10
4.948216721e-10
5.008439164e-10
5.069780911e-10
5.132277074e-10
5.1959651e-10
5.260882791e-10
5.327066472e-10
5.39455627e-10
5.463400424e-10
5.533647821e-10
5.605348428e-10
5.678553172e-10
5.753310743e-10
5.829672133e-10
5.907686326e-10
5.987399312e-10
6.06885408e-10
6.152081572e-10
6.23709352e-10
6.323857448e-10
6.412222865e-10
6.502322686e-10
6.594374318e-10
6.688504385e-10
6.7848658e-10
6.883571041e-10
6.98471881e-10
7.088403557e-10
7.19471528e-10
7.303742508e-10
7.415562334e-10
7.530281957e-10
7.648010899e-10
7.768864456e-10
7.892959724e-10
8.02041341e-10
8.163729845e-10
8.319184939e-10
8.47906957e-10
8.643554265e-10
8.81281632e-10
8.988377749e-10
9.181040256e-10
9.379557972e-10
9.584159624e-10
9.795080532e-10
1.001257378e-09
1.023689269e-09
1.046830016e-09
1.070708173e-09
1.095357501e-09
1.120822265e-09
1.147131814e-09
1.174318975e-09
1.202419278e-09
1.231473714e-09
1.261524648e-09
1.29261791e-09
1.324801337e-09
1.361044922e-09
1.399647348e-09
1.43967767e-09
1.481207019e-09
1.524310007e-09
1.569063589e-09
1.615548718e-09
1.663855654e-09
1.714069723e-09
1.76629272e-09
1.820605563e-09
1.877089041e-09
1.935868721e-09
1.997067941e-09
2.060806256e-09
2.129545046e-09
2.204045748e-09
2.28171061e-09
2.362654312e-09
2.447055371e-09
2.535067915e-09
2.627463481e-09
2.727363421e-09
2.83134215e-09
2.939381598e-09
3.051368378e-09
3.16707916e-09
3.289311918e-09
3.416093023e-09
3.545127608e-09
3.67361612e-09
3.806605402e-09
3.940034638e-09
4.082274363e-09
4.226144767e-09
4.38327127e-09
4.542756234e-09
4.72000155e-09
4.903487676e-09
5.112929468e-09
5.328068895e-09
5.575224422e-09
5.827362616e-09
6.121317073e-09
6.426037957e-09
6.793628983e-09
7.191678591e-09
7.705201519e-09
8.276931919e-09
8.990723995e-09
9.778062562e-09
1.074280028e-08
1.180710077e-08
1.31150712e-08
1.456734834e-08
1.634444346e-08
1.834270471e-08
2.08207596e-08
2.369984751e-08
2.738668168e-08
3.177205568e-08
3.754128132e-08
4.4773389e-08
5.491707708e-08
6.888362873e-08
9.133688289e-08
1.279873682e-07
1.992995863e-07
3.361321736e-07
6.170502938e-07
1.218364165e-06
2.460051575e-06
3.736728835e-06
3.065279861e-06
1.697622019e-06
8.223891918e-07
3.826681894e-07
1.745900169e-07
7.718528145e-08
3.336774147e-08
1.376922951e-08
5.149806435e-09
1.88110436e-09
6.21173126e-10
1.903398469e-10
5.691043158e-11
1.768517627e-11
5.787026856e-12
1.92707676e-12
6.991971123e-13
3.228480025e-13
1.309506161e-13
6.746128654e-14
3.853703712e-14
1.765151148e-14
1.027313899e-14
7.156229561e-15
4.802780235e-15
3.128392549e-15
1.81267859e-15
8.293887048e-16
6.901360517e-16
5.754699349e-16
4.812077648e-16
4.03308237e-16
3.385755782e-16
2.846852983e-16
2.399382799e-16
2.029860341e-16
1.725299122e-16
1.473780334e-16
1.265148802e-16
1.091136595e-16
9.451511695e-17
8.219727265e-17
7.174678739e-17
6.283508319e-17
5.519936234e-17
4.862800747e-17
4.294949034e-17
3.80238724e-17
3.3736284e-17
2.999186721e-17
2.671187426e-17
2.383059294e-17
2.129292115e-17
1.905244085e-17
1.706987773e-17
1.5311865e-17
1.374994136e-17
1.23597385e-17
1.112031676e-17
1.001362083e-17
9.024031287e-18
8.137993429e-18
7.343709299e-18
6.630880885e-18
5.990495185e-18
5.414643729e-18
4.896370423e-18
4.429542933e-18
4.008743511e-18
3.629176007e-18
3.28658644e-18
2.977195021e-18
2.697637594e-18
2.444915318e-18
2.216351053e-18
2.009551588e-18
1.822374807e-18
1.652901077e-18
1.499408245e-18
1.360349751e-18
1.234335395e-18
1.120114438e-18
1.016560695e-18
9.226593732e-19
8.374954136e-19
7.602431604e-19
6.901571936e-19
6.265641528e-19
5.688554744e-19
5.16480898e-19
4.68942669e-19
4.257903514e-19
3.866161824e-19
3.510509048e-19
3.187600329e-19
2.894404869e-19
2.628175773e-19
2.386422846e-19
2.166888114e-19
1.967523759e-19
1.786472225e-19
1.622048241e-19
1.472722631e-19
1.337107651e-19
1.21394375e-19
1.102087596e-19
1.000501246e-19
9.082423406e-20
8.244552329e-20
7.4836294e-20
6.792598757e-20
6.165052403e-20
5.595170429e-20
5.077666781e-20
4.607740103e-20
4.181029122e-20
3.793572174e-20
3.441770491e-20
3.122354886e-20
2.83235555e-20
2.569074532e-20
2.330060894e-20
2.113088047e-20
1.916133202e-20
1.737358745e-20
1.57509524e-20
1.427826122e-20
1.294173626e-20
1.172886171e-20
1.062826765e-20
9.629625683e-21
8.723553466e-21
7.901528529e-21
7.155808975e-21
6.479363074e-21
5.865803551e-21
5.309329223e-21
4.80467101e-21
4.347043404e-21
3.932100267e-21
3.555894848e-21
3.214842821e-21
2.905689496e-21
2.625479456e-21
2.371529323e-21
2.141402383e-21
1.932886897e-21
1.743974265e-21
1.572841397e-21
1.417833793e-21
1.277448801e-21
1.150323328e-21
1.035219803e-21
9.310152046e-22
8.366905083e-22
7.513213118e-22
6.740681979e-22
6.041701094e-22
5.409363686e-22
4.83740718e-22
4.320150076e-22
3.852436257e-22
3.429594768e-22
3.047386431e-22
2.701968086e-22
2.389857123e-22
2.107897927e-22
1.853224242e-22
1.623240894e-22
1.415600194e-22
1.228168586e-22
1.059016258e-22
9.063945761e-23
7.68719468e-23
6.445530961e-23
5.325998741e-23
4.316833794e-23
3.407375393e-23
2.58800933e-23
1.849959512e-23
1.185339859e-23
5.870260897e-24
4.855809625e-25
0
0
0
0
0
0
0
0
0
0
0
0
0
0
0
0
0
0
0
0
0
0
0
0
0
0
0
0
0
0
0
0
0
0
0
0
0
0
0
0
0
0
0
0
0
0
0
0
0
0
0
0
0
0
0
0
0
0
0
0
0
0
0
0
0
0
0
0
0
0
0
0
0
0
0
0
0
0
0
0
0
0
0
0
0
0
0
0
0
0
0
0
0
0
0
0
0
0
0
0
0
0
0
0
0
0
0
0
0
0
0
0
0
0
0
0
0
0
0
0
0
0
0
0
0
0
0
0
0
0
0
0
0
0
0
0
0
0
0
0
0
0
0
0
0
0
0
0
0
0
0
0
0
0
0
0
0
0
0
0
0
0
0
0
0
0
0
0
0
0
0
0
0
0
0
0
0
0
0
0
0
0
0
0
0
0
0
0
0
0
0
0
0
0
0
0
0
0
0
0
0
0
0
0
0
0
0
0
0
0
0
0
0
0
0
0
0
0
0
0
0
0
0
0
0
0
0
0
0
0
0
0
0
0
0
0
0
0
0
0
0
0
0
0
0
0
0
0
0
0
0
0
0
0
0
1.098642401e-09
1.10006908e-09
1.102768343e-09
1.106602052e-09
1.11144265e-09
1.117173731e-09
1.123690426e-09
1.130899618e-09
1.138719452e-09
1.147078773e-09
1.155916345e-09
1.165180262e-09
1.174826744e-09
1.184819174e-09
1.19512693e-09
1.205724753e-09
1.21659208e-09
1.227713675e-09
1.239078255e-09
1.250677033e-09
1.262503729e-09
1.274553886e-09
1.286824526e-09
1.299314682e-09
1.312025305e-09
1.324959634e-09
1.338656626e-09
1.352997033e-09
1.367594161e-09
1.382453785e-09
1.39758276e-09
1.412988615e-09
1.428679526e-09
1.444664358e-09
1.460952738e-09
1.477555476e-09
1.494480089e-09
1.511733024e-09
1.529328407e-09
1.547279946e-09
1.565600403e-09
1.584302424e-09
1.603398361e-09
1.622900793e-09
1.642822505e-09
1.663175777e-09
1.68397222e-09
1.705221004e-09
1.726929552e-09
1.749103274e-09
1.771748743e-09
1.79488679e-09
1.819045998e-09
1.84506228e-09
1.871710151e-09
1.899018209e-09
1.92701358e-09
1.955722466e-09
1.985170756e-09
2.015384763e-09
2.047462033e-09
2.080521861e-09
2.114470751e-09
2.149347783e-09
2.185189793e-09
2.222034263e-09
2.259918898e-09
2.298883082e-09
2.338968205e-09
2.38021784e-09
2.422679135e-09
2.466404588e-09
2.511453911e-09
2.557866682e-09
2.605692367e-09
2.654984961e-09
2.705802004e-09
2.758202461e-09
2.812245506e-09
2.867983992e-09
2.925488592e-09
2.985494912e-09
3.047667431e-09
3.11192862e-09
3.178368915e-09
3.247087369e-09
3.318188823e-09
3.391783695e-09
3.467988207e-09
3.546930112e-09
3.62873155e-09
3.713517789e-09
3.801458242e-09
3.892728614e-09
3.987470568e-09
4.085710264e-09
4.1868237e-09
4.291961381e-09
4.40132734e-09
4.515130781e-09
4.638794948e-09
4.768011154e-09
4.902749202e-09
5.043321013e-09
5.189977977e-09
5.343010372e-09
5.502630396e-09
5.664408491e-09
5.833408754e-09
6.009963793e-09
6.194391403e-09
6.386995195e-09
6.587977602e-09
6.797491753e-09
7.015635511e-09
7.242433295e-09
7.469919353e-09
7.703580718e-09
7.945343826e-09
8.199533206e-09
8.468726058e-09
8.748898483e-09
9.04409787e-09
9.354049207e-09
9.684051515e-09
1.002597389e-08
1.038569306e-08
1.076854939e-08
1.118280749e-08
1.162616558e-08
1.211975552e-08
1.265651602e-08
1.325011867e-08
1.387167298e-08
1.457217379e-08
1.535798473e-08
1.627154641e-08
1.729420154e-08
1.844603365e-08
1.976310639e-08
2.124102741e-08
2.293437237e-08
2.487975312e-08
2.707735907e-08
2.967238937e-08
3.267508991e-08
3.628274483e-08
4.06385846e-08
4.613550784e-08
5.324670957e-08
6.288420927e-08
7.647729713e-08
9.727247835e-08
1.305602949e-07
1.887185818e-07
2.949696691e-07
4.998003419e-07
8.970365719e-07
1.666796063e-06
3.093362819e-06
5.284759352e-06
6.995727593e-06
6.570120351e-06
4.733803908e-06
2.899270705e-06
1.606271609e-06
8.267024534e-07
4.05483504e-07
1.892873899e-07
8.479452542e-08
3.634060174e-08
1.457801852e-08
5.248432319e-09
1.873812324e-09
5.934144376e-10
1.74577761e-10
5.354674823e-11
1.641917894e-11
5.220486195e-12
2.158668479e-12
8.487672879e-13
3.200953065e-13
1.704413296e-13
7.685325541e-14
3.997683659e-14
2.465526417e-14
1.270206549e-14
6.470014155e-15
4.760746389e-15
3.39089872e-15
2.285762697e-15
1.389504389e-15
6.611301373e-16
4.326032194e-16
3.653682491e-16
3.096385714e-16
2.634196994e-16
2.250687092e-16
1.93173219e-16
1.665385438e-16
1.441834437e-16
1.253196671e-16
1.093180333e-16
9.567591625e-17
8.399042071e-17
7.393713676e-17
6.525310591e-17
5.772369479e-17
5.117271569e-17
4.545468303e-17
4.044882688e-17
3.60542948e-17
3.218650752e-17
2.877419874e-17
2.575705555e-17
2.308382447e-17
2.0710776e-17
1.860046807e-17
1.672072473e-17
1.504380409e-17
1.354570967e-17
1.220562175e-17
1.1005425e-17
9.929313057e-18
8.963458414e-18
8.095734855e-18
7.315483082e-18
6.61331261e-18
5.980933276e-18
5.411011977e-18
4.897050226e-18
4.433279021e-18
4.014568527e-18
3.636350343e-18
3.294550038e-18
2.985529015e-18
2.706033729e-18
2.453151514e-18
2.224272011e-18
2.017053403e-18
1.829392783e-18
1.659400144e-18
1.505375369e-18
1.365788017e-18
1.239259402e-18
1.124546725e-18
1.020529e-18
9.261945356e-19
8.406298185e-19
7.630095591e-19
6.925878585e-19
6.286902827e-19
5.707067833e-19
5.180853537e-19
4.703263438e-19
4.269773529e-19
3.87628655e-19
3.519090656e-19
3.19482243e-19
2.900433471e-19
2.63316033e-19
2.390497393e-19
2.170172445e-19
1.970124563e-19
1.788484236e-19
1.623555328e-19
1.473798819e-19
1.337818088e-19
1.214345612e-19
1.102230911e-19
1.00042967e-19
9.079938391e-20
8.240627283e-20
7.478548864e-20
6.786607697e-20
6.15836094e-20
5.587958041e-20
5.070086047e-20
4.599920027e-20
4.173078151e-20
3.785580815e-20
3.433813693e-20
3.114494119e-20
2.824640624e-20
2.56154522e-20
2.32274838e-20
2.106016144e-20
1.909319445e-20
1.730815374e-20
1.568830035e-20
1.421843079e-20
1.288473657e-20
1.167467608e-20
1.057685832e-20
9.580937956e-21
8.677519075e-21
7.858068657e-21
7.114836999e-21
6.440786409e-21
5.829525779e-21
5.27525141e-21
4.772692963e-21
4.317064912e-21
3.904021932e-21
3.529618747e-21
3.190273112e-21
2.882732916e-21
2.604045403e-21
2.351530494e-21
2.122754841e-21
1.915509619e-21
1.727790531e-21
1.557777659e-21
1.403819761e-21
1.264418459e-21
1.138213254e-21
1.023970691e-21
9.20570628e-22
8.269973578e-22
7.423290076e-22
6.657298963e-22
5.964414312e-22
5.33775507e-22
4.771085535e-22
4.258747355e-22
3.795611028e-22
3.377024033e-22
2.998771223e-22
2.657028085e-22
2.348329273e-22
2.069533806e-22
1.817797465e-22
1.590540055e-22
1.385424515e-22
1.200333321e-22
1.033349698e-22
8.827335495e-23
7.469144256e-23
6.244688625e-23
5.141068131e-23
4.146621782e-23
3.250760146e-23
2.443918343e-23
1.717457249e-23
1.063563976e-23
4.751638322e-24
0
0
0
0
0
0
0
0
0
0
0
0
0
0
0
0
0
0
0
0
0
0
0
0
0
0
0
0
0
0
0
0
0
0
0
0
0
0
0
0
0
0
0
0
0
0
0
0
0
0
0
0
0
0
0
0
0
0
0
0
0
0
0
0
0
0
0
0
0
0
0
0
0
0
0
0
0
0
0
0
0
0
0
0
0
0
0
0
0
0
0
0
0
0
0
0
0
0
0
0
0
0
0
0
0
0
0
0
0
0
0
0
0
0
0
0
0
0
0
0
0
0
0
0
0
0
0
0
0
0
0
0
0
0
0
0
0
0
0
0
0
0
0
0
0
0
0
0
0
0
0
0
0
0
0
0
0
0
0
0
0
0
0
0
0
0
0
0
0
0
0
0
0
0
0
0
0
0
0
0
0
0
0
0
0
0
0
0
0
0
0
0
0
0
0
0
0
0
0
0
0
0
0
0
0
0
0
0
0
0
0
0
0
0
0
0
0
0
0
0
0
0
0
0
0
0
0
0
0
0
0
0
0
0
0
0
0
0
0
0
0
0
0
0
0
0
0
0
0
0
0
0
0
0
2.161769758e-09
2.164296389e-09
2.169059232e-09
2.175801709e-09
2.184293237e-09
2.194327355e-09
2.205720573e-09
2.218311215e-09
2.231957979e-09
2.24653838e-09
2.261947301e-09
2.278096238e-09
2.294911005e-09
2.312329564e-09
2.33030002e-09
2.348778658e-09
2.367725975e-09
2.387119868e-09
2.406942933e-09
2.427180796e-09
2.447822712e-09
2.468860995e-09
2.490290158e-09
2.51210547e-09
2.53430883e-09
2.556908919e-09
2.579915885e-09
2.603336304e-09
2.627175373e-09
2.651441448e-09
2.676144815e-09
2.701297129e-09
2.726911155e-09
2.753000648e-09
2.77958017e-09
2.806057383e-09
2.833006307e-09
2.862332837e-09
2.892739274e-09
2.923778107e-09
2.955470563e-09
2.98783803e-09
3.020901763e-09
3.054683505e-09
3.089205993e-09
3.124495173e-09
3.160577033e-09
3.197461784e-09
3.235165904e-09
3.273707856e-09
3.313111246e-09
3.353412655e-09
3.394661515e-09
3.436908633e-09
3.48018988e-09
3.524547476e-09
3.570024395e-09
3.61666136e-09
3.664499819e-09
3.71358311e-09
3.763956722e-09
3.814788867e-09
3.865719774e-09
3.918039019e-09
3.97180038e-09
4.02706396e-09
4.083905712e-09
4.1423717e-09
4.202512873e-09
4.264392805e-09
4.328081771e-09
4.393655561e-09
4.46119208e-09
4.530763484e-09
4.602445678e-09
4.676320272e-09
4.75247402e-09
4.830997646e-09
4.911986035e-09
4.992981867e-09
5.073810233e-09
5.157232948e-09
5.24337696e-09
5.332371138e-09
5.424328621e-09
5.519396992e-09
5.617725203e-09
5.719465751e-09
5.824777069e-09
5.933824844e-09
6.046785016e-09
6.167736623e-09
6.29266663e-09
6.41661881e-09
6.545416723e-09
6.679291831e-09
6.818483636e-09
6.963291794e-09
7.114019153e-09
7.270989618e-09
7.434579144e-09
7.605142441e-09
7.780366894e-09
7.951661494e-09
8.130395532e-09
8.316969212e-09
8.511817046e-09
8.715416004e-09
8.928185374e-09
9.150630806e-09
9.383212055e-09
9.610262619e-09
9.843671336e-09
1.009508361e-08
1.036613135e-08
1.065027426e-08
1.09480913e-08
1.125996926e-08
1.15793333e-08
1.189836292e-08
1.223367845e-08
1.258670842e-08
1.295978638e-08
1.33546301e-08
1.377413391e-08
1.422642945e-08
1.470105583e-08
1.520956686e-08
1.575670447e-08
1.63459489e-08
1.698373734e-08
1.765831112e-08
1.836938714e-08
1.918926142e-08
2.009807733e-08
2.108733895e-08
2.215217293e-08
2.334999194e-08
2.473954032e-08
2.627233697e-08
2.799898456e-08
2.998861246e-08
3.231284087e-08
3.497560156e-08
3.826349616e-08
4.215882091e-08
4.720572797e-08
5.36551664e-08
6.228674328e-08
7.444951697e-08
9.227872232e-08
1.196155579e-07
1.63430329e-07
2.360137773e-07
3.61748327e-07
5.854422605e-07
9.901622353e-07
1.725465006e-06
3.041542241e-06
5.24874945e-06
8.310277573e-06
1.105452637e-05
1.191084287e-05
1.058917684e-05
8.075080513e-06
5.420160413e-06
3.26768656e-06
1.792297896e-06
9.255491045e-07
4.496717107e-07
2.091524533e-07
9.394008241e-08
4.042177294e-08
1.638626444e-08
6.083462735e-09
2.124652266e-09
6.885975267e-10
2.267295712e-10
7.252943234e-11
2.352425678e-11
7.868293376e-12
2.69832238e-12
1.086074765e-12
5.066035775e-13
1.880460408e-13
1.124774264e-13
5.169088593e-14
2.785123816e-14
1.789203506e-14
9.773746078e-15
4.740418664e-15
3.601714438e-15
2.656862582e-15
1.8691884e-15
1.209378585e-15
6.546976025e-16
3.096507701e-16
2.675088739e-16
2.320285643e-16
2.020138937e-16
1.764901332e-16
1.546779806e-16
1.359525149e-16
1.198082301e-16
1.058338561e-16
9.369392137e-17
8.311276907e-17
7.386195255e-17
6.575138055e-17
5.862195746e-17
5.234007058e-17
4.679261115e-17
4.188362712e-17
3.753135589e-17
3.366585048e-17
3.022705799e-17
2.716321907e-17
2.442960903e-17
2.198744932e-17
1.980302502e-17
1.784694111e-17
1.609350281e-17
1.452019906e-17
1.310725941e-17
1.183728376e-17
1.069492731e-17
9.666631194e-18
8.740393819e-18
7.905573105e-18
7.152717659e-18
6.473421357e-18
5.860196829e-18
5.306366319e-18
4.805966778e-18
4.353666915e-18
3.944695458e-18
3.574777842e-18
3.240080817e-18
2.937163827e-18
2.662936226e-18
2.414619532e-18
2.189714163e-18
1.9859698e-18
1.80135932e-18
1.634055555e-18
1.482410675e-18
1.344937832e-18
1.22029477e-18
1.107269275e-18
1.004766059e-18
9.117951542e-19
8.274614431e-19
7.509553082e-19
6.815442351e-19
6.185652811e-19
5.614182973e-19
5.095598656e-19
4.624977933e-19
4.197862081e-19
3.810211082e-19
3.458363627e-19
3.139001036e-19
2.849114712e-19
2.585976721e-19
2.347113308e-19
2.130280885e-19
1.933444393e-19
1.754757695e-19
1.592545881e-19
1.445289227e-19
1.31160872e-19
1.190252884e-19
1.080085954e-19
9.800770709e-20
8.892905431e-20
8.06877014e-20
7.320654544e-20
6.641559135e-20
6.025129218e-20
5.465595505e-20
4.957719844e-20
4.496746288e-20
4.078356535e-20
3.698629598e-20
3.354005144e-20
3.041250345e-20
2.757429631e-20
2.499877375e-20
2.266173058e-20
2.054118736e-20
1.861718527e-20
1.687160052e-20
1.52879764e-20
1.385136882e-20
1.254820843e-20
1.13661737e-20
1.029407673e-20
9.321758824e-21
8.439996042e-21
7.64041338e-21
6.91540698e-21
6.258073088e-21
5.662143537e-21
5.121928059e-21
4.632260731e-21
4.188451787e-21
3.78624404e-21
3.421772861e-21
3.091530833e-21
2.792333898e-21
2.521292306e-21
2.275783392e-21
2.053426818e-21
1.852062805e-21
1.6697312e-21
1.504653548e-21
1.35521626e-21
1.219954941e-21
1.097541405e-21
9.867705721e-22
8.865496062e-22
7.958869842e-22
7.138834325e-22
6.397235774e-22
5.726678106e-22
5.120456301e-22
4.572492323e-22
4.077273241e-22
3.629800179e-22
3.225545596e-22