/*--------------------------------*- C++ -*----------------------------------*\
| =========                 |                                                 |
| \\      /  F ield         | OpenFOAM: The Open Source CFD Toolbox           |
|  \\    /   O peration     | Version:  v2006                                 |
|   \\  /    A nd           | Website:  www.openfoam.com                      |
|    \\/     M anipulation  |                                                 |
\*---------------------------------------------------------------------------*/
FoamFile
{
    version     2.0;
    format      ascii;
    class       volScalarField;
    location    "0.1";
    object      HO2;
}
// * * * * * * * * * * * * * * * * * * * * * * * * * * * * * * * * * * * * * //

dimensions      [0 0 0 0 0 0 0];


internalField   nonuniform List<scalar> 
72000
(
1.77652051e-06
1.776548201e-06
1.776602156e-06
1.776680069e-06
1.77677943e-06
1.776897771e-06
1.777032721e-06
1.777182164e-06
1.777344176e-06
1.777517096e-06
1.777699431e-06
1.777889945e-06
1.778087583e-06
1.778291436e-06
1.778500762e-06
1.778714944e-06
1.778933456e-06
1.779155915e-06
1.779382001e-06
1.779611455e-06
1.779844114e-06
1.78007991e-06
1.780318686e-06
1.780560359e-06
1.780804899e-06
1.781052248e-06
1.781302374e-06
1.781555354e-06
1.781811283e-06
1.782070281e-06
1.782332457e-06
1.782597913e-06
1.782866749e-06
1.783139039e-06
1.78341491e-06
1.783694493e-06
1.783977905e-06
1.784265266e-06
1.784556741e-06
1.784852474e-06
1.785152604e-06
1.785457281e-06
1.785766639e-06
1.786080841e-06
1.786400028e-06
1.786724349e-06
1.787053945e-06
1.787388962e-06
1.787729495e-06
1.788075604e-06
1.788428898e-06
1.788788918e-06
1.789155135e-06
1.789527823e-06
1.789907244e-06
1.79029362e-06
1.790687135e-06
1.791088021e-06
1.791496462e-06
1.791912636e-06
1.79233675e-06
1.792769005e-06
1.793209691e-06
1.793659034e-06
1.794117275e-06
1.794595482e-06
1.795178823e-06
1.795773894e-06
1.796381183e-06
1.79700109e-06
1.797633955e-06
1.798280159e-06
1.79894002e-06
1.799613973e-06
1.800302456e-06
1.801005819e-06
1.801724615e-06
1.802459143e-06
1.803209836e-06
1.803977126e-06
1.804761385e-06
1.805563236e-06
1.806383188e-06
1.807221866e-06
1.808079847e-06
1.808957771e-06
1.809856155e-06
1.810775496e-06
1.811715609e-06
1.812677601e-06
1.813662218e-06
1.814670313e-06
1.815702635e-06
1.816759734e-06
1.81784245e-06
1.818951361e-06
1.820087249e-06
1.821250811e-06
1.822442501e-06
1.823663413e-06
1.824914173e-06
1.826195396e-06
1.8275076e-06
1.828851111e-06
1.830226245e-06
1.831633161e-06
1.833072051e-06
1.834542641e-06
1.836044019e-06
1.837573913e-06
1.839132048e-06
1.840715646e-06
1.84232057e-06
1.843941621e-06
1.845630737e-06
1.847576092e-06
1.848456886e-06
1.854620077e-06
1.842076669e-06
1.870101281e-06
1.843969296e-06
1.886605403e-06
1.845440521e-06
1.904372778e-06
1.846741571e-06
1.923109545e-06
1.847943472e-06
1.943470154e-06
1.849213602e-06
1.966512234e-06
1.850401874e-06
1.993179102e-06
1.851564848e-06
2.026762256e-06
1.852610595e-06
2.088505549e-06
1.85623447e-06
2.111600604e-06
1.863291414e-06
2.133342731e-06
1.873768577e-06
2.160416728e-06
1.889354833e-06
2.197267072e-06
1.912836421e-06
2.244125506e-06
1.942153883e-06
2.301573142e-06
1.974472564e-06
2.394252099e-06
2.01453212e-06
2.481878076e-06
2.067654636e-06
2.673598132e-06
2.130343334e-06
2.741692475e-06
2.16399789e-06
2.128218993e-06
2.036255906e-06
3.020248224e-06
1.585662489e-06
3.674221393e-05
0.0001093323736
0.0001071497927
8.932415658e-05
7.773198086e-05
6.934396118e-05
6.222275648e-05
5.547288414e-05
4.890243812e-05
4.270969346e-05
3.686239548e-05
3.128777358e-05
2.642909802e-05
2.237271752e-05
1.874707491e-05
1.570010669e-05
1.326323105e-05
1.132424556e-05
9.670436706e-06
8.326794222e-06
7.221614052e-06
6.314546696e-06
5.542074108e-06
4.9112641e-06
4.376526784e-06
3.917247906e-06
3.513951454e-06
3.147919273e-06
2.825911267e-06
2.543541956e-06
2.296558051e-06
2.07416961e-06
1.872693112e-06
1.691211479e-06
1.521465826e-06
1.354684432e-06
1.201921518e-06
1.066049041e-06
9.466842298e-07
8.422379335e-07
7.508259473e-07
6.706464995e-07
6.001102932e-07
5.378628453e-07
4.827651064e-07
4.338618274e-07
3.903498406e-07
3.515504548e-07
3.168867407e-07
2.858652846e-07
2.580616473e-07
2.331087874e-07
2.106877782e-07
1.905203093e-07
1.723625837e-07
1.560003085e-07
1.412445502e-07
1.279282776e-07
1.159034605e-07
1.050386174e-07
9.521673253e-08
8.633347566e-08
7.829567416e-08
7.101999574e-08
6.443180814e-08
5.846418815e-08
5.305705762e-08
4.815642778e-08
4.371373635e-08
3.968526451e-08
3.60316226e-08
3.271729579e-08
2.971024152e-08
2.698153237e-08
2.450503855e-08
2.225714507e-08
2.021649959e-08
1.836378709e-08
1.668152848e-08
1.51539001e-08
1.37665721e-08
1.250656324e-08
1.136211055e-08
1.032255216e-08
9.378221823e-09
8.520353922e-09
7.740997934e-09
7.032941216e-09
6.389639378e-09
5.805153396e-09
5.274092806e-09
4.791564358e-09
4.353125583e-09
3.9547428e-09
3.592753092e-09
3.263829913e-09
2.964951907e-09
2.693374683e-09
2.446605242e-09
2.222378778e-09
2.018637676e-09
1.833512441e-09
1.665304404e-09
1.51247006e-09
1.373606819e-09
1.247440108e-09
1.132811641e-09
1.028668788e-09
9.340549051e-10
8.481005682e-10
7.700156115e-10
6.990818841e-10
6.346466907e-10
5.761168133e-10
5.229530834e-10
4.746654697e-10
4.308085916e-10
3.909776518e-10
3.548047441e-10
3.219554868e-10
2.921259816e-10
2.650400239e-10
2.404465964e-10
2.181175642e-10
1.978456066e-10
1.79442305e-10
1.627364305e-10
1.475723859e-10
1.338087724e-10
1.213171022e-10
1.099806171e-10
9.9693231e-11
9.035855065e-11
8.188899531e-11
7.420498972e-11
6.7234237e-11
6.091106074e-11
5.517579397e-11
4.997423495e-11
4.52571453e-11
4.097979964e-11
3.710157756e-11
3.358558591e-11
3.039831288e-11
2.750933051e-11
2.489100046e-11
2.251822951e-11
2.036823402e-11
1.842032441e-11
1.665571486e-11
1.505735715e-11
1.360976902e-11
1.229890161e-11
1.111199741e-11
1.003748212e-11
9.06484777e-12
8.184566168e-12
7.387986031e-12
6.667258231e-12
6.015261439e-12
5.425534526e-12
4.892223257e-12
4.410006202e-12
3.974067025e-12
3.580036182e-12
3.223946102e-12
2.902210921e-12
2.611566438e-12
2.34906339e-12
2.112024823e-12
1.898024164e-12
1.704862011e-12
1.530550395e-12
1.373286399e-12
1.23143243e-12
1.103505245e-12
9.881691192e-13
8.842115653e-13
7.905338546e-13
7.061412336e-13
6.301331885e-13
5.616935082e-13
5.00085728e-13
4.44646814e-13
3.947723464e-13
3.499157036e-13
3.095858942e-13
2.733367853e-13
2.407638205e-13
2.115074238e-13
1.852392706e-13
1.616623367e-13
1.405069485e-13
1.215317234e-13
1.045177482e-13
8.926550244e-14
7.560142874e-14
6.336222796e-14
5.240411049e-14
4.259477809e-14
3.382527814e-14
2.598224062e-14
1.897535565e-14
1.27134877e-14
7.119147125e-15
2.130512839e-15
0
0
0
0
0
0
0
0
0
0
0
0
0
0
0
0
0
0
0
0
0
0
0
0
0
0
0
0
0
0
0
0
0
0
0
0
0
0
0
0
0
0
0
0
0
0
0
0
0
0
0
0
0
0
0
0
0
0
0
0
0
0
0
0
0
0
0
0
0
0
0
0
0
0
0
0
0
0
0
0
0
0
0
0
0
0
0
0
0
0
0
0
0
0
0
0
0
0
0
0
0
0
0
0
0
0
0
0
0
0
0
0
0
0
0
0
0
0
0
0
0
0
0
0
0
0
0
0
0
0
0
0
0
0
0
0
0
0
0
0
0
0
0
0
0
0
0
0
0
0
0
0
0
0
0
0
0
0
0
0
0
0
0
0
0
0
0
0
0
0
0
0
0
0
0
0
0
0
0
0
0
0
0
0
0
0
0
0
0
0
0
0
0
0
0
0
0
0
0
0
0
0
0
0
0
0
0
0
0
0
0
0
0
0
0
0
0
0
0
0
0
0
0
0
0
0
0
0
0
0
0
0
0
2.592035727e-06
2.592614686e-06
2.593721105e-06
2.59530129e-06
2.597302431e-06
2.599675516e-06
2.602375414e-06
2.605362617e-06
2.608601974e-06
2.61206331e-06
2.615720031e-06
2.619550158e-06
2.623534964e-06
2.627658635e-06
2.631908041e-06
2.636272465e-06
2.640742736e-06
2.645312213e-06
2.649975524e-06
2.654728275e-06
2.659567453e-06
2.664490346e-06
2.669495141e-06
2.674580537e-06
2.679746032e-06
2.684991054e-06
2.690314876e-06
2.695718967e-06
2.701205569e-06
2.706776834e-06
2.712434853e-06
2.71818175e-06
2.724019758e-06
2.729951115e-06
2.735978639e-06
2.742104884e-06
2.748331844e-06
2.754661682e-06
2.761097632e-06
2.767643207e-06
2.774301796e-06
2.781076834e-06
2.787971328e-06
2.79498851e-06
2.802130873e-06
2.809400343e-06
2.816797474e-06
2.824320502e-06
2.831963462e-06
2.839713706e-06
2.847413967e-06
2.855130543e-06
2.86296555e-06
2.870936823e-06
2.879059114e-06
2.887343181e-06
2.895797109e-06
2.90442807e-06
2.91324232e-06
2.922245828e-06
2.931444497e-06
2.940843938e-06
2.950450692e-06
2.960270894e-06
2.970310421e-06
2.980572878e-06
2.991059508e-06
3.0017911e-06
3.012775082e-06
3.024019812e-06
3.035532598e-06
3.047317272e-06
3.059370499e-06
3.071716489e-06
3.084369368e-06
3.097340118e-06
3.110641327e-06
3.124283054e-06
3.138277505e-06
3.152639276e-06
3.167384867e-06
3.182533787e-06
3.198098776e-06
3.214093339e-06
3.230530954e-06
3.247429152e-06
3.26480398e-06
3.282673119e-06
3.300396986e-06
3.318567884e-06
3.337276429e-06
3.35655009e-06
3.376417748e-06
3.396907458e-06
3.418050018e-06
3.439874274e-06
3.462412854e-06
3.48569271e-06
3.509656834e-06
3.534409238e-06
3.559984918e-06
3.586426715e-06
3.613779761e-06
3.642084514e-06
3.671377367e-06
3.701697461e-06
3.733093095e-06
3.765609686e-06
3.798945121e-06
3.831901041e-06
3.866040447e-06
3.901378487e-06
3.937948968e-06
3.975726294e-06
4.014575424e-06
4.054371801e-06
4.095300837e-06
4.136259196e-06
4.180829793e-06
4.216079435e-06
4.263740321e-06
4.29632363e-06
4.349573401e-06
4.381349129e-06
4.442256648e-06
4.474354008e-06
4.544271238e-06
4.576829982e-06
4.654669321e-06
4.687019982e-06
4.775396135e-06
4.808839011e-06
4.910498826e-06
4.945102556e-06
5.064043975e-06
5.101877963e-06
5.26214811e-06
5.329923168e-06
5.530809328e-06
5.631184775e-06
5.862948084e-06
5.989009551e-06
6.284088863e-06
6.448467405e-06
6.806457613e-06
6.979499497e-06
7.407139562e-06
7.644286908e-06
8.187465317e-06
8.506627218e-06
9.20698879e-06
9.621610559e-06
1.05562889e-05
1.106223389e-05
1.235522715e-05
1.308978547e-05
1.514942601e-05
1.672188398e-05
1.868170733e-05
2.173764092e-05
3.150150537e-05
6.263385032e-05
0.0001088179796
0.0001167604303
0.0001085768561
9.784640567e-05
8.7301502e-05
7.738180486e-05
6.815140558e-05
5.960992617e-05
5.186907327e-05
4.454277281e-05
3.785706368e-05
3.197152155e-05
2.674639578e-05
2.224110737e-05
1.854933498e-05
1.550968144e-05
1.3043407e-05
1.097631977e-05
9.328258178e-06
8.032555804e-06
6.938874789e-06
6.007476907e-06
5.212657613e-06
4.581306001e-06
4.081225566e-06
3.650666648e-06
3.271191573e-06
2.935260683e-06
2.637020541e-06
2.368944243e-06
2.127500045e-06
1.908979704e-06
1.708147041e-06
1.522971969e-06
1.353723126e-06
1.202156306e-06
1.068278786e-06
9.507306712e-07
8.476413866e-07
7.57112416e-07
6.774183611e-07
6.070642154e-07
5.447806544e-07
4.894971732e-07
4.403105175e-07
3.964556004e-07
3.572810109e-07
3.222290065e-07
2.908194213e-07
2.626367352e-07
2.373197301e-07
2.145530847e-07
1.940605169e-07
1.755991463e-07
1.589548206e-07
1.439382178e-07
1.303815645e-07
1.181358631e-07
1.070685316e-07
9.706138545e-08
8.800890537e-08
7.981674096e-08
7.240041596e-08
6.568420257e-08
5.960013952e-08
5.408717321e-08
4.90904041e-08
4.456042406e-08
4.045273198e-08
3.672721726e-08
3.334770234e-08
3.028153726e-08
2.749923862e-08
2.497416883e-08
2.268224972e-08
2.060170693e-08
1.871284133e-08
1.69978245e-08
1.54405154e-08
1.402629592e-08
1.274192317e-08
1.157539681e-08
1.051583968e-08
9.553390326e-09
8.679106223e-09
7.884876507e-09
7.163343279e-09
6.507830542e-09
5.912280063e-09
5.371193414e-09
4.879579557e-09
4.432907467e-09
4.027063267e-09
3.658311415e-09
3.323259599e-09
3.018826905e-09
2.742215003e-09
2.490882047e-09
2.262518998e-09
2.055028173e-09
1.866503786e-09
1.695214299e-09
1.539586433e-09
1.398190625e-09
1.26972787e-09
1.153017743e-09
1.046987556e-09
9.506624939e-10
8.631566647e-10
7.836649807e-10
7.114557685e-10
6.458640777e-10
5.862855797e-10
5.321710394e-10
4.830213009e-10
4.383827105e-10
3.978429747e-10
3.61027386e-10
3.275953999e-10
2.972375318e-10
2.696725096e-10
2.446447253e-10
2.219218772e-10
2.01292866e-10
1.825658516e-10
1.655664982e-10
1.501363932e-10
1.361315803e-10
1.23421258e-10
1.118865707e-10
1.014195228e-10
9.192199439e-11
8.330484006e-11
7.548705981e-11
6.839507062e-11
6.196202539e-11
5.612719794e-11
5.08354249e-11
4.603659388e-11
4.168518955e-11
3.773987592e-11
3.416310779e-11
3.092078224e-11
2.798193602e-11
2.531844828e-11
2.290478278e-11
2.071775799e-11
1.873632156e-11
1.694135915e-11
1.531552685e-11
1.384306811e-11
1.250969311e-11
1.130241994e-11
1.020947377e-11
9.22016827e-12
8.32480499e-12
7.514584794e-12
6.781520343e-12
6.118366186e-12
5.518556538e-12
4.976129617e-12
4.48567213e-12
4.042289185e-12
3.64153149e-12
3.279366467e-12
2.952141116e-12
2.656541481e-12
2.389563756e-12
2.148484025e-12
1.930838585e-12
1.73439073e-12
1.557112065e-12
1.397171362e-12
1.252903049e-12
1.122802047e-12
1.005506172e-12
8.99783598e-13
8.045160034e-13
7.18691829e-13
6.413923584e-13
5.717905612e-13
5.091403509e-13
4.52759392e-13
4.020402049e-13
3.564265123e-13
3.154130443e-13
2.785509992e-13
2.454291118e-13
2.156781982e-13
1.889677868e-13
1.649916645e-13
1.434791793e-13
1.241808817e-13
1.068797256e-13
9.137161629e-14
7.747824807e-14
6.503386072e-14
5.389012518e-14
4.392048083e-14
3.500257498e-14
2.702671899e-14
1.990343838e-14
1.353835247e-14
7.850297076e-15
2.779241732e-15
0
0
0
0
0
0
0
0
0
0
0
0
0
0
0
0
0
0
0
0
0
0
0
0
0
0
0
0
0
0
0
0
0
0
0
0
0
0
0
0
0
0
0
0
0
0
0
0
0
0
0
0
0
0
0
0
0
0
0
0
0
0
0
0
0
0
0
0
0
0
0
0
0
0
0
0
0
0
0
0
0
0
0
0
0
0
0
0
0
0
0
0
0
0
0
0
0
0
0
0
0
0
0
0
0
0
0
0
0
0
0
0
0
0
0
0
0
0
0
0
0
0
0
0
0
0
0
0
0
0
0
0
0
0
0
0
0
0
0
0
0
0
0
0
0
0
0
0
0
0
0
0
0
0
0
0
0
0
0
0
0
0
0
0
0
0
0
0
0
0
0
0
0
0
0
0
0
0
0
0
0
0
0
0
0
0
0
0
0
0
0
0
0
0
0
0
0
0
0
0
0
0
0
0
0
0
0
0
0
0
0
0
0
0
0
0
0
0
0
0
0
0
0
0
0
0
0
0
0
0
0
0
0
3.217488134e-06
3.218417018e-06
3.220178465e-06
3.222682262e-06
3.225843403e-06
3.229583968e-06
3.233833792e-06
3.238530821e-06
3.243620633e-06
3.249056098e-06
3.254796612e-06
3.260807941e-06
3.267061099e-06
3.273531847e-06
3.280199787e-06
3.287048249e-06
3.2940634e-06
3.301234703e-06
3.308553979e-06
3.316014652e-06
3.323611719e-06
3.331341021e-06
3.339199546e-06
3.347185249e-06
3.355297107e-06
3.363534828e-06
3.371578318e-06
3.379505245e-06
3.387552582e-06
3.395722771e-06
3.404018285e-06
3.412441781e-06
3.420996291e-06
3.429685287e-06
3.438512699e-06
3.447482119e-06
3.456595338e-06
3.465854463e-06
3.475263977e-06
3.484828969e-06
3.494554331e-06
3.504444669e-06
3.514504128e-06
3.524736771e-06
3.535146108e-06
3.545734651e-06
3.556503011e-06
3.567448158e-06
3.578561372e-06
3.589821685e-06
3.601175362e-06
3.612648983e-06
3.624291018e-06
3.636124033e-06
3.648175662e-06
3.66046222e-06
3.672995599e-06
3.685785694e-06
3.698841397e-06
3.712171674e-06
3.725786457e-06
3.739692185e-06
3.753897124e-06
3.768411014e-06
3.783243694e-06
3.798404458e-06
3.813127964e-06
3.827675166e-06
3.842551961e-06
3.857770336e-06
3.873342391e-06
3.889266479e-06
3.9054466e-06
3.922014439e-06
3.938982811e-06
3.956364759e-06
3.974174215e-06
3.992425233e-06
4.011132715e-06
4.030314196e-06
4.049994974e-06
4.070218749e-06
4.090990313e-06
4.112318732e-06
4.134220938e-06
4.156718734e-06
4.179834966e-06
4.203593122e-06
4.228014869e-06
4.251256845e-06
4.27449958e-06
4.298420219e-06
4.323058331e-06
4.348452198e-06
4.374636315e-06
4.401651934e-06
4.429552429e-06
4.458359769e-06
4.488122049e-06
4.518859986e-06
4.550593763e-06
4.583397626e-06
4.617337347e-06
4.65247003e-06
4.687195817e-06
4.721153652e-06
4.756329204e-06
4.792776975e-06
4.830581443e-06
4.86982285e-06
4.910535393e-06
4.952682561e-06
4.996456132e-06
5.041902643e-06
5.089056351e-06
5.137959911e-06
5.185967377e-06
5.234352427e-06
5.284596388e-06
5.336243139e-06
5.390498782e-06
5.446318384e-06
5.505717672e-06
5.566923891e-06
5.632690111e-06
5.700508055e-06
5.77393187e-06
5.849357897e-06
5.9312979e-06
6.012884123e-06
6.100412466e-06
6.19076535e-06
6.289733924e-06
6.392256422e-06
6.505561178e-06
6.624273343e-06
6.758374042e-06
6.893929767e-06
7.041996175e-06
7.200006685e-06
7.378953549e-06
7.558070469e-06
7.762439913e-06
7.97662065e-06
8.212774953e-06
8.458183899e-06
8.734048325e-06
9.028088073e-06
9.369035167e-06
9.73161457e-06
1.01613377e-05
1.06274836e-05
1.1198896e-05
1.184356305e-05
1.269218944e-05
1.372072456e-05
1.521517484e-05
1.720641576e-05
2.027623372e-05
2.577971149e-05
3.794435864e-05
6.679194278e-05
0.0001039920635
0.0001240306974
0.0001277094809
0.000122707985
0.0001136683601
0.0001028736471
9.140410508e-05
8.002619418e-05
6.912549981e-05
5.903439304e-05
5.002632575e-05
4.213420094e-05
3.528157556e-05
2.945608349e-05
2.456216175e-05
2.046481711e-05
1.706969317e-05
1.435047908e-05
1.207296135e-05
1.02500205e-05
8.732453958e-06
7.448603734e-06
6.446622444e-06
5.61552506e-06
4.899960207e-06
4.268499617e-06
3.715732736e-06
3.236353081e-06
2.882673924e-06
2.567048558e-06
2.286820565e-06
2.03717614e-06
1.813857969e-06
1.613993364e-06
1.435821654e-06
1.278110675e-06
1.139124221e-06
1.0167786e-06
9.0897967e-07
8.138131226e-07
7.296043466e-07
6.549163841e-07
5.885251981e-07
5.29389185e-07
4.766191953e-07
4.294527279e-07
3.87232983e-07
3.493915972e-07
3.154346299e-07
2.84930983e-07
2.575031811e-07
2.32819633e-07
2.105882145e-07
1.905509084e-07
1.724792875e-07
1.561707118e-07
1.414450654e-07
1.281419814e-07
1.161184473e-07
1.052467438e-07
9.541265889e-08
8.651393315e-08
7.845890704e-08
7.116533763e-08
6.455936087e-08
5.857457986e-08
5.315126134e-08
4.823562707e-08
4.377922671e-08
3.973838188e-08
3.607369238e-08
3.274959824e-08
2.973398819e-08
2.699785219e-08
2.451497006e-08
2.226163351e-08
2.021639729e-08
1.835985639e-08
1.667444607e-08
1.514426262e-08
1.375490195e-08
1.249331492e-08
1.134767686e-08
1.030727028e-08
9.362379153e-09
8.504193532e-09
7.724723713e-09
7.016722507e-09
6.373615299e-09
5.789436722e-09
5.25877347e-09
4.776712587e-09
4.338794702e-09
3.940971695e-09
3.579568437e-09
3.25124806e-09
2.952980594e-09
2.682014506e-09
2.435850934e-09
2.212220323e-09
2.009061264e-09
1.824501276e-09
1.65683943e-09
1.504530542e-09
1.366170855e-09
1.240485048e-09
1.126314445e-09
1.022606312e-09
9.284041491e-10
8.428388653e-10
7.651207865e-10
6.945323769e-10
6.304216427e-10
5.721961378e-10
5.193175238e-10
4.712966233e-10
4.276889291e-10
3.880905231e-10
3.521343722e-10
3.194869648e-10
2.898452426e-10
2.629338311e-10
2.385025092e-10
2.163239124e-10
1.961914532e-10
1.77917418e-10
1.613312556e-10
1.462780008e-10
1.326168622e-10
1.202199217e-10
1.089709654e-10
9.876441263e-11
8.9504349e-11
8.110363591e-11
7.348312159e-11
6.657090189e-11
6.030166579e-11
5.461608813e-11
4.946028452e-11
4.478531478e-11
4.054673356e-11
3.670417431e-11
3.322098107e-11
3.006386673e-11
2.720260699e-11
2.460975401e-11
2.22603942e-11
2.013190004e-11
1.820373378e-11
1.645725692e-11
1.487553963e-11
1.34432253e-11
1.214637034e-11
1.097232164e-11
9.909597703e-12
8.947783385e-12
8.077419742e-12
7.289931553e-12
6.577536057e-12
5.933176774e-12
5.350451704e-12
4.823550256e-12
4.347209397e-12
3.916651984e-12
3.527547215e-12
3.175970859e-12
2.858367392e-12
2.571506336e-12
2.312463195e-12
2.07859305e-12
1.867491211e-12
1.676983175e-12
1.505098554e-12
1.350052351e-12
1.210223878e-12
1.084153858e-12
9.705166999e-13
8.681110038e-13
7.758539138e-13
6.92755743e-13
6.179281016e-13
5.505686154e-13
4.899494749e-13
4.35413568e-13
3.863617665e-13
3.422588311e-13
3.026147875e-13
2.669936248e-13
2.349952537e-13
2.062625093e-13
1.804710586e-13
1.573258044e-13
1.365633207e-13
1.179470242e-13
1.012607946e-13
8.630841723e-14
7.291678385e-14
6.092450182e-14
5.019360363e-14
4.059510866e-14
3.200869842e-14
2.433800455e-14
1.748601121e-14
1.136460677e-14
5.901331429e-15
1.026451466e-15
0
0
0
0
0
0
0
0
0
0
0
0
0
0
0
0
0
0
0
0
0
0
0
0
0
0
0
0
0
0
0
0
0
0
0
0
0
0
0
0
0
0
0
0
0
0
0
0
0
0
0
0
0
0
0
0
0
0
0
0
0
0
0
0
0
0
0
0
0
0
0
0
0
0
0
0
0
0
0
0
0
0
0
0
0
0
0
0
0
0
0
0
0
0
0
0
0
0
0
0
0
0
0
0
0
0
0
0
0
0
0
0
0
0
0
0
0
0
0
0
0
0
0
0
0
0
0
0
0
0
0
0
0
0
0
0
0
0
0
0
0
0
0
0
0
0
0
0
0
0
0
0
0
0
0
0
0
0
0
0
0
0
0
0
0
0
0
0
0
0
0
0
0
0
0
0
0
0
0
0
0
0
0
0
0
0
0
0
0
0
0
0
0
0
0
0
0
0
0
0
0
0
0
0
0
0
0
0
0
0
0
0
0
0
0
0
0
0
0
0
0
0
0
0
0
0
0
0
0
0
0
0
3.597525248e-06
3.598485461e-06
3.600297025e-06
3.602861153e-06
3.606088238e-06
3.609898006e-06
3.61421932e-06
3.618989778e-06
3.624155071e-06
3.629668323e-06
3.635489478e-06
3.641584827e-06
3.647926118e-06
3.654489662e-06
3.661255526e-06
3.668206992e-06
3.675330326e-06
3.682615429e-06
3.690054567e-06
3.697641382e-06
3.705370679e-06
3.713238094e-06
3.721239901e-06
3.729373335e-06
3.737637349e-06
3.746032552e-06
3.754067742e-06
3.761861194e-06
3.769774902e-06
3.777810139e-06
3.7859686e-06
3.7942524e-06
3.802664135e-06
3.811207039e-06
3.819885529e-06
3.828707376e-06
3.837668494e-06
3.846764962e-06
3.85600356e-06
3.865390706e-06
3.874931022e-06
3.884628438e-06
3.894486481e-06
3.904508502e-06
3.914697729e-06
3.925056879e-06
3.935586625e-06
3.946283675e-06
3.957142275e-06
3.968154145e-06
3.97931238e-06
3.990627398e-06
4.002071318e-06
4.0135849e-06
4.025304748e-06
4.037243433e-06
4.049411191e-06
4.061816291e-06
4.074466112e-06
4.087367777e-06
4.099198283e-06
4.111104854e-06
4.123248206e-06
4.135637446e-06
4.148281019e-06
4.161187033e-06
4.174360447e-06
4.187810987e-06
4.201550656e-06
4.215590318e-06
4.229942131e-06
4.24462136e-06
4.259647402e-06
4.275021036e-06
4.290749978e-06
4.3068444e-06
4.323315638e-06
4.340175422e-06
4.357435032e-06
4.375102503e-06
4.393193906e-06
4.410001731e-06
4.426752057e-06
4.443913819e-06
4.461501634e-06
4.479532745e-06
4.498025336e-06
4.516997598e-06
4.536467918e-06
4.55645651e-06
4.576990257e-06
4.598096385e-06
4.619828637e-06
4.642234239e-06
4.665322913e-06
4.688794851e-06
4.710708407e-06
4.733305799e-06
4.756623147e-06
4.780695698e-06
4.805431666e-06
4.831001482e-06
4.857476259e-06
4.884920993e-06
4.913345023e-06
4.942790902e-06
4.973270757e-06
5.002236284e-06
5.032317253e-06
5.06359435e-06
5.096155479e-06
5.130106953e-06
5.165516382e-06
5.202469602e-06
5.241081253e-06
5.281495073e-06
5.321739308e-06
5.363499871e-06
5.40754092e-06
5.454006413e-06
5.503065658e-06
5.554769692e-06
5.609355891e-06
5.666837218e-06
5.727521616e-06
5.790435631e-06
5.855834205e-06
5.924732478e-06
5.997493976e-06
6.074105038e-06
6.15522409e-06
6.240816447e-06
6.3312169e-06
6.424079174e-06
6.521533829e-06
6.623585212e-06
6.730727137e-06
6.842630449e-06
6.958825706e-06
7.081593896e-06
7.211142105e-06
7.350555713e-06
7.499531665e-06
7.659195397e-06
7.834079164e-06
8.020353982e-06
8.230137031e-06
8.459544556e-06
8.718033106e-06
9.011741404e-06
9.351767774e-06
9.745772485e-06
1.022366776e-05
1.080428355e-05
1.155283198e-05
1.253888916e-05
1.391566058e-05
1.591655971e-05
1.911051267e-05
2.487122452e-05
3.673333947e-05
5.994439512e-05
9.100590517e-05
0.0001173193823
0.000132233781
0.0001364858086
0.0001334009072
0.0001258295697
0.0001158318693
0.0001045766127
9.272590395e-05
8.081703946e-05
6.935755068e-05
5.877022291e-05
4.937012184e-05
4.132525811e-05
3.458289753e-05
2.893180355e-05
2.42093915e-05
2.029451495e-05
1.704815357e-05
1.433625119e-05
1.216625509e-05
1.029643001e-05
8.778978867e-06
7.514910511e-06
6.420948941e-06
5.52445732e-06
4.805472894e-06
4.178122323e-06
3.628420594e-06
3.145079321e-06
2.719613576e-06
2.399320185e-06
2.134866054e-06
1.900865031e-06
1.694001543e-06
1.511336865e-06
1.35007325e-06
1.207566521e-06
1.081423835e-06
9.695589596e-07
8.701729697e-07
7.817175975e-07
7.028607873e-07
6.324563209e-07
5.695137008e-07
5.131727967e-07
4.62684778e-07
4.17395509e-07
3.767321073e-07
3.401907746e-07
3.073278378e-07
2.777516266e-07
2.511156446e-07
2.27112784e-07
2.054703407e-07
1.859458404e-07
1.683233373e-07
1.524102676e-07
1.380346944e-07
1.250429227e-07
1.132974213e-07
1.026749918e-07
9.306517484e-08
8.436884686e-08
7.649698394e-08
6.936957303e-08
6.29146474e-08
5.706743567e-08
5.176960718e-08
4.696860025e-08
4.261702564e-08
3.867213676e-08
3.509535495e-08
3.185184932e-08
2.891015879e-08
2.624185496e-08
2.38212403e-08
2.162507792e-08
1.963234904e-08
1.78240359e-08
1.61829258e-08
1.469343593e-08
1.334145542e-08
1.211420334e-08
1.100010083e-08
9.988655774e-09
9.070359221e-09
8.236591407e-09
7.479537519e-09
6.792111317e-09
6.167886288e-09
5.601033399e-09
5.086264885e-09
4.61878336e-09
4.194235936e-09
3.808672499e-09
3.458508163e-09
3.140489167e-09
2.851662035e-09
2.589345644e-09
2.351105937e-09
2.134732969e-09
1.938220183e-09
1.759745556e-09
1.597654546e-09
1.450444618e-09
1.316751221e-09
1.195335055e-09
1.085070548e-09
9.849353573e-10
8.940009054e-10
8.114237339e-10
7.364376877e-10
6.683468197e-10
6.065189435e-10
5.503797802e-10
4.994076491e-10
4.531286493e-10
4.111122725e-10
3.72967435e-10
3.383388629e-10
3.069038161e-10
2.783691024e-10
2.524683861e-10
2.289597177e-10
2.076233052e-10
1.882594951e-10
1.706869197e-10
1.547408283e-10
1.402715703e-10
1.271432107e-10
1.152322733e-10
1.044266064e-10
9.462434179e-11
8.573295964e-11
7.766842628e-11
7.035442372e-11
6.372164103e-11
5.770713359e-11
5.225373811e-11
4.730954674e-11
4.282742411e-11
3.876457254e-11
3.508213033e-11
3.174481609e-11
2.872059416e-11
2.598038726e-11
2.349779307e-11
2.124884456e-11
1.921179467e-11
1.736689463e-11
1.569622665e-11
1.41835316e-11
1.281404455e-11
1.15743813e-11
1.0452385e-11
9.437033202e-12
8.518320794e-12
7.687179224e-12
6.935375221e-12
6.255440373e-12
5.640607664e-12
5.084735884e-12
4.582258065e-12
4.128124539e-12
3.717760949e-12
3.347016165e-12
3.012129169e-12
2.709690969e-12
2.436615125e-12
2.190101141e-12
1.967612562e-12
1.766851162e-12
1.585736903e-12
1.422380651e-12
1.275078585e-12
1.142286068e-12
1.022602993e-12
9.14764144e-13
8.176198627e-13
7.301321133e-13
6.513636701e-13
5.804670166e-13
5.166745654e-13
4.592870838e-13
4.076818344e-13
3.612883434e-13
3.195924811e-13
2.821312818e-13
2.484875123e-13
2.182806267e-13
1.911699453e-13
1.668447022e-13
1.450282786e-13
1.254712215e-13
1.079415842e-13
9.223934755e-14
7.817627651e-14
6.558812128e-14
5.432528509e-14
4.4249434e-14
3.524491123e-14
2.719775502e-14
2.000957409e-14
1.359353967e-14
7.867374546e-15
2.762508989e-15
0
0
0
0
0
0
0
0
0
0
0
0
0
0
0
0
0
0
0
0
0
0
0
0
0
0
0
0
0
0
0
0
0
0
0
0
0
0
0
0
0
0
0
0
0
0
0
0
0
0
0
0
0
0
0
0
0
0
0
0
0
0
0
0
0
0
0
0
0
0
0
0
0
0
0
0
0
0
0
0
0
0
0
0
0
0
0
0
0
0
0
0
0
0
0
0
0
0
0
0
0
0
0
0
0
0
0
0
0
0
0
0
0
0
0
0
0
0
0
0
0
0
0
0
0
0
0
0
0
0
0
0
0
0
0
0
0
0
0
0
0
0
0
0
0
0
0
0
0
0
0
0
0
0
0
0
0
0
0
0
0
0
0
0
0
0
0
0
0
0
0
0
0
0
0
0
0
0
0
0
0
0
0
0
0
0
0
0
0
0
0
0
0
0
0
0
0
0
0
0
0
0
0
0
0
0
0
0
0
0
0
0
0
0
0
0
0
0
0
0
0
0
0
0
0
0
0
0
0
0
0
3.693372083e-06
3.694136504e-06
3.695573579e-06
3.697600867e-06
3.700145342e-06
3.703142953e-06
3.706537935e-06
3.710282008e-06
3.714333549e-06
3.718656782e-06
3.723221272e-06
3.728001983e-06
3.732978294e-06
3.738132863e-06
3.743450975e-06
3.748919781e-06
3.754526714e-06
3.760266138e-06
3.766133196e-06
3.772123203e-06
3.778231973e-06
3.784455644e-06
3.790790244e-06
3.797230597e-06
3.803775335e-06
3.810426792e-06
3.81718619e-06
3.824053487e-06
3.831028339e-06
3.838111097e-06
3.845302623e-06
3.852604218e-06
3.860017592e-06
3.867544829e-06
3.875188135e-06
3.882169858e-06
3.889202861e-06
3.896227324e-06
3.903329439e-06
3.910541202e-06
3.917865017e-06
3.925302884e-06
3.93285654e-06
3.94052762e-06
3.948318185e-06
3.956232724e-06
3.964275219e-06
3.972436541e-06
3.980712454e-06
3.989099947e-06
3.997598699e-06
4.006215593e-06
4.014964347e-06
4.023858814e-06
4.032903653e-06
4.042106586e-06
4.051474853e-06
4.061012792e-06
4.070724151e-06
4.080612373e-06
4.090679091e-06
4.100518883e-06
4.10994271e-06
4.11953796e-06
4.129311195e-06
4.13927146e-06
4.149436645e-06
4.159804103e-06
4.170373279e-06
4.181150099e-06
4.192142864e-06
4.203361446e-06
4.214815172e-06
4.226508254e-06
4.238445368e-06
4.250632693e-06
4.263077391e-06
4.27578702e-06
4.288769303e-06
4.30141048e-06
4.313646881e-06
4.326126888e-06
4.338865442e-06
4.351878109e-06
4.365170537e-06
4.378759871e-06
4.392660746e-06
4.406886506e-06
4.42145025e-06
4.436365777e-06
4.451650406e-06
4.467240169e-06
4.482739788e-06
4.497939747e-06
4.513548268e-06
4.529576586e-06
4.546033408e-06
4.562956637e-06
4.580377125e-06
4.598327903e-06
4.616855747e-06
4.635998257e-06
4.655629199e-06
4.675237684e-06
4.695490615e-06
4.716429213e-06
4.738103571e-06
4.760571114e-06
4.783890407e-06
4.8081477e-06
4.833408636e-06
4.859356116e-06
4.886342907e-06
4.914656462e-06
4.944447977e-06
4.975794786e-06
5.008865026e-06
5.043790553e-06
5.080711841e-06
5.119740822e-06
5.160987453e-06
5.20451604e-06
5.250380768e-06
5.298617788e-06
5.349262097e-06
5.402587548e-06
5.458965444e-06
5.518037313e-06
5.57984884e-06
5.644465912e-06
5.711850777e-06
5.782452809e-06
5.85626544e-06
5.933547561e-06
6.013164858e-06
6.095658943e-06
6.181305582e-06
6.268963284e-06
6.362072423e-06
6.459603645e-06
6.561056749e-06
6.671425334e-06
6.788920045e-06
6.914648559e-06
7.055454326e-06
7.205903139e-06
7.375036057e-06
7.562947658e-06
7.77540063e-06
8.021089924e-06
8.306964277e-06
8.644963921e-06
9.057152835e-06
9.56508549e-06
1.02175607e-05
1.108527673e-05
1.228613856e-05
1.404484785e-05
1.683834365e-05
2.17305912e-05
3.084012948e-05
4.691583497e-05
7.000041227e-05
9.572091553e-05
0.0001180384613
0.0001329848262
0.0001395815982
0.0001391084927
0.0001335328967
0.0001250898657
0.0001151205747
0.0001043378272
9.30826446e-05
8.160577549e-05
7.036297479e-05
5.984005742e-05
5.046675114e-05
4.242062758e-05
3.564307353e-05
2.999829131e-05
2.529648172e-05
2.131494409e-05
1.797459784e-05
1.521099794e-05
1.283860247e-05
1.094524656e-05
9.293834744e-06
7.971529594e-06
6.862230091e-06
5.891526928e-06
5.078608197e-06
4.437822825e-06
3.873573987e-06
3.375946772e-06
2.936276126e-06
2.547643314e-06
2.226793732e-06
1.990204639e-06
1.780544781e-06
1.594537485e-06
1.429251397e-06
1.282174138e-06
1.151139379e-06
1.034255738e-06
9.298713728e-07
8.365512506e-07
7.530431332e-07
6.782466661e-07
6.111959305e-07
5.510406752e-07
4.970330576e-07
4.485106312e-07
4.04887766e-07
3.656456885e-07
3.303241409e-07
2.9851428e-07
2.698522447e-07
2.440141344e-07
2.207111619e-07
1.996856292e-07
1.807073284e-07
1.635704169e-07
1.480907154e-07
1.341032573e-07
1.214601782e-07
1.100288481e-07
9.969021271e-08
9.033734056e-08
8.187412045e-08
7.42141175e-08
6.727955923e-08
6.100042625e-08
5.531364837e-08
5.016238798e-08
4.549539807e-08
4.126645633e-08
3.743385404e-08
3.395994047e-08
3.08107156e-08
2.795546565e-08
2.53664363e-08
2.30185406e-08
2.088909463e-08
1.895758241e-08
1.720544347e-08