/*--------------------------------*- C++ -*----------------------------------*\
| =========                 |                                                 |
| \\      /  F ield         | OpenFOAM: The Open Source CFD Toolbox           |
|  \\    /   O peration     | Version:  v2006                                 |
|   \\  /    A nd           | Website:  www.openfoam.com                      |
|    \\/     M anipulation  |                                                 |
\*---------------------------------------------------------------------------*/
FoamFile
{
    version     2.0;
    format      ascii;
    class       volScalarField;
    location    "0.1";
    object      N2;
}
// * * * * * * * * * * * * * * * * * * * * * * * * * * * * * * * * * * * * * //

dimensions      [0 0 0 0 0 0 0];


internalField   nonuniform List<scalar> 
72000
(
0.7247614078
0.7247614078
0.7247614078
0.7247614078
0.7247614078
0.7247614078
0.7247614078
0.7247614078
0.7247614077
0.7247614077
0.7247614077
0.7247614077
0.7247614077
0.7247614077
0.7247614076
0.7247614076
0.7247614076
0.7247614076
0.7247614076
0.7247614075
0.7247614075
0.7247614075
0.7247614075
0.7247614075
0.7247614074
0.7247614074
0.7247614074
0.7247614074
0.7247614074
0.7247614073
0.7247614073
0.7247614073
0.7247614073
0.7247614072
0.7247614072
0.7247614072
0.7247614072
0.7247614071
0.7247614071
0.7247614071
0.7247614071
0.724761407
0.724761407
0.724761407
0.724761407
0.7247614069
0.7247614069
0.7247614069
0.7247614069
0.7247614068
0.7247614068
0.7247614068
0.7247614067
0.7247614067
0.7247614067
0.7247614066
0.7247614066
0.7247614066
0.7247614065
0.7247614065
0.7247614065
0.7247614064
0.7247614064
0.7247614064
0.7247614063
0.7247614056
0.7247613993
0.7247613928
0.7247613861
0.7247613794
0.7247613724
0.7247613654
0.7247613582
0.7247613508
0.7247613433
0.7247613356
0.7247613277
0.7247613197
0.7247613115
0.7247613031
0.7247612946
0.7247612858
0.7247612768
0.7247612677
0.7247612583
0.7247612487
0.7247612389
0.7247612289
0.7247612187
0.7247612082
0.7247611974
0.7247611865
0.7247611752
0.7247611637
0.7247611519
0.7247611399
0.7247611275
0.7247611149
0.7247611019
0.7247610887
0.7247610751
0.7247610612
0.724761047
0.7247610324
0.7247610176
0.7247610024
0.7247609868
0.724760971
0.7247609548
0.7247609383
0.7247609216
0.7247609046
0.7247608874
0.7247608702
0.7247608608
0.7247608656
0.7247608692
0.7247608778
0.7247608687
0.7247608959
0.7247608749
0.7247609125
0.7247608798
0.7247609286
0.7247608842
0.7247609442
0.7247608885
0.7247609599
0.7247608929
0.7247609762
0.7247608973
0.7247609937
0.7247609018
0.7247610139
0.7247609068
0.7247610478
0.7247609193
0.724761041
0.7247609433
0.7247610208
0.7247609771
0.7247609936
0.7247609101
0.7247609638
0.7247605951
0.7247609288
0.7247602019
0.7247608779
0.7247603257
0.7247608742
0.7247608704
0.7247606029
0.7247614013
0.7247610278
0.7247602423
0.7247611421
0.7247605849
0.7247606388
0.7247623997
0.7247606305
0.7247612558
0.72476111
0.7247611078
0.7247611083
0.724761111
0.7247611113
0.7247611108
0.7247611085
0.7247611058
0.7247611048
0.7247611062
0.7247611087
0.7247611121
0.7247611156
0.724761119
0.724761122
0.7247611245
0.7247611261
0.7247611271
0.7247611273
0.7247611277
0.7247611279
0.724761128
0.724761128
0.724761128
0.724761128
0.724761128
0.7247611281
0.7247611285
0.7247611288
0.724761129
0.7247611293
0.7247611295
0.7247611297
0.7247611299
0.7247611302
0.7247611304
0.7247611305
0.7247611307
0.7247611309
0.724761131
0.7247611311
0.7247611312
0.7247611313
0.7247611314
0.7247611314
0.7247611315
0.7247611315
0.7247611316
0.7247611316
0.7247611317
0.7247611317
0.7247611317
0.7247611317
0.7247611318
0.7247611318
0.7247611318
0.7247611318
0.7247611318
0.7247611319
0.7247611319
0.7247611319
0.7247611319
0.7247611319
0.7247611319
0.7247611319
0.7247611319
0.7247611319
0.7247611319
0.7247611319
0.724761132
0.724761132
0.724761132
0.724761132
0.724761132
0.724761132
0.724761132
0.724761132
0.724761132
0.724761132
0.724761132
0.724761132
0.724761132
0.724761132
0.724761132
0.724761132
0.724761132
0.724761132
0.724761132
0.724761132
0.724761132
0.724761132
0.724761132
0.724761132
0.724761132
0.724761132
0.724761132
0.724761132
0.724761132
0.724761132
0.724761132
0.724761132
0.724761132
0.724761132
0.724761132
0.724761132
0.724761132
0.724761132
0.724761132
0.724761132
0.724761132
0.724761132
0.724761132
0.724761132
0.724761132
0.724761132
0.724761132
0.724761132
0.724761132
0.724761132
0.724761132
0.724761132
0.724761132
0.724761132
0.724761132
0.724761132
0.724761132
0.724761132
0.724761132
0.724761132
0.724761132
0.724761132
0.724761132
0.724761132
0.724761132
0.724761132
0.724761132
0.724761132
0.724761132
0.724761132
0.724761132
0.724761132
0.724761132
0.724761132
0.724761132
0.724761132
0.724761132
0.724761132
0.724761132
0.724761132
0.724761132
0.724761132
0.724761132
0.724761132
0.724761132
0.724761132
0.724761132
0.724761132
0.724761132
0.724761132
0.724761132
0.724761132
0.724761132
0.724761132
0.724761132
0.724761132
0.724761132
0.724761132
0.724761132
0.724761132
0.724761132
0.724761132
0.724761132
0.724761132
0.724761132
0.724761132
0.724761132
0.724761132
0.724761132
0.724761132
0.724761132
0.724761132
0.724761132
0.724761132
0.724761132
0.724761132
0.724761132
0.724761132
0.724761132
0.724761132
0.724761132
0.724761132
0.724761132
0.724761132
0.724761132
0.724761132
0.724761132
0.724761132
0.724761132
0.724761132
0.724761132
0.724761132
0.724761132
0.724761132
0.724761132
0.724761132
0.724761132
0.724761132
0.724761132
0.724761132
0.724761132
0.724761132
0.724761132
0.724761132
0.724761132
0.724761132
0.724761132
0.724761132
0.724761132
0.724761132
0.724761132
0.724761132
0.724761132
0.724761132
0.724761132
0.724761132
0.724761132
0.724761132
0.724761132
0.724761132
0.724761132
0.724761132
0.724761132
0.724761132
0.724761132
0.724761132
0.724761132
0.724761132
0.724761132
0.724761132
0.724761132
0.724761132
0.724761132
0.724761132
0.724761132
0.724761132
0.724761132
0.724761132
0.724761132
0.724761132
0.724761132
0.724761132
0.724761132
0.724761132
0.724761132
0.724761132
0.724761132
0.724761132
0.724761132
0.724761132
0.724761132
0.724761132
0.724761132
0.724761132
0.724761132
0.724761132
0.724761132
0.724761132
0.724761132
0.724761132
0.724761132
0.724761132
0.724761132
0.724761132
0.724761132
0.724761132
0.724761132
0.724761132
0.724761132
0.724761132
0.724761132
0.724761132
0.724761132
0.724761132
0.724761132
0.724761132
0.724761132
0.724761132
0.724761132
0.724761132
0.724761132
0.724761132
0.724761132
0.724761132
0.724761132
0.724761132
0.724761132
0.724761132
0.724761132
0.724761132
0.724761132
0.724761132
0.724761132
0.724761132
0.724761132
0.724761132
0.724761132
0.724761132
0.724761132
0.724761132
0.724761132
0.724761132
0.724761132
0.724761132
0.724761132
0.724761132
0.724761132
0.724761132
0.724761132
0.724761132
0.724761132
0.724761132
0.724761132
0.724761132
0.724761132
0.724761132
0.724761132
0.724761132
0.724761132
0.724761132
0.724761132
0.724761132
0.724761132
0.724761132
0.724761132
0.724761132
0.724761132
0.724761132
0.724761132
0.724761132
0.724761132
0.724761132
0.724761132
0.724761132
0.724761132
0.724761132
0.724761132
0.724761132
0.724761132
0.724761132
0.724761132
0.724761132
0.724761132
0.724761132
0.724761132
0.724761132
0.724761132
0.724761132
0.724761132
0.724761132
0.724761132
0.724761132
0.724761132
0.724761132
0.724761132
0.724761132
0.724761132
0.724761132
0.724761132
0.724761132
0.724761132
0.724761132
0.724761132
0.724761132
0.724761132
0.724761132
0.724761132
0.724761132
0.724761132
0.724761132
0.724761132
0.724761132
0.724761132
0.724761132
0.724761132
0.724761132
0.724761132
0.724761132
0.724761132
0.724761132
0.724761132
0.724761132
0.724761132
0.724761132
0.724761132
0.724761132
0.724761132
0.724761132
0.724761132
0.724761132
0.724761132
0.724761132
0.724761132
0.724761132
0.724761132
0.724761132
0.724761132
0.724761132
0.724761132
0.724761132
0.724761132
0.724761132
0.724761132
0.724761132
0.724761132
0.724761132
0.724761132
0.724761132
0.724761132
0.724761132
0.724761132
0.724761132
0.724761132
0.724761132
0.724761132
0.724761132
0.724761132
0.724761132
0.724761132
0.724761132
0.724761132
0.724761132
0.724761132
0.724761132
0.724761132
0.724761132
0.724761132
0.724761132
0.724761132
0.724761132
0.724761108
0.7247611075
0.7247611064
0.7247611049
0.7247611031
0.7247611009
0.7247610984
0.7247610957
0.7247610929
0.7247610899
0.7247610868
0.7247610837
0.7247610805
0.7247610774
0.7247610742
0.7247610711
0.724761068
0.7247610649
0.724761062
0.7247610591
0.7247610563
0.7247610535
0.7247610509
0.7247610484
0.7247610459
0.7247610436
0.7247610414
0.7247610393
0.7247610374
0.7247610356
0.7247610339
0.7247610323
0.7247610309
0.7247610297
0.7247610286
0.7247610276
0.7247610269
0.7247610263
0.7247610259
0.7247610257
0.7247610257
0.7247610259
0.7247610263
0.7247610269
0.7247610278
0.7247610289
0.7247610302
0.7247610319
0.7247610338
0.7247610359
0.7247610314
0.7247610232
0.7247610149
0.7247610068
0.7247609988
0.7247609908
0.724760983
0.7247609753
0.7247609677
0.7247609603
0.7247609531
0.724760946
0.7247609392
0.7247609325
0.7247609261
0.7247609199
0.7247609139
0.7247609083
0.7247609029
0.7247608979
0.7247608931
0.7247608888
0.7247608848
0.7247608812
0.7247608781
0.7247608755
0.7247608733
0.7247608718
0.7247608708
0.7247608704
0.7247608707
0.7247608718
0.7247608737
0.7247608764
0.7247608799
0.7247608844
0.7247608899
0.7247608965
0.7247609174
0.7247609383
0.7247609575
0.724760975
0.7247609907
0.7247610043
0.7247610158
0.7247610248
0.7247610313
0.724761035
0.7247610257
0.7247610171
0.7247610096
0.7247610033
0.7247609984
0.7247609949
0.724760993
0.7247609928
0.7247609945
0.7247609982
0.7247610021
0.7247609992
0.7247609983
0.7247609996
0.7247610032
0.7247610094
0.7247610183
0.72476103
0.7247610449
0.7247610624
0.7247610851
0.7247611048
0.7247611354
0.7247611572
0.7247611966
0.7247612209
0.7247612708
0.7247612981
0.7247613362
0.7247613128
0.7247612408
0.7247612094
0.7247611292
0.7247611009
0.7247610221
0.7247609978
0.7247609242
0.724760907
0.7247608481
0.7247608444
0.7247608452
0.7247608698
0.7247608387
0.7247608054
0.7247606341
0.7247605076
0.7247605729
0.724760642
0.7247607077
0.7247606303
0.724760934
0.7247611138
0.7247612394
0.7247612752
0.7247611979
0.7247611718
0.7247611844
0.7247611688
0.7247611019
0.724761095
0.7247610982
0.7247611121
0.7247611086
0.7247611129
0.7247611088
0.7247611086
0.7247611093
0.72476111
0.7247611093
0.7247611088
0.7247611074
0.724761105
0.7247611062
0.7247611081
0.7247611116
0.724761115
0.7247611183
0.7247611215
0.7247611244
0.7247611262
0.7247611268
0.7247611275
0.724761128
0.724761128
0.724761128
0.724761128
0.7247611282
0.7247611284
0.7247611287
0.7247611289
0.7247611291
0.7247611294
0.7247611296
0.7247611298
0.7247611301
0.7247611303
0.7247611305
0.7247611306
0.7247611308
0.7247611309
0.7247611311
0.7247611312
0.7247611313
0.7247611313
0.7247611314
0.7247611315
0.7247611315
0.7247611316
0.7247611316
0.7247611317
0.7247611317
0.7247611317
0.7247611318
0.7247611318
0.7247611318
0.7247611318
0.7247611318
0.7247611318
0.7247611319
0.7247611319
0.7247611319
0.7247611319
0.7247611319
0.7247611319
0.7247611319
0.7247611319
0.7247611319
0.7247611319
0.7247611319
0.724761132
0.724761132
0.724761132
0.724761132
0.724761132
0.724761132
0.724761132
0.724761132
0.724761132
0.724761132
0.724761132
0.724761132
0.724761132
0.724761132
0.724761132
0.724761132
0.724761132
0.724761132
0.724761132
0.724761132
0.724761132
0.724761132
0.724761132
0.724761132
0.724761132
0.724761132
0.724761132
0.724761132
0.724761132
0.724761132
0.724761132
0.724761132
0.724761132
0.724761132
0.724761132
0.724761132
0.724761132
0.724761132
0.724761132
0.724761132
0.724761132
0.724761132
0.724761132
0.724761132
0.724761132
0.724761132
0.724761132
0.724761132
0.724761132
0.724761132
0.724761132
0.724761132
0.724761132
0.724761132
0.724761132
0.724761132
0.724761132
0.724761132
0.724761132
0.724761132
0.724761132
0.724761132
0.724761132
0.724761132
0.724761132
0.724761132
0.724761132
0.724761132
0.724761132
0.724761132
0.724761132
0.724761132
0.724761132
0.724761132
0.724761132
0.724761132
0.724761132
0.724761132
0.724761132
0.724761132
0.724761132
0.724761132
0.724761132
0.724761132
0.724761132
0.724761132
0.724761132
0.724761132
0.724761132
0.724761132
0.724761132
0.724761132
0.724761132
0.724761132
0.724761132
0.724761132
0.724761132
0.724761132
0.724761132
0.724761132
0.724761132
0.724761132
0.724761132
0.724761132
0.724761132
0.724761132
0.724761132
0.724761132
0.724761132
0.724761132
0.724761132
0.724761132
0.724761132
0.724761132
0.724761132
0.724761132
0.724761132
0.724761132
0.724761132
0.724761132
0.724761132
0.724761132
0.724761132
0.724761132
0.724761132
0.724761132
0.724761132
0.724761132
0.724761132
0.724761132
0.724761132
0.724761132
0.724761132
0.724761132
0.724761132
0.724761132
0.724761132
0.724761132
0.724761132
0.724761132
0.724761132
0.724761132
0.724761132
0.724761132
0.724761132
0.724761132
0.724761132
0.724761132
0.724761132
0.724761132
0.724761132
0.724761132
0.724761132
0.724761132
0.724761132
0.724761132
0.724761132
0.724761132
0.724761132
0.724761132
0.724761132
0.724761132
0.724761132
0.724761132
0.724761132
0.724761132
0.724761132
0.724761132
0.724761132
0.724761132
0.724761132
0.724761132
0.724761132
0.724761132
0.724761132
0.724761132
0.724761132
0.724761132
0.724761132
0.724761132
0.724761132
0.724761132
0.724761132
0.724761132
0.724761132
0.724761132
0.724761132
0.724761132
0.724761132
0.724761132
0.724761132
0.724761132
0.724761132
0.724761132
0.724761132
0.724761132
0.724761132
0.724761132
0.724761132
0.724761132
0.724761132
0.724761132
0.724761132
0.724761132
0.724761132
0.724761132
0.724761132
0.724761132
0.724761132
0.724761132
0.724761132
0.724761132
0.724761132
0.724761132
0.724761132
0.724761132
0.724761132
0.724761132
0.724761132
0.724761132
0.724761132
0.724761132
0.724761132
0.724761132
0.724761132
0.724761132
0.724761132
0.724761132
0.724761132
0.724761132
0.724761132
0.724761132
0.724761132
0.724761132
0.724761132
0.724761132
0.724761132
0.724761132
0.724761132
0.724761132
0.724761132
0.724761132
0.724761132
0.724761132
0.724761132
0.724761132
0.724761132
0.724761132
0.724761132
0.724761132
0.724761132
0.724761132
0.724761132
0.724761132
0.724761132
0.724761132
0.724761132
0.724761132
0.724761132
0.724761132
0.724761132
0.724761132
0.724761132
0.724761132
0.724761132
0.724761132
0.724761132
0.724761132
0.724761132
0.724761132
0.724761132
0.724761132
0.724761132
0.724761132
0.724761132
0.724761132
0.724761132
0.724761132
0.724761132
0.724761132
0.724761132
0.724761132
0.724761132
0.724761132
0.724761132
0.724761132
0.724761132
0.724761132
0.724761132
0.724761132
0.724761132
0.724761132
0.724761132
0.724761132
0.724761132
0.724761132
0.724761132
0.724761132
0.724761132
0.724761132
0.724761132
0.724761132
0.724761132
0.724761132
0.724761132
0.724761132
0.724761132
0.724761132
0.724761132
0.724761132
0.724761132
0.724761132
0.724761132
0.724761132
0.724761132
0.724761132
0.724761132
0.724761132
0.724761132
0.724761132
0.724761132
0.724761132
0.724761132
0.724761132
0.724761132
0.724761132
0.724761132
0.724761132
0.724761132
0.724761132
0.724761132
0.724761132
0.724761132
0.724761132
0.724761132
0.724761132
0.724761132
0.724761132
0.724761132
0.724761132
0.724761132
0.724761132
0.724761132
0.724761132
0.724761132
0.724761132
0.724761132
0.724761132
0.724761132
0.724761132
0.724761132
0.724761132
0.724761132
0.724761132
0.724761132
0.724761132
0.724761132
0.724761132
0.724761132
0.724761132
0.724761132
0.724761132
0.724761132
0.724761132
0.724761132
0.724761132
0.724761132
0.724761132
0.724761132
0.724761132
0.724761132
0.724761132
0.724761132
0.7247613297
0.7247613295
0.724761329
0.7247613283
0.7247613274
0.7247613264
0.7247613251
0.7247613235
0.7247613218
0.7247613197
0.7247613174
0.7247613149
0.724761312
0.7247613089
0.7247613054
0.7247613016
0.7247612975
0.7247612931
0.7247612883
0.7247612832
0.7247612778
0.7247612719
0.7247612657
0.7247612592
0.7247612522
0.7247612448
0.7247612281
0.7247612043
0.7247611801
0.7247611554
0.7247611304
0.7247611048
0.7247610788
0.7247610524
0.7247610254
0.724760998
0.72476097
0.7247609414
0.7247609124
0.7247608827
0.7247608525
0.7247608216
0.7247607901
0.724760758
0.7247607252
0.7247606917
0.7247606575
0.7247606226
0.7247605869
0.7247605506
0.7247605137
0.7247604762
0.7247604378
0.7247603987
0.7247603586
0.7247603177
0.7247602757
0.7247602327
0.7247601886
0.7247601435
0.7247600972
0.7247600498
0.7247600011
0.7247599512
0.7247599
0.7247598475
0.7247598293
0.7247598347
0.724759841
0.7247598484
0.7247598569
0.7247598709
0.7247599231
0.7247599752
0.724760027
0.7247600784
0.7247601295
0.7247601801
0.7247602302
0.7247602797
0.7247603285
0.7247603766
0.7247604239
0.7247604702
0.7247605154
0.7247605595
0.7247606023
0.7247606437
0.7247606835
0.7247607322
0.7247607821
0.7247608294
0.7247608739
0.7247609151
0.7247609528
0.7247609868
0.7247610166
0.7247610418
0.7247610622
0.7247610772
0.7247610864
0.7247610893
0.7247610854
0.7247610741
0.724761039
0.7247609791
0.7247609136
0.7247608422
0.7247607644
0.7247606799
0.7247606027
0.7247605995
0.7247605989
0.7247606013
0.7247606069
0.724760616
0.7247606143
0.7247606116
0.724760617
0.7247606312
0.7247606531
0.7247606833
0.7247607212
0.7247607673
0.7247608222
0.724760886
0.7247609608
0.724760983
0.7247609646
0.7247609623
0.7247609688
0.724760979
0.7247609958
0.7247610179
0.7247610513
0.7247610948
0.7247610558
0.724760965
0.7247608658
0.7247607663
0.7247606636
0.7247606024
0.7247604857
0.7247602874
0.7247603212
0.7247606511
0.7247608645
0.7247609557
0.724761164
0.7247612948
0.7247611822
0.7247611711
0.7247611528
0.7247611627
0.7247611558
0.7247611257
0.7247610995
0.724761114
0.724761114
0.7247611102
0.7247611102
0.7247611109
0.7247611104
0.7247611119
0.7247611138
0.7247611147
0.724761115
0.7247611121
0.7247611088
0.7247611033
0.724761103
0.7247611051
0.7247611098
0.7247611127
0.7247611161
0.7247611197
0.7247611234
0.7247611255
0.7247611266
0.7247611276
0.7247611282
0.7247611285
0.7247611286
0.7247611287
0.7247611289
0.7247611291
0.7247611292
0.7247611295
0.7247611297
0.72476113
0.7247611302
0.7247611304
0.7247611306
0.7247611308
0.7247611309
0.7247611311
0.7247611312
0.7247611313
0.7247611314
0.7247611314
0.7247611315
0.7247611315
0.7247611316
0.7247611316
0.7247611317
0.7247611317
0.7247611317
0.7247611318
0.7247611318
0.7247611318
0.7247611318
0.7247611318
0.7247611319
0.7247611319
0.7247611319
0.7247611319
0.7247611319
0.7247611319
0.7247611319
0.7247611319
0.7247611319
0.7247611319
0.7247611319
0.724761132
0.724761132
0.724761132
0.724761132
0.724761132
0.724761132
0.724761132
0.724761132
0.724761132
0.724761132
0.724761132
0.724761132
0.724761132
0.724761132
0.724761132
0.724761132
0.724761132
0.724761132
0.724761132
0.724761132
0.724761132
0.724761132
0.724761132
0.724761132
0.724761132
0.724761132
0.724761132
0.724761132
0.724761132
0.724761132
0.724761132
0.724761132
0.724761132
0.724761132
0.724761132
0.724761132
0.724761132
0.724761132
0.724761132
0.724761132
0.724761132
0.724761132
0.724761132
0.724761132
0.724761132
0.724761132
0.724761132
0.724761132
0.724761132
0.724761132
0.724761132
0.724761132
0.724761132
0.724761132
0.724761132
0.724761132
0.724761132
0.724761132
0.724761132
0.724761132
0.724761132
0.724761132
0.724761132
0.724761132
0.724761132
0.724761132
0.724761132
0.724761132
0.724761132
0.724761132
0.724761132
0.724761132
0.724761132
0.724761132
0.724761132
0.724761132
0.724761132
0.724761132
0.724761132
0.724761132
0.724761132
0.724761132
0.724761132
0.724761132
0.724761132
0.724761132
0.724761132
0.724761132
0.724761132
0.724761132
0.724761132
0.724761132
0.724761132
0.724761132
0.724761132
0.724761132
0.724761132
0.724761132
0.724761132
0.724761132
0.724761132
0.724761132
0.724761132
0.724761132
0.724761132
0.724761132
0.724761132
0.724761132
0.724761132
0.724761132
0.724761132
0.724761132
0.724761132
0.724761132
0.724761132
0.724761132
0.724761132
0.724761132
0.724761132
0.724761132
0.724761132
0.724761132
0.724761132
0.724761132
0.724761132
0.724761132
0.724761132
0.724761132
0.724761132
0.724761132
0.724761132
0.724761132
0.724761132
0.724761132
0.724761132
0.724761132
0.724761132
0.724761132
0.724761132
0.724761132
0.724761132
0.724761132
0.724761132
0.724761132
0.724761132
0.724761132
0.724761132
0.724761132
0.724761132
0.724761132
0.724761132
0.724761132
0.724761132
0.724761132
0.724761132
0.724761132
0.724761132
0.724761132
0.724761132
0.724761132
0.724761132
0.724761132
0.724761132
0.724761132
0.724761132
0.724761132
0.724761132
0.724761132
0.724761132
0.724761132
0.724761132
0.724761132
0.724761132
0.724761132
0.724761132
0.724761132
0.724761132
0.724761132
0.724761132
0.724761132
0.724761132
0.724761132
0.724761132
0.724761132
0.724761132
0.724761132
0.724761132
0.724761132
0.724761132
0.724761132
0.724761132
0.724761132
0.724761132
0.724761132
0.724761132
0.724761132
0.724761132
0.724761132
0.724761132
0.724761132
0.724761132
0.724761132
0.724761132
0.724761132
0.724761132
0.724761132
0.724761132
0.724761132
0.724761132
0.724761132
0.724761132
0.724761132
0.724761132
0.724761132
0.724761132
0.724761132
0.724761132
0.724761132
0.724761132
0.724761132
0.724761132
0.724761132
0.724761132
0.724761132
0.724761132
0.724761132
0.724761132
0.724761132
0.724761132
0.724761132
0.724761132
0.724761132
0.724761132
0.724761132
0.724761132
0.724761132
0.724761132
0.724761132
0.724761132
0.724761132
0.724761132
0.724761132
0.724761132
0.724761132
0.724761132
0.724761132
0.724761132
0.724761132
0.724761132
0.724761132
0.724761132
0.724761132
0.724761132
0.724761132
0.724761132
0.724761132
0.724761132
0.724761132
0.724761132
0.724761132
0.724761132
0.724761132
0.724761132
0.724761132
0.724761132
0.724761132
0.724761132
0.724761132
0.724761132
0.724761132
0.724761132
0.724761132
0.724761132
0.724761132
0.724761132
0.724761132
0.724761132
0.724761132
0.724761132
0.724761132
0.724761132
0.724761132
0.724761132
0.724761132
0.724761132
0.724761132
0.724761132
0.724761132
0.724761132
0.724761132
0.724761132
0.724761132
0.724761132
0.724761132
0.724761132
0.724761132
0.724761132
0.724761132
0.724761132
0.724761132
0.724761132
0.724761132
0.724761132
0.724761132
0.724761132
0.724761132
0.724761132
0.724761132
0.724761132
0.724761132
0.724761132
0.724761132
0.724761132
0.724761132
0.724761132
0.724761132
0.724761132
0.724761132
0.724761132
0.724761132
0.724761132
0.724761132
0.724761132
0.724761132
0.724761132
0.724761132
0.724761132
0.724761132
0.724761132
0.724761132
0.724761132
0.724761132
0.724761132
0.724761132
0.724761132
0.724761132
0.724761132
0.724761132
0.724761132
0.724761132
0.724761132
0.724761132
0.724761132
0.724761132
0.724761132
0.724761132
0.724761132
0.724761132
0.724761132
0.724761132
0.724761132
0.724761132
0.724761132
0.724761132
0.724761132
0.724761132
0.724761132
0.724761132
0.724761132
0.724761132
0.724761132
0.724761132
0.724761132
0.724761132
0.724761132
0.724761132
0.724761132
0.724761132
0.724761132
0.724761132
0.724761132
0.724761132
0.724761132
0.724761132
0.724761132
0.724761132
0.724761132
0.724761256
0.7247612575
0.7247612605
0.7247612647
0.7247612702
0.7247612768
0.7247612845
0.7247612932
0.724761303
0.7247613136
0.7247613252
0.7247613377
0.7247613511
0.7247613653
0.7247613804
0.7247613963
0.7247614131
0.7247614307
0.7247614492
0.7247614686
0.7247614888
0.7247615099
0.724761532
0.724761555
0.7247615789
0.7247616038
0.7247616197
0.7247616287
0.7247616382
0.7247616481
0.7247616585
0.7247616695
0.7247616809
0.7247616928
0.7247617053
0.7247617184
0.7247617321
0.7247617463
0.7247617612
0.7247617768
0.724761793
0.7247618099
0.7247618276
0.724761846
0.7247618653
0.7247618853
0.7247619062
0.724761928
0.7247619506
0.7247619742
0.7247619987
0.7247620241
0.7247620401
0.7247620291
0.7247620174
0.7247620049
0.7247619916
0.7247619774
0.7247619623
0.7247619462
0.7247619155
0.724761882
0.7247618471
0.7247618109
0.7247617732
0.7247617341
0.7247616933
0.7247616509
0.7247616069
0.724761561
0.7247615132
0.7247614634
0.7247614116
0.7247613576
0.7247613013
0.7247612427
0.7247611816
0.7247611179
0.7247610515
0.7247609823
0.7247609102
0.7247608353
0.724760759
0.7247606815
0.7247606028
0.7247605228
0.7247604416
0.724760359
0.724760275
0.7247601897
0.7247601031
0.724760015
0.7247599254
0.7247598343
0.7247597416
0.7247596594
0.7247596627
0.7247596713
0.7247596856
0.724759706
0.7247598321
0.7247599626
0.7247600906
0.7247602157
0.7247603374
0.7247604553
0.7247605691
0.7247606917
0.7247608013
0.7247608966
0.7247609762
0.7247610388
0.7247610826
0.7247611063
0.7247611082
0.7247610869
0.724761019
0.7247609293
0.7247608245
0.7247607657
0.7247607636
0.7247607658
0.7247607719
0.7247607824
0.7247607971
0.7247608157
0.7247608393
0.7247608702
0.7247609091
0.7247609572
0.7247609461
0.7247609249
0.7247609175
0.7247609566
0.7247610073
0.7247610716
0.7247611158
0.7247610525
0.7247609674
0.7247608794
0.7247607471
0.7247605387
0.7247603124
0.7247602184
0.724760436
0.7247604131
0.7247607525
0.7247610811
0.7247611324
0.7247612456
0.7247612044
0.724761159
0.7247611392
0.7247611548
0.7247611567
0.7247611325
0.7247611257
0.7247611149
0.7247611082
0.7247611208
0.7247611124
0.724761109
0.7247611069
0.7247611106
0.7247611094
0.7247611088
0.7247611104
0.7247611089
0.7247611066
0.7247611003
0.7247611004
0.7247610957
0.7247611
0.7247611084
0.7247611123
0.7247611169
0.7247611216
0.7247611249
0.7247611268
0.7247611281
0.7247611289
0.7247611294
0.7247611297
0.72476113
0.7247611301
0.7247611301
0.7247611302
0.7247611303
0.7247611305
0.7247611307
0.7247611308
0.7247611309
0.724761131
0.7247611312
0.7247611313
0.7247611314
0.7247611314
0.7247611315
0.7247611316
0.7247611316
0.7247611317
0.7247611317
0.7247611317
0.7247611318
0.7247611318
0.7247611318
0.7247611318
0.7247611318
0.7247611319
0.7247611319
0.7247611319
0.7247611319
0.7247611319
0.7247611319
0.7247611319
0.7247611319
0.7247611319
0.7247611319
0.7247611319
0.724761132
0.724761132
0.724761132
0.724761132
0.724761132
0.724761132
0.724761132
0.724761132
0.724761132
0.724761132
0.724761132
0.724761132
0.724761132
0.724761132
0.724761132
0.724761132
0.724761132
0.724761132
0.724761132
0.724761132
0.724761132
0.724761132
0.724761132
0.724761132
0.724761132
0.724761132
0.724761132
0.724761132
0.724761132
0.724761132
0.724761132
0.724761132
0.724761132
0.724761132
0.724761132
0.724761132
0.724761132
0.724761132
0.724761132
0.724761132
0.724761132
0.724761132
0.724761132
0.724761132
0.724761132
0.724761132
0.724761132
0.724761132
0.724761132
0.724761132
0.724761132
0.724761132
0.724761132
0.724761132
0.724761132
0.724761132
0.724761132
0.724761132
0.724761132
0.724761132
0.724761132
0.724761132
0.724761132
0.724761132
0.724761132
0.724761132
0.724761132
0.724761132
0.724761132
0.724761132
0.724761132
0.724761132
0.724761132
0.724761132
0.724761132
0.724761132
0.724761132
0.724761132
0.724761132
0.724761132
0.724761132
0.724761132
0.724761132
0.724761132
0.724761132
0.724761132
0.724761132
0.724761132
0.724761132
0.724761132
0.724761132
0.724761132
0.724761132
0.724761132
0.724761132
0.724761132
0.724761132
0.724761132
0.724761132
0.724761132
0.724761132
0.724761132
0.724761132
0.724761132
0.724761132
0.724761132
0.724761132
0.724761132
0.724761132
0.724761132
0.724761132
0.724761132
0.724761132
0.724761132
0.724761132
0.724761132
0.724761132
0.724761132
0.724761132
0.724761132
0.724761132
0.724761132
0.724761132
0.724761132
0.724761132
0.724761132
0.724761132
0.724761132
0.724761132
0.724761132
0.724761132
0.724761132
0.724761132
0.724761132
0.724761132
0.724761132
0.724761132
0.724761132
0.724761132
0.724761132
0.724761132
0.724761132
0.724761132
0.724761132
0.724761132
0.724761132
0.724761132
0.724761132
0.724761132
0.724761132
0.724761132
0.724761132
0.724761132
0.724761132
0.724761132
0.724761132
0.724761132
0.724761132
0.724761132
0.724761132
0.724761132
0.724761132
0.724761132
0.724761132
0.724761132
0.724761132
0.724761132
0.724761132
0.724761132
0.724761132
0.724761132
0.724761132
0.724761132
0.724761132
0.724761132
0.724761132
0.724761132
0.724761132
0.724761132
0.724761132
0.724761132
0.724761132
0.724761132
0.724761132
0.724761132
0.724761132
0.724761132
0.724761132
0.724761132
0.724761132
0.724761132
0.724761132
0.724761132
0.724761132
0.724761132
0.724761132
0.724761132
0.724761132
0.724761132
0.724761132
0.724761132
0.724761132
0.724761132
0.724761132
0.724761132
0.724761132
0.724761132
0.724761132
0.724761132
0.724761132
0.724761132
0.724761132
0.724761132
0.724761132
0.724761132
0.724761132
0.724761132
0.724761132
0.724761132
0.724761132
0.724761132
0.724761132
0.724761132
0.724761132
0.724761132
0.724761132
0.724761132
0.724761132
0.724761132
0.724761132
0.724761132
0.724761132
0.724761132
0.724761132
0.724761132
0.724761132
0.724761132
0.724761132
0.724761132
0.724761132
0.724761132
0.724761132
0.724761132
0.724761132
0.724761132
0.724761132
0.724761132
0.724761132
0.724761132
0.724761132
0.724761132
0.724761132
0.724761132
0.724761132
0.724761132
0.724761132
0.724761132
0.724761132
0.724761132
0.724761132
0.724761132
0.724761132
0.724761132
0.724761132
0.724761132
0.724761132
0.724761132
0.724761132
0.724761132
0.724761132
0.724761132
0.724761132
0.724761132
0.724761132
0.724761132
0.724761132
0.724761132
0.724761132
0.724761132
0.724761132
0.724761132
0.724761132
0.724761132
0.724761132
0.724761132
0.724761132
0.724761132
0.724761132
0.724761132
0.724761132
0.724761132
0.724761132
0.724761132
0.724761132
0.724761132
0.724761132
0.724761132
0.724761132
0.724761132
0.724761132
0.724761132
0.724761132
0.724761132
0.724761132
0.724761132
0.724761132
0.724761132
0.724761132
0.724761132
0.724761132
0.724761132
0.724761132
0.724761132
0.724761132
0.724761132
0.724761132
0.724761132
0.724761132
0.724761132
0.724761132
0.724761132
0.724761132
0.724761132
0.724761132
0.724761132
0.724761132
0.724761132
0.724761132
0.724761132
0.724761132
0.724761132
0.724761132
0.724761132
0.724761132
0.724761132
0.724761132
0.724761132
0.724761132
0.724761132
0.724761132
0.724761132
0.724761132