/*--------------------------------*- C++ -*----------------------------------*\
| =========                 |                                                 |
| \\      /  F ield         | OpenFOAM: The Open Source CFD Toolbox           |
|  \\    /   O peration     | Version:  v2006                                 |
|   \\  /    A nd           | Website:  www.openfoam.com                      |
|    \\/     M anipulation  |                                                 |
\*---------------------------------------------------------------------------*/
FoamFile
{
    version     2.0;
    format      ascii;
    class       volScalarField;
    location    "0.1";
    object      O;
}
// * * * * * * * * * * * * * * * * * * * * * * * * * * * * * * * * * * * * * //

dimensions      [0 0 0 0 0 0 0];


internalField   nonuniform List<scalar> 
72000
(
2.329915477e-09
2.330211412e-09
2.330788644e-09
2.331622897e-09
2.332687471e-09
2.333955962e-09
2.335402916e-09
2.337005564e-09
2.338743182e-09
2.340597875e-09
2.342553507e-09
2.344596764e-09
2.346716221e-09
2.348902068e-09
2.351146284e-09
2.353442188e-09
2.355784113e-09
2.358167913e-09
2.36059016e-09
2.363048046e-09
2.365539823e-09
2.368064308e-09
2.370620198e-09
2.373206728e-09
2.375823601e-09
2.378470191e-09
2.381146197e-09
2.383852463e-09
2.386590025e-09
2.389360219e-09
2.392164225e-09
2.395003195e-09
2.397878194e-09
2.400790038e-09
2.403740113e-09
2.406729844e-09
2.409760565e-09
2.412833604e-09
2.415950784e-09
2.419113671e-09
2.422323771e-09
2.425582735e-09
2.428892015e-09
2.432253445e-09
2.435668596e-09
2.439139182e-09
2.442666855e-09
2.446253485e-09
2.449900505e-09
2.453609194e-09
2.457386521e-09
2.461232029e-09
2.465145549e-09
2.469129553e-09
2.473186522e-09
2.477318583e-09
2.481527644e-09
2.485816084e-09
2.490185879e-09
2.494638863e-09
2.499177242e-09
2.503803316e-09
2.508520221e-09
2.51333047e-09
2.518236611e-09
2.523489928e-09
2.531040222e-09
2.538743608e-09
2.546606369e-09
2.554633797e-09
2.56283047e-09
2.571201762e-09
2.579752298e-09
2.588487217e-09
2.597411936e-09
2.606531056e-09
2.615851873e-09
2.625378244e-09
2.635115737e-09
2.645069933e-09
2.65524548e-09
2.66565032e-09
2.676291113e-09
2.687176277e-09
2.698313528e-09
2.709711269e-09
2.721376262e-09
2.733314874e-09
2.745520738e-09
2.758010313e-09
2.770794596e-09
2.783884439e-09
2.797289369e-09
2.811016166e-09
2.825075665e-09
2.839474899e-09
2.854223889e-09
2.8693317e-09
2.884807134e-09
2.900661477e-09
2.916902405e-09
2.933537256e-09
2.95057196e-09
2.968010241e-09
2.985855436e-09
3.004108861e-09
3.022772081e-09
3.041840425e-09
3.061300233e-09
3.081120319e-09
3.10129481e-09
3.121786288e-09
3.142536937e-09
3.163465217e-09
3.187126673e-09
3.216246292e-09
3.238512205e-09
3.292178611e-09
3.230438341e-09
3.413592339e-09
3.263652928e-09
3.536108925e-09
3.289998623e-09
3.664960508e-09
3.313647213e-09
3.800366687e-09
3.336338971e-09
3.947354047e-09
3.359434028e-09
4.112890216e-09
3.382054082e-09
4.303481872e-09
3.404850189e-09
4.541715924e-09
3.429249633e-09
4.976757526e-09
3.493416634e-09
5.231009779e-09
3.616012844e-09
5.536283679e-09
3.790799197e-09
5.926094355e-09
4.054022704e-09
6.561966367e-09
4.464003e-09
7.429250455e-09
4.975875638e-09
8.540003651e-09
5.73406109e-09
1.069670123e-08
6.87556051e-09
1.384788277e-08
8.990688695e-09
2.133653963e-08
1.331353023e-08
3.44650141e-08
2.410335643e-08
3.513574262e-08
5.193593745e-08
2.681980088e-07
1.785891764e-07
2.2782661e-05
9.129573047e-06
1.684420435e-06
4.790740537e-07
1.852898943e-07
8.286515592e-08
4.036914617e-08
2.029592917e-08
1.034072095e-08
5.392248448e-09
2.793858734e-09
1.524902642e-09
7.982026208e-10
4.583472296e-10
2.722822893e-10
1.596519622e-10
9.458138998e-11
6.210370258e-11
4.368251724e-11
3.173779845e-11
2.324005628e-11
1.808206624e-11
1.399194938e-11
1.16171118e-11
9.827613906e-12
8.363439902e-12
7.165141566e-12
6.17607444e-12
5.327054929e-12
4.599522817e-12
3.977124447e-12
3.425476702e-12
2.933276945e-12
2.56440149e-12
2.275433248e-12
1.993034452e-12
1.741400657e-12
1.523703945e-12
1.337124194e-12
1.177345248e-12
1.040107051e-12
9.216929607e-13
8.190132474e-13
7.295468071e-13
6.512457987e-13
5.824423515e-13
5.217696616e-13
4.680991082e-13
4.20491296e-13
3.78158236e-13
3.40434112e-13
3.067525895e-13
2.766290314e-13
2.496464399e-13
2.254442448e-13
2.037092797e-13
1.841684581e-13
1.665827775e-13
1.507423774e-13
1.364624354e-13
1.235797384e-13
1.119497998e-13
1.01444423e-13
9.194963204e-14
8.336390422e-14
7.559665507e-14
6.856693366e-14
6.220229494e-14
5.643782136e-14
5.121527136e-14
4.648233557e-14
4.219198548e-14
3.830190155e-14
3.477396955e-14
3.157383619e-14
2.867051605e-14
2.603604315e-14
2.364516163e-14
2.147505057e-14
1.95050788e-14
1.771658612e-14
1.609268781e-14
1.46180997e-14
1.327898146e-14
1.206279608e-14
1.09581837e-14
9.954848199e-15
9.043455205e-15
8.215540294e-15
7.463426243e-15
6.780148455e-15
6.159387658e-15
5.595409146e-15
5.083007924e-15
4.617459092e-15
4.194473032e-15
3.810154833e-15
3.460967582e-15
3.143699158e-15
2.855432127e-15
2.593516504e-15
2.355545048e-15
2.139330869e-15
1.942887159e-15
1.764408772e-15
1.602255546e-15
1.454937148e-15
1.321099353e-15
1.199511555e-15
1.089055458e-15
9.887148053e-16
8.975660411e-16
8.147698525e-16
7.395634661e-16
6.712536536e-16
6.092104042e-16
5.528611461e-16
5.016855088e-16
4.552105697e-16
4.13006521e-16
3.746827542e-16
3.398842714e-16
3.082884594e-16
2.796021248e-16
2.535588327e-16
2.299164479e-16
2.084549323e-16
1.889743403e-16
1.712929768e-16
1.552457409e-16
1.406826075e-16
1.274672668e-16
1.154758663e-16
1.045958781e-16
9.47250625e-17
8.577053253e-17
7.76479085e-17
7.028053282e-17
6.359877032e-17
5.753936346e-17
5.204485336e-17
4.706305535e-17
4.254657363e-17
3.845235703e-17
3.47413162e-17
3.13779461e-17
2.833001133e-17
2.556824366e-17
2.306606524e-17
2.079934405e-17
1.874618011e-17
1.688668534e-17
1.520281298e-17
1.367817536e-17
1.229790466e-17
1.104850301e-17
9.917730872e-18
8.894475423e-18
7.968654253e-18
7.131119856e-18
6.373572828e-18
5.688493116e-18
5.069045508e-18
4.509043242e-18
4.002873548e-18
3.545440196e-18
3.132136862e-18
2.758770887e-18
2.421553807e-18
2.11704708e-18
1.842133794e-18
1.59398886e-18
1.370058597e-18
1.168027098e-18
9.857909875e-19
8.214451247e-19
6.73273595e-19
5.397188989e-19
4.193697032e-19
3.109482269e-19
2.132977557e-19
1.253698915e-19
4.621861311e-20
0
0
0
0
0
0
0
0
0
0
0
0
0
0
0
0
0
0
0
0
0
0
0
0
0
0
0
0
0
0
0
0
0
0
0
0
0
0
0
0
0
0
0
0
0
0
0
0
0
0
0
0
0
0
0
0
0
0
0
0
0
0
0
0
0
0
0
0
0
0
0
0
0
0
0
0
0
0
0
0
0
0
0
0
0
0
0
0
0
0
0
0
0
0
0
0
0
0
0
0
0
0
0
0
0
0
0
0
0
0
0
0
0
0
0
0
0
0
0
0
0
0
0
0
0
0
0
0
0
0
0
0
0
0
0
0
0
0
0
0
0
0
0
0
0
0
0
0
0
0
0
0
0
0
0
0
0
0
0
0
0
0
0
0
0
0
0
0
0
0
0
0
0
0
0
0
0
0
0
0
0
0
0
0
0
0
0
0
0
0
0
0
0
0
0
0
0
0
0
0
0
0
0
0
0
0
0
0
0
0
0
0
0
0
0
0
0
0
0
0
0
0
0
0
0
0
0
0
0
0
0
0
0
0
0
0
0
0
0
0
0
0
0
0
0
0
0
0
0
0
0
0
0
0
0
0
1.259456135e-08
1.260626016e-08
1.262867751e-08
1.266077715e-08
1.270152241e-08
1.274994099e-08
1.280513156e-08
1.28663021e-08
1.293274466e-08
1.300385069e-08
1.30790823e-08
1.315799566e-08
1.324021136e-08
1.332541022e-08
1.341332714e-08
1.350374837e-08
1.359649076e-08
1.369142375e-08
1.378844332e-08
1.388746641e-08
1.398844068e-08
1.40913195e-08
1.419607811e-08
1.430270075e-08
1.441118708e-08
1.452153379e-08
1.463372905e-08
1.474781766e-08
1.486386577e-08
1.498193469e-08
1.510208278e-08
1.522436834e-08
1.534885191e-08
1.54755942e-08
1.560466865e-08
1.573614588e-08
1.587008892e-08
1.600656622e-08
1.614566598e-08
1.628747986e-08
1.64320983e-08
1.657961549e-08
1.673011718e-08
1.68836973e-08
1.704043574e-08
1.720040504e-08
1.736365705e-08
1.753020556e-08
1.769999284e-08
1.787284779e-08
1.806921784e-08
1.828103172e-08
1.849728516e-08
1.871836288e-08
1.894461228e-08
1.91763134e-08
1.941370436e-08
1.965701695e-08
1.990646395e-08
2.016225379e-08
2.042459906e-08
2.069372503e-08
2.096988793e-08
2.125333449e-08
2.15443114e-08
2.184302433e-08
2.214960518e-08
2.246458719e-08
2.278830267e-08
2.312108363e-08
2.346324105e-08
2.381502546e-08
2.417655029e-08
2.454847568e-08
2.493127902e-08
2.532537652e-08
2.573125183e-08
2.6149314e-08
2.658003348e-08
2.702394329e-08
2.7481618e-08
2.795373328e-08
2.844084494e-08
2.894356269e-08
2.946247724e-08
2.999830648e-08
3.055172542e-08
3.11234842e-08
3.181010222e-08
3.2529915e-08
3.327479899e-08
3.404607379e-08
3.484505229e-08
3.567303763e-08
3.653149836e-08
3.742182612e-08
3.8345602e-08
3.930430803e-08
4.040534427e-08
4.155528194e-08
4.27530714e-08
4.400128492e-08
4.530264407e-08
4.665973249e-08
4.807495515e-08
4.95509292e-08
5.109082173e-08
5.269757321e-08
5.442428685e-08
5.645157366e-08
5.856612623e-08
6.076908082e-08
6.306158958e-08
6.544133272e-08
6.789987057e-08
7.042615801e-08
7.301780638e-08
7.561077439e-08
7.836483966e-08
8.056325215e-08
8.340009057e-08
8.53872378e-08
8.850475804e-08
9.041747845e-08
9.397774783e-08
9.590293912e-08
1.001300637e-07
1.023316221e-07
1.079830165e-07
1.104591828e-07
1.172505375e-07
1.198459328e-07
1.278871055e-07
1.306971214e-07
1.405975934e-07
1.442281066e-07
1.591078702e-07
1.667410695e-07
1.874655799e-07
2.002864611e-07
2.326715419e-07
2.540076861e-07
2.981809868e-07
3.287848413e-07
3.993180346e-07
4.473953858e-07
5.50449776e-07
6.373062166e-07
8.121606677e-07
9.744614114e-07
1.30309085e-06
1.628080776e-06
2.301425203e-06
3.03419071e-06
4.593499157e-06
6.509799984e-06
1.064820783e-05
1.623730802e-05
2.413096161e-05
3.564902877e-05
5.088908595e-05
3.782484205e-05
1.104124454e-05
3.284592062e-06
1.256199209e-06
5.69226291e-07
2.809524016e-07
1.441800264e-07
7.5264742e-08
3.885758792e-08
2.021952769e-08
1.049215427e-08
5.382524488e-09
2.828934038e-09
1.533995608e-09
8.132223602e-10
4.658721785e-10
2.609901407e-10
1.661306365e-10
1.001634317e-10
6.388114261e-11
4.63943835e-11
3.339404686e-11
2.339336638e-11
1.579478298e-11
1.166967337e-11
9.914392094e-12
8.471636712e-12
7.251330226e-12
6.210852728e-12
5.330800747e-12
4.632984576e-12
4.033535491e-12
3.515297302e-12
3.059132812e-12
2.656106812e-12
2.302984326e-12
1.999147007e-12
1.74045675e-12
1.520760442e-12
1.333788658e-12
1.173983379e-12
1.036700467e-12
9.181544504e-13
8.152848303e-13
7.256162871e-13
6.471369684e-13
5.782004186e-13
5.174491349e-13
4.63755436e-13
4.16175811e-13
3.739154918e-13
3.363009062e-13
3.027579547e-13
2.72794778e-13
2.45987973e-13
2.219714774e-13
2.004275449e-13
1.81079353e-13
1.63684922e-13
1.480320711e-13
1.339342172e-13
1.212268552e-13
1.097645926e-13
9.941864174e-14
9.00746884e-14
8.163107231e-14
7.399722814e-14
6.70923444e-14
6.084420591e-14
5.51881911e-14
5.006640043e-14
4.542689675e-14
4.122304175e-14
3.741291365e-14
3.395879633e-14
3.082672895e-14
2.798610845e-14
2.540933798e-14
2.307151536e-14
2.095015638e-14
1.902494884e-14
1.727753329e-14
1.569130751e-14
1.425125188e-14
1.294377309e-14
1.175656423e-14
1.067847927e-14
9.699420504e-15
8.81023732e-15
8.002635223e-15
7.269093948e-15
6.602793679e-15
5.997548557e-15
5.447746717e-15
4.948296132e-15
4.49457577e-15
4.082391385e-15
3.70793561e-15
3.367751862e-15
3.058701664e-15
2.777935087e-15
2.522863982e-15
2.291137724e-15
2.080621279e-15
1.889375274e-15
1.715637976e-15
1.557808917e-15
1.414434075e-15
1.284192408e-15
1.165883641e-15
1.058417206e-15
9.608021662e-16
8.721381108e-16
7.916068511e-16
7.184649024e-16
6.520366665e-16
5.917082137e-16
5.36921656e-16
4.871700233e-16
4.419926181e-16
4.009708026e-16
3.637241398e-16
3.299069345e-16
2.992050394e-16
2.713330015e-16
2.460314302e-16
2.230646198e-16
2.022184063e-16
1.832981827e-16
1.66127135e-16
1.505446068e-16
1.364046288e-16
1.235745858e-16
1.119339982e-16
1.013734001e-16
9.179335314e-17
8.310352502e-17
7.522185804e-17
6.807381405e-17
6.159168265e-17
5.571396653e-17
5.038481653e-17
4.555350688e-17
4.117396435e-17
3.720435774e-17
3.360669722e-17
3.034648551e-17
2.739240648e-17
2.471602149e-17
2.229151044e-17
2.009544429e-17
1.81065399e-17
1.630549439e-17
1.467477301e-17
1.319847093e-17
1.186215385e-17
1.065272203e-17
9.558290514e-18
8.568071314e-18
7.672278439e-18
6.862043238e-18
6.129313594e-18
5.466778838e-18
4.867826963e-18
4.32644897e-18
3.837198478e-18
3.395141469e-18
2.995802095e-18
2.635123397e-18
2.309426569e-18
2.015383743e-18
1.749974093e-18
1.510458312e-18
1.294362707e-18
1.099438051e-18
9.236514874e-19
7.651630864e-19
6.223088159e-19
4.935782773e-19
3.776051888e-19
2.731489798e-19
1.790924469e-19
9.442749119e-20
1.823290246e-20
0
0
0
0
0
0
0
0
0
0
0
0
0
0
0
0
0
0
0
0
0
0
0
0
0
0
0
0
0
0
0
0
0
0
0
0
0
0
0
0
0
0
0
0
0
0
0
0
0
0
0
0
0
0
0
0
0
0
0
0
0
0
0
0
0
0
0
0
0
0
0
0
0
0
0
0
0
0
0
0
0
0
0
0
0
0
0
0
0
0
0
0
0
0
0
0
0
0
0
0
0
0
0
0
0
0
0
0
0
0
0
0
0
0
0
0
0
0
0
0
0
0
0
0
0
0
0
0
0
0
0
0
0
0
0
0
0
0
0
0
0
0
0
0
0
0
0
0
0
0
0
0
0
0
0
0
0
0
0
0
0
0
0
0
0
0
0
0
0
0
0
0
0
0
0
0
0
0
0
0
0
0
0
0
0
0
0
0
0
0
0
0
0
0
0
0
0
0
0
0
0
0
0
0
0
0
0
0
0
0
0
0
0
0
0
0
0
0
0
0
0
0
0
0
0
0
0
0
0
0
0
0
0
0
0
0
0
0
0
0
0
0
0
0
0
0
0
0
0
0
0
0
0
0
0
4.150810075e-08
4.155672754e-08
4.164916991e-08
4.178094357e-08
4.194775174e-08
4.214560714e-08
4.237088546e-08
4.262036369e-08
4.289119884e-08
4.318092117e-08
4.348739427e-08
4.380881675e-08
4.414365811e-08
4.449064342e-08
4.48487003e-08
4.521696573e-08
4.559472167e-08
4.598143039e-08
4.637668392e-08
4.678016482e-08
4.719165337e-08
4.761097819e-08
4.803804169e-08
4.847279989e-08
4.891525509e-08
4.936544754e-08
4.98603974e-08
5.039170266e-08
5.093257216e-08
5.148328181e-08
5.204410946e-08
5.261533885e-08
5.319727601e-08
5.379025282e-08
5.439462555e-08
5.501075017e-08
5.563895079e-08
5.627958588e-08
5.693310646e-08
5.759997678e-08
5.828066839e-08
5.897565821e-08
5.968540105e-08
6.041037007e-08
6.115101703e-08
6.190775914e-08
6.268096826e-08
6.347087815e-08
6.427750282e-08
6.510035904e-08
6.593763354e-08
6.6790717e-08
6.766193764e-08
6.855259848e-08
6.946427636e-08
7.039809475e-08
7.13550172e-08
7.233595182e-08
7.334176142e-08
7.437330004e-08
7.543134417e-08
7.651687077e-08
7.763089985e-08
7.877451803e-08
7.994883019e-08
8.115493424e-08
8.250685238e-08
8.397085758e-08
8.547678782e-08
8.702627412e-08
8.862100979e-08
9.028023613e-08
9.214447213e-08
9.406617272e-08
9.604760522e-08
9.809110472e-08
1.001991783e-07
1.023743471e-07
1.046192363e-07
1.069367147e-07
1.093302287e-07
1.118044281e-07
1.143620806e-07
1.17006327e-07
1.197406799e-07
1.22569208e-07
1.254961302e-07
1.285259862e-07
1.316634731e-07
1.35246069e-07
1.390799235e-07
1.430584881e-07
1.471891717e-07
1.51479718e-07
1.559380702e-07
1.605726552e-07
1.653929456e-07
1.704075999e-07
1.756271636e-07
1.810599352e-07
1.867142201e-07
1.926032081e-07
1.987398251e-07
2.051365808e-07
2.121753358e-07
2.199684265e-07
2.280994309e-07
2.365810135e-07
2.454325727e-07
2.546710344e-07
2.644034165e-07
2.750717108e-07
2.861908079e-07
2.977604009e-07
3.097701712e-07
3.22198415e-07
3.358134558e-07
3.501930859e-07
3.648405988e-07
3.794353105e-07
3.945532751e-07
4.097305197e-07
4.259252707e-07
4.423161709e-07
4.602373841e-07
4.784394598e-07
4.986939654e-07
5.198394404e-07
5.441293071e-07
5.7001448e-07
6.003107096e-07
6.312057188e-07
6.673874117e-07
7.049118381e-07
7.504398245e-07
7.998560816e-07
8.643895579e-07
9.40499643e-07
1.038854756e-06
1.147470231e-06
1.281160757e-06
1.443653496e-06
1.643526599e-06
1.874048965e-06
2.176515795e-06
2.526606091e-06
2.996068021e-06
3.569624214e-06
4.341165099e-06
5.337102572e-06
6.736814748e-06
8.594402776e-06
1.130783573e-05
1.506441349e-05
2.069502722e-05
2.86920404e-05
4.0533427e-05
5.596611445e-05
7.408929796e-05
8.922338998e-05
8.387408675e-05
4.762043191e-05
1.93911777e-05
8.112009431e-06
3.766088111e-06
1.885636308e-06
9.821773508e-07
5.172701825e-07
2.748522209e-07
1.44963284e-07
7.449143517e-08
3.880771416e-08
1.98520116e-08
1.014322767e-08
5.256251771e-09
2.789586908e-09
1.522553225e-09
8.437979114e-10
4.790497875e-10
3.004324475e-10
1.789108545e-10
1.18541283e-10
8.020712894e-11
5.040835099e-11
3.623746585e-11
2.78053331e-11
2.097665142e-11
1.528492069e-11
1.06519454e-11
7.027295239e-12
6.040584189e-12
5.202946581e-12
4.493197982e-12
3.888327307e-12
3.369632543e-12
2.923735889e-12
2.541162022e-12
2.214512118e-12
1.936124028e-12
1.698494279e-12
1.494922249e-12
1.319748333e-12
1.168312729e-12
1.03681404e-12
9.221543022e-13
8.218005328e-13
7.336691201e-13
6.560342408e-13
5.874570168e-13
5.267300008e-13
4.728338028e-13
4.249027037e-13
3.821978446e-13
3.440856019e-13
3.100202004e-13
2.795296324e-13
2.522041558e-13
2.276868789e-13
2.056659407e-13
1.858680364e-13
1.680529935e-13
1.520092246e-13
1.375498909e-13
1.245096471e-13
1.127418767e-13
1.02116329e-13
9.251709248e-14
8.384085208e-14
7.599538368e-14
6.889825145e-14
6.24756759e-14
5.666154723e-14
5.139656328e-14
4.662747606e-14
4.230642805e-14
3.839037069e-14
3.484054986e-14
3.162205189e-14
2.87034015e-14
2.605620543e-14
2.365483561e-14
2.147614764e-14
1.949922937e-14
1.770517709e-14
1.607689532e-14
1.459891779e-14
1.325724709e-14
1.203921088e-14
1.093333309e-14
9.929217788e-15
9.017445196e-15
8.189477924e-15
7.437576565e-15
6.754723655e-15
6.13455512e-15
5.571298388e-15
5.05971662e-15
4.59505819e-15
4.173011188e-15
3.7896622e-15
3.441459068e-15
3.12517719e-15
2.837889028e-15
2.576936479e-15
2.339905909e-15
2.124605481e-15
1.92904464e-15
1.751415522e-15
1.59007609e-15
1.443534846e-15
1.310436979e-15
1.18955177e-15
1.079761206e-15
9.800496155e-16
8.894942757e-16
8.072568875e-16
7.325758392e-16
6.647591774e-16
6.031782275e-16
5.472618e-16
4.964909314e-16
4.50394113e-16
4.085429395e-16
3.705481807e-16
3.360561957e-16
3.04745678e-16
2.763247089e-16
2.505280625e-16
2.271147809e-16
2.058659441e-16
1.865826688e-16
1.690842696e-16
1.532066043e-16
1.388005575e-16
1.257306742e-16
1.138739003e-16
1.031184657e-16
9.336283998e-17
8.451480648e-17
7.649060436e-17
6.921415796e-17
6.261637466e-17
5.663450967e-17
5.121157884e-17
4.629583764e-17
4.184029871e-17
3.780229913e-17
3.4143097e-17
3.082752712e-17
2.782365341e-17
2.510248919e-17
2.263772809e-17
2.04054777e-17
1.838406465e-17
1.655381108e-17
1.489686046e-17
1.339700974e-17
1.203956041e-17
1.081116502e-17
9.699722197e-18
8.694249528e-18
7.784788983e-18
6.962306431e-18
6.21860304e-18
5.546251552e-18
4.938511177e-18
4.389270832e-18
3.892992794e-18
3.44465932e-18
3.039712631e-18
2.674026066e-18
2.343866606e-18
2.045841558e-18
1.776882297e-18
1.534208287e-18
1.315300656e-18
1.117872991e-18
9.39865242e-19
7.794067561e-19
6.34802326e-19
5.045232468e-19
3.871738921e-19
2.815003105e-19
1.863697126e-19
1.007548786e-19
2.372817138e-20
0
0
0
0
0
0
0
0
0
0
0
0
0
0
0
0
0
0
0
0
0
0
0
0
0
0
0
0
0
0
0
0
0
0
0
0
0
0
0
0
0
0
0
0
0
0
0
0
0
0
0
0
0
0
0
0
0
0
0
0
0
0
0
0
0
0
0
0
0
0
0
0
0
0
0
0
0
0
0
0
0
0
0
0
0
0
0
0
0
0
0
0
0
0
0
0
0
0
0
0
0
0
0
0
0
0
0
0
0
0
0
0
0
0
0
0
0
0
0
0
0
0
0
0
0
0
0
0
0
0
0
0
0
0
0
0
0
0
0
0
0
0
0
0
0
0
0
0
0
0
0
0
0
0
0
0
0
0
0
0
0
0
0
0
0
0
0
0
0
0
0
0
0
0
0
0
0
0
0
0
0
0
0
0
0
0
0
0
0
0
0
0
0
0
0
0
0
0
0
0
0
0
0
0
0
0
0
0
0
0
0
0
0
0
0
0
0
0
0
0
0
0
0
0
0
0
0
0
0
0
0
0
0
0
0
0
0
0
0
0
0
0
0
0
0
0
0
0
0
0
0
0
0
0
1.044644196e-07
1.046009031e-07
1.048590967e-07
1.052257596e-07
1.056886902e-07
1.062367748e-07
1.068600167e-07
1.075495498e-07
1.082975876e-07
1.090973661e-07
1.09943068e-07
1.108297662e-07
1.117533079e-07
1.127102209e-07
1.13697601e-07
1.147130521e-07
1.157546242e-07
1.168208769e-07
1.179107448e-07
1.190233984e-07
1.201582425e-07
1.213148526e-07
1.224929422e-07
1.23692414e-07
1.249133595e-07
1.261560916e-07
1.275097955e-07
1.289542331e-07
1.30424876e-07
1.319223156e-07
1.334472522e-07
1.350004549e-07
1.365827591e-07
1.381950715e-07
1.39838379e-07
1.415137982e-07
1.432220802e-07
1.449638711e-07
1.467406154e-07
1.485537166e-07
1.504044795e-07
1.522941961e-07
1.542241293e-07
1.561955653e-07
1.58209811e-07
1.602681232e-07
1.623716862e-07
1.645214286e-07
1.667180973e-07
1.68962231e-07
1.712544885e-07
1.735970086e-07
1.760599609e-07
1.787549679e-07
1.815163752e-07
1.843472309e-07
1.872504208e-07
1.902287269e-07
1.932848969e-07
1.96421724e-07
1.999553595e-07
2.03622045e-07
2.073890036e-07
2.112606664e-07
2.15241219e-07
2.193349263e-07
2.235460968e-07
2.278792118e-07
2.32338974e-07
2.369303421e-07
2.416586786e-07
2.465299423e-07
2.515508953e-07
2.567261145e-07
2.62061268e-07
2.675625314e-07
2.732364828e-07
2.79089867e-07
2.851294612e-07
2.913613486e-07
2.977936018e-07
3.050344268e-07
3.126819659e-07
3.205910806e-07
3.287731978e-07
3.372407988e-07
3.460070964e-07
3.550860329e-07
3.644923048e-07
3.742420652e-07
3.8435056e-07
3.948334368e-07
4.057113879e-07
4.170061054e-07
4.287358583e-07
4.410924411e-07
4.551432112e-07
4.697570139e-07
4.849620778e-07
5.007874296e-07
5.180079264e-07
5.360042882e-07
5.547698654e-07
5.74346908e-07
5.947719609e-07
6.160852935e-07
6.383627528e-07
6.637023369e-07
6.901645923e-07
7.177966844e-07
7.466421802e-07
7.76739855e-07
8.081151086e-07
8.407824704e-07
8.747433535e-07
9.099828846e-07
9.490370464e-07
9.900244043e-07
1.032175587e-06
1.076006525e-06
1.1219879e-06
1.169578705e-06
1.2195656e-06
1.271878091e-06
1.327538267e-06
1.388238575e-06
1.455623663e-06
1.527302286e-06
1.605147364e-06
1.688553799e-06
1.781100533e-06
1.88164557e-06
1.993660817e-06
2.125537592e-06
2.276400513e-06
2.447661978e-06
2.649310079e-06
2.890990905e-06
3.185440286e-06
3.523086735e-06
3.93693644e-06
4.425395169e-06
5.015056623e-06
5.727781842e-06
6.60210039e-06
7.663149603e-06
9.018175871e-06
1.071378578e-05
1.290057632e-05
1.572081328e-05
1.94671986e-05
2.442565258e-05
3.115483736e-05
4.027274704e-05
5.274666152e-05
6.929241013e-05
9.064457052e-05
0.0001152184615
0.0001374392094
0.0001442546582
0.000120504635
7.65538345e-05
4.162079916e-05
2.20369582e-05
1.19022993e-05
6.560453762e-06
3.62022176e-06
1.99322523e-06
1.079950164e-06
5.761478194e-07
3.030476286e-07
1.560911427e-07
7.779866524e-08
3.976750031e-08
1.99307837e-08
1.01028044e-08
5.343785435e-09
2.886131781e-09
1.593550045e-09
9.404303723e-10
5.584180539e-10
3.247755226e-10
2.160794627e-10
1.334656481e-10
8.878747283e-11
6.207330224e-11
4.056196397e-11
2.749314145e-11
2.137874656e-11
1.632865345e-11
1.212711479e-11
8.610391712e-12
5.657766023e-12
4.464593321e-12
3.884954979e-12
3.388988132e-12
2.964221276e-12
2.600155744e-12
2.2875005e-12
2.018119389e-12
1.785105908e-12
1.582743561e-12
1.406329963e-12
1.251991244e-12
1.116525601e-12
9.972766163e-13
8.920256481e-13
7.989066834e-13
7.163423715e-13
6.429921024e-13
5.777112345e-13
5.195168837e-13
4.675622752e-13
4.211149924e-13
3.795392562e-13
3.422813764e-13
3.08857638e-13
2.788443786e-13
2.518695185e-13
2.276055212e-13
2.05763406e-13
1.860876855e-13
1.683520578e-13
1.523557031e-13
1.379201215e-13
1.248864088e-13
1.131128997e-13
1.024731305e-13
9.285406482e-14
8.415455268e-14
7.628398415e-14
6.916110848e-14
6.271299887e-14
5.687414432e-14
5.15856456e-14
4.679451082e-14
4.245302852e-14
3.85182135e-14
3.495131518e-14
3.171738087e-14
2.878486688e-14
2.612529267e-14
2.371293089e-14
2.152453193e-14
1.95390768e-14
1.77375563e-14
1.610277297e-14
1.461916336e-14
1.327263902e-14
1.205044271e-14
1.094102011e-14
9.933903717e-15
9.019608617e-15
8.189538455e-15
7.435900739e-15
6.751630357e-15
6.130320762e-15
5.566161516e-15
5.053882196e-15
4.588701521e-15
4.166281433e-15
3.78268555e-15
3.434341616e-15
3.118007452e-15
2.830740254e-15
2.569868682e-15
2.332967651e-15
2.117835464e-15
1.92247312e-15
1.745065525e-15
1.583964517e-15
1.437673392e-15
1.304832981e-15
1.184208923e-15
1.074680173e-15
9.752285772e-16
8.849293961e-16
8.029427126e-16
7.285056359e-16
6.609252317e-16
5.995720874e-16
5.438744914e-16
4.933131344e-16
4.474163077e-16
4.057555292e-16
3.679415982e-16
3.336209795e-16
3.024725399e-16
2.7420459e-16
2.485521753e-16
2.252746321e-16
2.041533679e-16
1.849898364e-16
1.676036988e-16
1.518311649e-16
1.375234704e-16
1.245455092e-16
1.127745736e-16
1.020992271e-16
9.241826876e-17
8.363979704e-17
7.568035434e-17
6.846415881e-17
6.192239829e-17
5.599259478e-17
5.061801843e-17
4.574716688e-17
4.133327787e-17
3.733390713e-17
3.371051737e-17
3.042812668e-17
2.745499233e-17
2.476229114e-17
2.232387135e-17
2.011600208e-17
1.811713577e-17
1.630773719e-17
1.46700654e-17
1.318803356e-17
1.184704085e-17
1.063385169e-17
9.536451203e-18
8.543940902e-18
7.646444542e-18
6.83500018e-18
6.101483515e-18
5.438525642e-18
4.839450477e-18
4.298200522e-18
3.809287184e-18
3.367735617e-18
2.969041058e-18
2.609116834e-18
2.28426138e-18
1.991120837e-18
1.72665935e-18
1.488120768e-18
1.273017816e-18
1.079095968e-18
9.043119746e-19
7.468189538e-19
6.049396326e-19
4.771590766e-19
3.621090286e-19
2.58552101e-19
1.653677972e-19
8.153644228e-20
6.147910156e-21
0
0
0
0
0
0
0
0
0
0
0
0
0
0
0
0
0
0
0
0
0
0
0
0
0
0
0
0
0
0
0
0
0
0
0
0
0
0
0
0
0
0
0
0
0
0
0
0
0
0
0
0
0
0
0
0
0
0
0
0
0
0
0
0
0
0
0
0
0
0
0
0
0
0
0
0
0
0
0
0
0
0
0
0
0
0
0
0
0
0
0
0
0
0
0
0
0
0
0
0
0
0
0
0
0
0
0
0
0
0
0
0
0
0
0
0
0
0
0
0
0
0
0
0
0
0
0
0
0
0
0
0
0
0
0
0
0
0
0
0
0
0
0
0
0
0
0
0
0
0
0
0
0
0
0
0
0
0
0
0
0
0
0
0
0
0
0
0
0
0
0
0
0
0
0
0
0
0
0
0
0
0
0
0
0
0
0
0
0
0
0
0
0
0
0
0
0
0
0
0
0
0
0
0
0
0
0
0
0
0
0
0
0
0
0
0
0
0
0
0
0
0
0
0
0
0
0
0
0
0
0
0
0
0
0
0
0
0
0
0
0
0
0
0
0
0
0
0
0
0
0
0
2.171988178e-07
2.175064248e-07
2.180863856e-07
2.189075909e-07
2.199420524e-07
2.211646723e-07
2.22553113e-07
2.240876688e-07
2.257511011e-07
2.275284585e-07
2.294069022e-07
2.313756062e-07
2.334254856e-07
2.355489456e-07
2.37739639e-07
2.399922309e-07
2.423019271e-07
2.446660055e-07
2.470823343e-07
2.495491705e-07
2.520652295e-07
2.546296157e-07
2.572417225e-07
2.599010744e-07
2.626079536e-07
2.653634223e-07
2.681687641e-07
2.710248323e-07
2.739323097e-07
2.768922704e-07
2.799060254e-07
2.82975051e-07
2.861009574e-07
2.892854721e-07
2.925304248e-07
2.961889583e-07
2.999440295e-07
3.040265332e-07
3.082590965e-07
3.125807365e-07
3.169945112e-07
3.215035269e-07
3.261108829e-07
3.308197575e-07
3.356334504e-07
3.405555932e-07
3.45589853e-07
3.50738324e-07
3.560037423e-07
3.613890667e-07
3.668978684e-07
3.725352384e-07
3.783077889e-07
3.842223275e-07
3.902839602e-07
3.964985618e-07
4.028721482e-07
4.094105727e-07
4.161198317e-07
4.230062251e-07
4.300764948e-07
4.37617017e-07
4.457703456e-07
4.541510551e-07
4.627678602e-07
4.716303108e-07
4.807497552e-07
4.90134556e-07
4.997936969e-07
5.09737659e-07
5.199778319e-07
5.30526395e-07
5.413959522e-07
5.525986551e-07
5.641472561e-07
5.760553343e-07
5.883372556e-07
6.01008028e-07
6.140833619e-07
6.28254985e-07
6.436214054e-07
6.594968326e-07
6.759052459e-07
6.92870844e-07
7.104163663e-07
7.285696733e-07
7.473593725e-07
7.668150388e-07
7.869675197e-07
8.078490205e-07
8.294931683e-07
8.524648509e-07
8.775148261e-07
9.048269393e-07
9.332031541e-07
9.626952053e-07
9.933574789e-07
1.025249417e-06
1.058433357e-06
1.092975915e-06
1.128951933e-06
1.166433443e-06
1.20612883e-06
1.250244201e-06
1.29626211e-06
1.344277743e-06
1.394391708e-06
1.446713384e-06
1.501332601e-06
1.558350995e-06
1.617866176e-06
1.684162604e-06
1.754366135e-06
1.828289771e-06
1.906088113e-06
1.987083097e-06
2.07132239e-06
2.158812769e-06
2.251665714e-06
2.352551577e-06
2.457727228e-06
2.567733844e-06
2.683528332e-06
2.805792982e-06
2.935731113e-06
3.076010836e-06
3.234916155e-06
3.405627986e-06
3.590314985e-06
3.790384207e-06
4.00888477e-06
4.25452949e-06
4.53568526e-06
4.848691106e-06
5.201606734e-06
5.610942216e-06
6.099208732e-06
6.658649013e-06
7.320718764e-06
8.104634265e-06
9.024563902e-06
1.012682159e-05
1.143436366e-05
1.300523759e-05
1.491787327e-05
1.724440949e-05
2.009808239e-05
2.365813674e-05
2.816371093e-05
3.389049513e-05
4.123149961e-05
5.063874118e-05
6.292840468e-05
7.88284481e-05
9.928187381e-05
0.0001248312944
0.0001550099558
0.0001864649065
0.0002106791727
0.0002136774563
0.0001861687856
0.0001386545383
9.2434675e-05
5.844183377e-05
3.607059347e-05
2.184323051e-05
1.295409949e-05
7.467911181e-06
4.238020267e-06
2.3351961e-06
1.258273655e-06
6.673962345e-07
3.481062373e-07
1.779334429e-07
8.873369181e-08
4.43097116e-08
2.230401033e-08
1.167325691e-08
6.226039862e-09
3.422189826e-09
1.934904437e-09
1.100246018e-09
6.500014127e-10
4.079389783e-10
2.364875782e-10
1.62258611e-10
1.00568247e-10
6.874136735e-11
4.959872751e-11
3.358194414e-11
2.260428779e-11
1.801081862e-11
1.4101528e-11
1.076076239e-11
7.89373763e-12
5.426340493e-12
3.776778326e-12
3.334340398e-12
2.95054381e-12
2.61653871e-12
2.324833909e-12
2.069260587e-12
1.844708859e-12
1.646894569e-12
1.472209642e-12
1.317616042e-12
1.180538199e-12
1.058773737e-12
9.504355228e-13
8.538988076e-13
7.677625429e-13
6.908088765e-13
6.21979094e-13
5.603497062e-13
5.051129096e-13
4.555603935e-13
4.110692817e-13
3.71091125e-13
3.351418285e-13
3.027933859e-13
2.736666855e-13
2.47425381e-13
2.237706766e-13
2.024367092e-13
1.831866229e-13
1.658091493e-13
1.501156181e-13
1.359373708e-13
1.231234737e-13
1.115387311e-13
1.010619441e-13
9.15843647e-14
8.300834298e-14
7.524613044e-14
6.821881807e-14
6.18554062e-14
5.609197107e-14
5.087092662e-14
4.614036857e-14
4.185349084e-14
3.796806499e-14
3.444597711e-14
3.125281083e-14
2.835747776e-14
2.573188505e-14
2.335063833e-14
2.119077525e-14
1.923152602e-14
1.745409953e-14
1.584148943e-14
1.437830153e-14
1.305059756e-14
1.184575474e-14
1.075233929e-14
9.759992528e-15
8.859327926e-15
8.041838792e-15
7.299814144e-15
6.626263559e-15
6.014848831e-15
5.459822377e-15
4.955971572e-15
4.498568432e-15
4.083324028e-15
3.706347412e-15
3.364108295e-15
3.053403368e-15
2.771325766e-15
2.515237448e-15
2.282744157e-15
2.071672783e-15
1.88005075e-15
1.706087508e-15
1.548157579e-15
1.404785303e-15
1.274630964e-15
1.156478224e-15
1.049222732e-15
9.518617525e-16
8.63484827e-16
7.83265234e-16
7.104522899e-16
6.443643334e-16
5.843823742e-16
5.29944319e-16
4.805397472e-16
4.357051456e-16
3.95019601e-16
3.581008863e-16
3.246019057e-16
2.942074603e-16
2.666313205e-16
2.416135763e-16
2.189182e-16
1.983308708e-16
1.796569712e-16
1.627197858e-16
1.473588516e-16
1.334284684e-16
1.207963427e-16
1.093423608e-16
9.895746618e-17
8.954264103e-17
8.100799569e-17
7.327192256e-17
6.626033525e-17
5.990598038e-17
5.414780539e-17
4.893040066e-17
4.420346438e-17
3.992134392e-17
3.60426059e-17
3.252964499e-17
2.934834021e-17
2.646772416e-17
2.385969991e-17
2.149877505e-17
1.936181403e-17
1.74278333e-17
1.567779404e-17
1.409443086e-17
1.266207883e-17
1.136653041e-17
1.019490367e-17
9.135513553e-18