/*--------------------------------*- C++ -*----------------------------------*\
| =========                 |                                                 |
| \\      /  F ield         | OpenFOAM: The Open Source CFD Toolbox           |
|  \\    /   O peration     | Version:  v2006                                 |
|   \\  /    A nd           | Website:  www.openfoam.com                      |
|    \\/     M anipulation  |                                                 |
\*---------------------------------------------------------------------------*/
FoamFile
{
    version     2.0;
    format      ascii;
    class       volScalarField;
    location    "0.1";
    object      O2;
}
// * * * * * * * * * * * * * * * * * * * * * * * * * * * * * * * * * * * * * //

dimensions      [0 0 0 0 0 0 0];


internalField   nonuniform List<scalar> 
72000
(
0.0006419591276
0.0006419596756
0.0006419607215
0.0006419622055
0.000641964074
0.0006419662794
0.0006419687793
0.000641971538
0.0006419745232
0.0006419777083
0.0006419810697
0.000641984588
0.0006419882472
0.0006419920335
0.0006419959353
0.0006419999437
0.000642004051
0.0006420082504
0.0006420125371
0.0006420169069
0.0006420213567
0.0006420259031
0.0006420305282
0.0006420352267
0.0006420399969
0.000642044838
0.000642049748
0.0006420547276
0.0006420597782
0.0006420649006
0.0006420700957
0.0006420753644
0.0006420807081
0.0006420861281
0.000642091626
0.0006420972031
0.0006421028595
0.0006421085953
0.0006421144121
0.0006421203121
0.0006421262973
0.0006421323694
0.0006421385298
0.0006421447794
0.0006421511181
0.0006421575452
0.0006421640577
0.0006421706474
0.0006421773001
0.0006421839934
0.0006421911479
0.000642198586
0.0006422060898
0.0006422136817
0.0006422213807
0.0006422291993
0.0006422371453
0.0006422452263
0.0006422534468
0.0006422618127
0.0006422703297
0.0006422789958
0.0006422878162
0.0006422967918
0.0006423059296
0.0006423151468
0.0006423237873
0.0006423325879
0.0006423415577
0.0006423507002
0.000642360017
0.0006423695022
0.0006423791466
0.0006423889725
0.0006423989945
0.0006424092173
0.0006424196466
0.0006424302886
0.0006424411527
0.0006424522473
0.0006424635844
0.0006424751788
0.0006424870377
0.0006424991632
0.0006425115591
0.0006425242331
0.0006425371935
0.000642550452
0.0006425641262
0.000642578173
0.0006425925667
0.0006426073287
0.0006426224787
0.0006426380386
0.0006426540259
0.000642670467
0.0006426873808
0.0006427047811
0.0006427225886
0.0006427409126
0.0006427597813
0.0006427792273
0.0006427992877
0.0006428199884
0.0006428413633
0.0006428634432
0.0006428862659
0.0006429098683
0.0006429342993
0.0006429595843
0.0006429857984
0.0006430129488
0.0006430411079
0.0006430706526
0.0006430993304
0.0006431636242
0.0006429795112
0.0006440963542
0.0006406889516
0.0006472492704
0.0006406204116
0.0006508073467
0.0006405536018
0.000654737374
0.0006404853225
0.0006589213464
0.000640400611
0.0006635003136
0.0006403326468
0.0006687292205
0.0006402429735
0.0006748329158
0.0006401378117
0.0006825924082
0.0006399426828
0.0006969941675
0.0006397842058
0.0007009853127
0.0006395303529
0.0007037330154
0.0006393378045
0.0007070087032
0.0006395861942
0.000711642778
0.0006407458418
0.0007175652014
0.0006421936964
0.0007244937302
0.0006424681824
0.0007373432461
0.0006418542154
0.0007459424425
0.0006408645496
0.0007757157995
0.0006392061548
0.0007787916805
0.0006362655762
0.0006341981638
0.0006319869151
0.0009938462969
0.0006514201698
0.01335465747
0.03787034556
0.06172401302
0.08214252923
0.09947361275
0.114526095
0.1278571394
0.1397799694
0.1504539985
0.1599741565
0.168390007
0.1757613606
0.1821474867
0.1876306319
0.1922998009
0.196249307
0.1995757192
0.2023731416
0.2047252582
0.206706439
0.2083800279
0.2098001419
0.2110106291
0.2120477381
0.2129405758
0.2137123081
0.2143828892
0.2149701238
0.2154862533
0.2159385305
0.2163339686
0.2166898188
0.2170120681
0.2173049352
0.2175810616
0.2178524435
0.2181013984
0.2183231615
0.2185182369
0.2186891216
0.218838823
0.2189702364
0.2190859263
0.219188084
0.2192785566
0.2193588955
0.2194304074
0.2194941977
0.2195512072
0.2196022414
0.2196479937
0.2196890645
0.2197259758
0.2197591832
0.2197890865
0.2198160369
0.2198403446
0.2198622836
0.219882097
0.2199000009
0.2199161876
0.2199308286
0.2199440772
0.2199560703
0.2199669309
0.2199767689
0.2199856834
0.2199937633
0.2200010884
0.2200077307
0.2200137553
0.2200192205
0.2200241792
0.2200286789
0.2200327629
0.22003647
0.2200398353
0.2200428908
0.2200456652
0.2200481846
0.2200504726
0.2200525507
0.2200544383
0.2200561528
0.2200577104
0.2200591253
0.2200604107
0.2200615786
0.2200626396
0.2200636036
0.2200644796
0.2200652755
0.2200659986
0.2200666557
0.2200672528
0.2200677953
0.2200682883
0.2200687363
0.2200691433
0.2200695132
0.2200698492
0.2200701546
0.220070432
0.2200706841
0.2200709132
0.2200711213
0.2200713104
0.2200714822
0.2200716382
0.22007178
0.2200719088
0.2200720258
0.2200721321
0.2200722286
0.2200723163
0.220072396
0.2200724683
0.220072534
0.2200725937
0.2200726479
0.2200726971
0.2200727418
0.2200727823
0.2200728192
0.2200728526
0.2200728829
0.2200729105
0.2200729355
0.2200729582
0.2200729788
0.2200729975
0.2200730145
0.2200730299
0.2200730439
0.2200730565
0.220073068
0.2200730785
0.2200730879
0.2200730965
0.2200731043
0.2200731113
0.2200731177
0.2200731235
0.2200731288
0.2200731336
0.2200731379
0.2200731418
0.2200731453
0.2200731486
0.2200731515
0.2200731541
0.2200731565
0.2200731587
0.2200731606
0.2200731624
0.220073164
0.2200731654
0.2200731668
0.2200731679
0.220073169
0.22007317
0.2200731709
0.2200731717
0.2200731724
0.220073173
0.2200731736
0.2200731742
0.2200731746
0.2200731751
0.2200731755
0.2200731758
0.2200731761
0.2200731764
0.2200731767
0.2200731769
0.2200731771
0.2200731773
0.2200731775
0.2200731776
0.2200731778
0.2200731779
0.220073178
0.2200731781
0.2200731782
0.2200731783
0.2200731784
0.2200731784
0.2200731785
0.2200731785
0.2200731786
0.2200731786
0.2200731787
0.2200731787
0.2200731787
0.2200731788
0.2200731788
0.2200731788
0.2200731788
0.2200731789
0.2200731789
0.2200731789
0.2200731789
0.2200731789
0.2200731789
0.2200731789
0.2200731789
0.2200731789
0.2200731789
0.220073179
0.220073179
0.220073179
0.220073179
0.220073179
0.220073179
0.220073179
0.220073179
0.220073179
0.220073179
0.220073179
0.220073179
0.220073179
0.220073179
0.220073179
0.220073179
0.220073179
0.220073179
0.220073179
0.220073179
0.220073179
0.220073179
0.220073179
0.220073179
0.220073179
0.220073179
0.220073179
0.220073179
0.220073179
0.220073179
0.220073179
0.220073179
0.220073179
0.220073179
0.220073179
0.220073179
0.220073179
0.220073179
0.220073179
0.220073179
0.220073179
0.220073179
0.220073179
0.220073179
0.220073179
0.220073179
0.220073179
0.220073179
0.220073179
0.220073179
0.220073179
0.220073179
0.220073179
0.220073179
0.220073179
0.220073179
0.220073179
0.220073179
0.220073179
0.220073179
0.220073179
0.220073179
0.220073179
0.220073179
0.220073179
0.220073179
0.220073179
0.220073179
0.220073179
0.220073179
0.220073179
0.220073179
0.220073179
0.220073179
0.220073179
0.220073179
0.220073179
0.220073179
0.220073179
0.220073179
0.220073179
0.220073179
0.220073179
0.220073179
0.220073179
0.220073179
0.220073179
0.220073179
0.220073179
0.220073179
0.220073179
0.220073179
0.220073179
0.220073179
0.220073179
0.220073179
0.220073179
0.220073179
0.220073179
0.220073179
0.220073179
0.220073179
0.220073179
0.220073179
0.220073179
0.220073179
0.220073179
0.220073179
0.220073179
0.220073179
0.220073179
0.220073179
0.220073179
0.220073179
0.220073179
0.220073179
0.220073179
0.220073179
0.220073179
0.220073179
0.220073179
0.220073179
0.220073179
0.220073179
0.220073179
0.220073179
0.220073179
0.220073179
0.220073179
0.220073179
0.220073179
0.220073179
0.220073179
0.220073179
0.220073179
0.220073179
0.220073179
0.220073179
0.220073179
0.220073179
0.220073179
0.220073179
0.220073179
0.220073179
0.220073179
0.220073179
0.220073179
0.220073179
0.220073179
0.220073179
0.220073179
0.220073179
0.220073179
0.220073179
0.220073179
0.220073179
0.220073179
0.220073179
0.220073179
0.220073179
0.220073179
0.220073179
0.220073179
0.220073179
0.220073179
0.220073179
0.220073179
0.220073179
0.220073179
0.220073179
0.220073179
0.220073179
0.220073179
0.220073179
0.220073179
0.220073179
0.220073179
0.220073179
0.220073179
0.220073179
0.220073179
0.220073179
0.220073179
0.220073179
0.220073179
0.220073179
0.220073179
0.220073179
0.220073179
0.220073179
0.220073179
0.220073179
0.220073179
0.220073179
0.220073179
0.220073179
0.220073179
0.220073179
0.220073179
0.220073179
0.220073179
0.220073179
0.220073179
0.220073179
0.220073179
0.220073179
0.220073179
0.220073179
0.220073179
0.220073179
0.220073179
0.220073179
0.220073179
0.220073179
0.220073179
0.220073179
0.220073179
0.220073179
0.220073179
0.220073179
0.220073179
0.220073179
0.220073179
0.220073179
0.220073179
0.220073179
0.220073179
0.220073179
0.220073179
0.220073179
0.220073179
0.0007873071168
0.0007874191222
0.0007876328268
0.0007879376379
0.0007883232948
0.0007887803735
0.0007893002538
0.0007898754271
0.000790499242
0.0007911660041
0.0007918707053
0.0007926092133
0.0007933780192
0.0007941741565
0.0007949951702
0.0007958390475
0.0007967040708
0.0007975890017
0.0007984928384
0.0007994147577
0.0008003541863
0.0008013106083
0.0008022836602
0.000803273086
0.0008042787944
0.0008053006897
0.0008063386808
0.0008073930341
0.0008084641377
0.0008095523851
0.0008106581726
0.000811781912
0.0008129240408
0.0008140850007
0.0008152653494
0.0008164655782
0.0008176860445
0.00081892713
0.0008201894544
0.0008214737148
0.0008227805796
0.0008241107162
0.0008254647073
0.0008268431639
0.0008282465449
0.0008296751694
0.0008311290285
0.0008326075758
0.0008341092963
0.0008356311273
0.0008371529112
0.0008386832392
0.00084023648
0.000841816628
0.0008434269422
0.0008450697753
0.000846746866
0.0008484597252
0.0008502096727
0.0008519979716
0.0008538258642
0.0008556944822
0.0008576051403
0.000859559079
0.0008615574772
0.0008636009984
0.000865689857
0.0008678286799
0.000870018894
0.0008722622094
0.0008745601139
0.0008769132891
0.000879320767
0.000881787911
0.0008843177529
0.000886912625
0.0008895751496
0.0008923074601
0.0008951121547
0.0008979923702
0.0009009517051
0.0009039943756
0.0009071230161
0.0009103403594
0.0009136492159
0.0009170532483
0.0009205558461
0.0009241607028
0.0009278235131
0.000931590893
0.0009354732912
0.0009394767243
0.000943607632
0.0009478723032
0.000952277581
0.0009568299533
0.0009615367074
0.0009664038375
0.0009713574835
0.0009764790483
0.0009817783415
0.0009872650791
0.0009929495251
0.0009988409847
0.001004948007
0.001011279713
0.001017847123
0.001024660894
0.001031714608
0.001038953702
0.00104646545
0.001054254353
0.001062329304
0.001070685963
0.001079295402
0.001088131458
0.001097239079
0.001106371228
0.001116342032
0.001124236402
0.001134953897
0.001142281676
0.001154297353
0.001161466937
0.001175244736
0.001182506016
0.00119830741
0.00120558809
0.001223335492
0.001230791424
0.00125117117
0.001258891541
0.001282405742
0.001290431034
0.001318087911
0.001327018236
0.00136472581
0.001381044968
0.001428799036
0.00145304937
0.001511401294
0.001544606406
0.001619679606
0.00166392502
0.001761550527
0.001814409424
0.001937072711
0.002017368863
0.002185957859
0.002307661265
0.002553486103
0.002740819357
0.003121099717
0.003422866632
0.004054924069
0.004612972643
0.005802577987
0.007027791669
0.008593515339
0.01089693402
0.01648208015
0.02895435004
0.04756155379
0.06653756045
0.08397568515
0.09963017582
0.1137228387
0.1264933204
0.1381036866
0.1486358673
0.1581328184
0.1666169926
0.1741116089
0.18066003
0.1863220542
0.1911674054
0.1952836858
0.1987595192
0.20168582
0.2041474882
0.2062199178
0.207970103
0.2094533397
0.210715892
0.2117964456
0.2127260813
0.2135273813
0.2142159311
0.2148215519
0.215356725
0.2158303857
0.2162531947
0.2166355837
0.2169829926
0.2173033786
0.2175997454
0.2178714553
0.218115456
0.2183315085
0.2185216148
0.2186886486
0.2188355704
0.2189650933
0.219079581
0.2191810487
0.2192712019
0.2193514837
0.2194231196
0.2194871556
0.2195444889
0.2195958937
0.2196420408
0.2196835147
0.219720826
0.219754423
0.2197847001
0.2198120054
0.2198366473
0.2198588989
0.2198790033
0.2198971768
0.2199136125
0.2199284827
0.2199419417
0.2199541278
0.2199651649
0.2199751643
0.219984226
0.21999244
0.2199998873
0.2200066409
0.2200127666
0.2200183238
0.220023366
0.2200279416
0.2200320944
0.2200358639
0.2200392859
0.2200423928
0.2200452138
0.2200477755
0.2200501019
0.2200522148
0.2200541338
0.2200558769
0.2200574603
0.2200588986
0.2200602053
0.2200613924
0.2200624709
0.2200634507
0.220064341
0.2200651499
0.2200658848
0.2200665526
0.2200671593
0.2200677106
0.2200682115
0.2200686666
0.2200690802
0.2200694559
0.2200697974
0.2200701076
0.2200703894
0.2200706455
0.2200708782
0.2200710896
0.2200712816
0.2200714561
0.2200716146
0.2200717586
0.2200718894
0.2200720082
0.2200721161
0.2200722142
0.2200723032
0.2200723841
0.2200724576
0.2200725243
0.2200725848
0.2200726399
0.2200726898
0.2200727352
0.2200727764
0.2200728137
0.2200728477
0.2200728785
0.2200729065
0.2200729319
0.2200729549
0.2200729758
0.2200729948
0.220073012
0.2200730277
0.2200730419
0.2200730547
0.2200730664
0.220073077
0.2200730866
0.2200730953
0.2200731032
0.2200731103
0.2200731168
0.2200731227
0.2200731281
0.2200731329
0.2200731373
0.2200731412
0.2200731448
0.2200731481
0.2200731511
0.2200731537
0.2200731562
0.2200731584
0.2200731603
0.2200731621
0.2200731638
0.2200731652
0.2200731666
0.2200731678
0.2200731689
0.2200731699
0.2200731707
0.2200731716
0.2200731723
0.2200731729
0.2200731735
0.2200731741
0.2200731746
0.220073175
0.2200731754
0.2200731758
0.2200731761
0.2200731764
0.2200731766
0.2200731769
0.2200731771
0.2200731773
0.2200731775
0.2200731776
0.2200731778
0.2200731779
0.220073178
0.2200731781
0.2200731782
0.2200731783
0.2200731784
0.2200731784
0.2200731785
0.2200731785
0.2200731786
0.2200731786
0.2200731787
0.2200731787
0.2200731787
0.2200731788
0.2200731788
0.2200731788
0.2200731788
0.2200731788
0.2200731789
0.2200731789
0.2200731789
0.2200731789
0.2200731789
0.2200731789
0.2200731789
0.2200731789
0.2200731789
0.220073179
0.220073179
0.220073179
0.220073179
0.220073179
0.220073179
0.220073179
0.220073179
0.220073179
0.220073179
0.220073179
0.220073179
0.220073179
0.220073179
0.220073179
0.220073179
0.220073179
0.220073179
0.220073179
0.220073179
0.220073179
0.220073179
0.220073179
0.220073179
0.220073179
0.220073179
0.220073179
0.220073179
0.220073179
0.220073179
0.220073179
0.220073179
0.220073179
0.220073179
0.220073179
0.220073179
0.220073179
0.220073179
0.220073179
0.220073179
0.220073179
0.220073179
0.220073179
0.220073179
0.220073179
0.220073179
0.220073179
0.220073179
0.220073179
0.220073179
0.220073179
0.220073179
0.220073179
0.220073179
0.220073179
0.220073179
0.220073179
0.220073179
0.220073179
0.220073179
0.220073179
0.220073179
0.220073179
0.220073179
0.220073179
0.220073179
0.220073179
0.220073179
0.220073179
0.220073179
0.220073179
0.220073179
0.220073179
0.220073179
0.220073179
0.220073179
0.220073179
0.220073179
0.220073179
0.220073179
0.220073179
0.220073179
0.220073179
0.220073179
0.220073179
0.220073179
0.220073179
0.220073179
0.220073179
0.220073179
0.220073179
0.220073179
0.220073179
0.220073179
0.220073179
0.220073179
0.220073179
0.220073179
0.220073179
0.220073179
0.220073179
0.220073179
0.220073179
0.220073179
0.220073179
0.220073179
0.220073179
0.220073179
0.220073179
0.220073179
0.220073179
0.220073179
0.220073179
0.220073179
0.220073179
0.220073179
0.220073179
0.220073179
0.220073179
0.220073179
0.220073179
0.220073179
0.220073179
0.220073179
0.220073179
0.220073179
0.220073179
0.220073179
0.220073179
0.220073179
0.220073179
0.220073179
0.220073179
0.220073179
0.220073179
0.220073179
0.220073179
0.220073179
0.220073179
0.220073179
0.220073179
0.220073179
0.220073179
0.220073179
0.220073179
0.220073179
0.220073179
0.220073179
0.220073179
0.220073179
0.220073179
0.220073179
0.220073179
0.220073179
0.220073179
0.220073179
0.220073179
0.220073179
0.220073179
0.220073179
0.220073179
0.220073179
0.220073179
0.220073179
0.220073179
0.220073179
0.220073179
0.220073179
0.220073179
0.220073179
0.220073179
0.220073179
0.220073179
0.220073179
0.220073179
0.220073179
0.220073179
0.220073179
0.220073179
0.220073179
0.220073179
0.220073179
0.220073179
0.220073179
0.220073179
0.220073179
0.220073179
0.220073179
0.220073179
0.220073179
0.220073179
0.220073179
0.220073179
0.220073179
0.220073179
0.220073179
0.220073179
0.220073179
0.220073179
0.220073179
0.220073179
0.220073179
0.220073179
0.220073179
0.220073179
0.220073179
0.220073179
0.220073179
0.220073179
0.220073179
0.220073179
0.220073179
0.220073179
0.220073179
0.220073179
0.220073179
0.220073179
0.220073179
0.220073179
0.220073179
0.220073179
0.220073179
0.220073179
0.220073179
0.220073179
0.220073179
0.220073179
0.220073179
0.220073179
0.220073179
0.220073179
0.0008951722733
0.0008953734506
0.0008957548315
0.0008962968059
0.0008969809855
0.0008977905767
0.0008987104992
0.0008997274426
0.0009008297525
0.0009020073488
0.0009032515583
0.0009045550734
0.0009059117156
0.0009073163196
0.0009087645425
0.0009102528323
0.0009117782486
0.0009133385578
0.0009149320296
0.0009165572756
0.0009182132356
0.0009198990293
0.0009216140149
0.0009233577599
0.0009251300601
0.0009269308736
0.0009287455974
0.000930578078
0.0009324396057
0.0009343307898
0.0009362522489
0.0009382046461
0.0009401887337
0.0009422053693
0.0009442555185
0.0009463400714
0.0009484595007
0.0009506143544
0.0009528057373
0.0009550348997
0.0009573030492
0.0009596113313
0.0009619607861
0.0009643524392
0.0009667871899
0.0009692657076
0.00097178822
0.0009743541029
0.0009769614002
0.0009796052797
0.0009822732118
0.0009849715011
0.0009877116099
0.0009904989369
0.0009933400871
0.0009962390186
0.000999198659
0.001002221476
0.001005309707
0.001008465615
0.001011691696
0.001014989637
0.001018361566
0.001021809965
0.001025337353
0.001028946128
0.001032616406
0.001036358707
0.001040190559
0.001044115295
0.001048136301
0.001052249102
0.001056394782
0.001060644607
0.001065002157
0.001069471086
0.001074055301
0.00107875874
0.001083585558
0.001088540559
0.001093630401
0.001098866074
0.001104249672
0.00110978433
0.001115474979
0.001121327787
0.001127349202
0.001133545932
0.001139924365
0.001146438748
0.001153131398
0.001160031079
0.00116714921
0.001174497105
0.001182085394
0.001189926274
0.001198034866
0.001206419588
0.001215095005
0.001224069022
0.001233349409
0.001242957193
0.001252911523
0.001263229558
0.00127387526
0.001284851361
0.001296234798
0.001308041727
0.001320297792
0.001333026323
0.00134620664
0.001359695747
0.001373689072
0.001388192268
0.001403203493
0.001418716553
0.001434619283
0.001450926214
0.001467660746
0.001484574736
0.001502185886
0.001520066208
0.001539069738
0.00155845507
0.00157939188
0.001600792935
0.001624181762
0.001647823434
0.001673698553
0.001700001889
0.001729199987
0.001759061132
0.001792694588
0.001827419829
0.001867417698
0.001909878904
0.001960430552
0.002014494558
0.002078565556
0.002147757009
0.002229445904
0.002316815707
0.002419885125
0.002531906072
0.002664533038
0.002808131363
0.002982251476
0.003176950046
0.003417516208
0.003693414486
0.004039887075
0.004447690821
0.004974758253
0.005614428642
0.006474623171
0.007564705033
0.00909005947
0.01107920933
0.01384509398
0.01806717333
0.02519388147
0.03663853506
0.05138137829
0.06688086899
0.08189696599
0.09601185487
0.1091660819
0.1214004382
0.1327600752
0.1432509483
0.1528638825
0.1615835739
0.1694016398
0.176329159
0.1823987152
0.1876597356
0.1921801114
0.1960379433
0.1993133708
0.2020882474
0.2044367433
0.206426106
0.2081161206
0.2095521797
0.2107805367
0.2118425813
0.2127624984
0.2135639987
0.2142702072
0.2148934934
0.2154476078
0.2159444425
0.2163874099
0.2167835297
0.2171390993
0.2174583268
0.2177437213
0.2179969966
0.2182207187
0.2184180596
0.2185922535
0.2187462823
0.2188827703
0.2190039801
0.219111847
0.2192080231
0.2192939232
0.2193707639
0.2194395956
0.2195013296
0.2195567591
0.2196065781
0.219651395
0.2196917453
0.2197281013
0.2197608808
0.2197904541
0.2198171501
0.2198412613
0.2198630485
0.2198827444
0.219900557
0.2199166725
0.2199312575
0.2199444618
0.2199564194
0.2199672511
0.2199770653
0.2199859597
0.2199940223
0.2200013323
0.2200079611
0.2200139734
0.2200194272
0.2200243752
0.2200288648
0.2200329392
0.220036637
0.2200399934
0.2200430404
0.2200458065
0.220048318
0.2200505984
0.2200526692
0.2200545497
0.2200562575
0.2200578085
0.2200592172
0.2200604968
0.2200616591
0.2200627148
0.2200636738
0.220064545
0.2200653364
0.2200660553
0.2200667085
0.2200673018
0.2200678408
0.2200683305
0.2200687754
0.2200691795
0.2200695467
0.2200698802
0.2200701833
0.2200704585
0.2200707086
0.2200709358
0.2200711421
0.2200713296
0.2200714999
0.2200716545
0.220071795
0.2200719226
0.2200720385
0.2200721438
0.2200722394
0.2200723262
0.2200724051
0.2200724767
0.2200725417
0.2200726007
0.2200726543
0.220072703
0.2200727472
0.2200727873
0.2200728237
0.2200728568
0.2200728868
0.220072914
0.2200729388
0.2200729612
0.2200729815
0.220073
0.2200730168
0.220073032
0.2200730458
0.2200730583
0.2200730696
0.2200730799
0.2200730893
0.2200730977
0.2200731054
0.2200731124
0.2200731187
0.2200731244
0.2200731296
0.2200731343
0.2200731385
0.2200731424
0.2200731459
0.220073149
0.2200731519
0.2200731545
0.2200731569
0.220073159
0.2200731609
0.2200731627
0.2200731642
0.2200731657
0.220073167
0.2200731681
0.2200731692
0.2200731702
0.220073171
0.2200731718
0.2200731725
0.2200731731
0.2200731737
0.2200731742
0.2200731747
0.2200731751
0.2200731755
0.2200731759
0.2200731762
0.2200731765
0.2200731767
0.220073177
0.2200731772
0.2200731773
0.2200731775
0.2200731777
0.2200731778
0.2200731779
0.220073178
0.2200731781
0.2200731782
0.2200731783
0.2200731784
0.2200731784
0.2200731785
0.2200731786
0.2200731786
0.2200731786
0.2200731787
0.2200731787
0.2200731787
0.2200731788
0.2200731788
0.2200731788
0.2200731788
0.2200731789
0.2200731789
0.2200731789
0.2200731789
0.2200731789
0.2200731789
0.2200731789
0.2200731789
0.2200731789
0.220073179
0.220073179
0.220073179
0.220073179
0.220073179
0.220073179
0.220073179
0.220073179
0.220073179
0.220073179
0.220073179
0.220073179
0.220073179
0.220073179
0.220073179
0.220073179
0.220073179
0.220073179
0.220073179
0.220073179
0.220073179
0.220073179
0.220073179
0.220073179
0.220073179
0.220073179
0.220073179
0.220073179
0.220073179
0.220073179
0.220073179
0.220073179
0.220073179
0.220073179
0.220073179
0.220073179
0.220073179
0.220073179
0.220073179
0.220073179
0.220073179
0.220073179
0.220073179
0.220073179
0.220073179
0.220073179
0.220073179
0.220073179
0.220073179
0.220073179
0.220073179
0.220073179
0.220073179
0.220073179
0.220073179
0.220073179
0.220073179
0.220073179
0.220073179
0.220073179
0.220073179
0.220073179
0.220073179
0.220073179
0.220073179
0.220073179
0.220073179
0.220073179
0.220073179
0.220073179
0.220073179
0.220073179
0.220073179
0.220073179
0.220073179
0.220073179
0.220073179
0.220073179
0.220073179
0.220073179
0.220073179
0.220073179
0.220073179
0.220073179
0.220073179
0.220073179
0.220073179
0.220073179
0.220073179
0.220073179
0.220073179
0.220073179
0.220073179
0.220073179
0.220073179
0.220073179
0.220073179
0.220073179
0.220073179
0.220073179
0.220073179
0.220073179
0.220073179
0.220073179
0.220073179
0.220073179
0.220073179
0.220073179
0.220073179
0.220073179
0.220073179
0.220073179
0.220073179
0.220073179
0.220073179
0.220073179
0.220073179
0.220073179
0.220073179
0.220073179
0.220073179
0.220073179
0.220073179
0.220073179
0.220073179
0.220073179
0.220073179
0.220073179
0.220073179
0.220073179
0.220073179
0.220073179
0.220073179
0.220073179
0.220073179
0.220073179
0.220073179
0.220073179
0.220073179
0.220073179
0.220073179
0.220073179
0.220073179
0.220073179
0.220073179
0.220073179
0.220073179
0.220073179
0.220073179
0.220073179
0.220073179
0.220073179
0.220073179
0.220073179
0.220073179
0.220073179
0.220073179
0.220073179
0.220073179
0.220073179
0.220073179
0.220073179
0.220073179
0.220073179
0.220073179
0.220073179
0.220073179
0.220073179
0.220073179
0.220073179
0.220073179
0.220073179
0.220073179
0.220073179
0.220073179
0.220073179
0.220073179
0.220073179
0.220073179
0.220073179
0.220073179
0.220073179
0.220073179
0.220073179
0.220073179
0.220073179
0.220073179
0.220073179
0.220073179
0.220073179
0.220073179
0.220073179
0.220073179
0.220073179
0.220073179
0.220073179
0.220073179
0.220073179
0.220073179
0.220073179
0.220073179
0.220073179
0.220073179
0.220073179
0.220073179
0.220073179
0.220073179
0.220073179
0.220073179
0.220073179
0.220073179
0.220073179
0.220073179
0.220073179
0.220073179
0.220073179
0.220073179
0.220073179
0.220073179
0.220073179
0.220073179
0.220073179
0.220073179
0.220073179
0.220073179
0.220073179
0.220073179
0.220073179
0.220073179
0.220073179
0.220073179
0.0009955993365
0.0009958771307
0.0009964016062
0.0009971446141
0.0009980805094
0.000999186212
0.001000441184
0.001001827352
0.001003328948
0.001004932335
0.001006625841
0.001008399624
0.001010245419
0.001012156304
0.001014126463
0.001016151037
0.001018226047
0.001020348559
0.001022516348
0.001024727605
0.001026980901
0.001029275075
0.001031609175
0.001033982559
0.001036395049
0.001038846938
0.001041325792
0.001043835006
0.001046384432
0.001048974669
0.001051606469
0.001054280711
0.001056998413
0.001059760767
0.001062569253
0.001065426114
0.001068330946
0.001071283314
0.00107428546
0.001077339523
0.001080447211
0.001083610082
0.001086829588
0.001090107158
0.001093444208
0.001096842012
0.001100301384
0.001103822169
0.001107403594
0.001111044248
0.001114743067
0.001118503433
0.001122305834
0.001126114906
0.001129999563
0.001133963821
0.00113801115
0.001142144577
0.001146366931
0.00115068101
0.001155048761
0.001159507263
0.001164064155
0.001168723439
0.00117348882
0.001178363963
0.001183351957
0.001188456843
0.001193683188
0.001199035474
0.001204518636
0.001210138499
0.001215902091
0.001221811681
0.001227871433
0.001234086231
0.00124046137
0.001247002277
0.001253714277
0.001260601654
0.001267671289
0.001274885377
0.001282284505
0.001289888843
0.001297706282
0.001305745711
0.001314016511
0.001322528378
0.001331291363
0.001340316552
0.00134961566
0.001359200578
0.001369090703
0.001379304616
0.001389852006
0.001400738865
0.001411933164
0.001423504172
0.0014354701
0.00144784919
0.001460448153
0.001473479082
0.001486981424
0.001500982231
0.001515495879
0.00153054401
0.001546148976
0.0015622449
0.001578948542
0.00159628864
0.001614293445
0.001632992318
0.001652401919
0.001672537762
0.001693415364
0.001715049197
0.001737340638
0.001760362665
0.001784146678
0.001808472225
0.001833526509
0.00185951219
0.001886739604
0.001915177414
0.001945221264
0.001976702107
0.002010107665
0.002045351884
0.00208305382
0.002122999839
0.002165532872
0.002210757913
0.002259939211
0.00231279522
0.002371155705
0.002435278783
0.002507304145
0.00258642682
0.002675544402
0.002774720502
0.002886421189
0.003010139444
0.003150551903
0.003307968368
0.003487232172
0.003690597715
0.003925543583
0.004197182085
0.004517821061
0.004895315023
0.005349997099
0.005897317541
0.006573498585
0.007409803138
0.008475449936
0.009839065143
0.01163441767
0.01400939088
0.01727499977
0.02198549882
0.02895869323
0.03869299989
0.05056453909
0.06339175441
0.076352954
0.0890401415
0.1012653689
0.1129498117
0.1240408047
0.1344950496
0.1442569991
0.1532772058
0.1615155572
0.168951941
0.1755841249
0.1814353993
0.1865493221
0.1909862041
0.1948108641
0.1980909258
0.2009016717
0.2033029673
0.2053671707
0.2071449568
0.2086823025
0.2100183799
0.2111819239
0.2122028301
0.213096191
0.213879578
0.2145691485
0.2151780685
0.2157162849
0.2161929897
0.2166158907
0.2169910163
0.2173233844
0.2176174728
0.217877583
0.2181078159
0.2183119074
0.2184931312
0.2186543229
0.2187979322
0.2189260739
0.2190405731
0.2191430112
0.2192347647
0.2193170346
0.2193908721
0.2194571993
0.2195168285
0.219570476
0.219618775
0.2196622865
0.2197015079
0.2197368817
0.2197688014
0.2197976178
0.2198236442
0.2198471602
0.219868416
0.2198876356
0.21990502
0.2199207491
0.2199349846
0.2199478718
0.2199595415
0.219970111
0.2199796861
0.2199883623
0.2199962253
0.2200033527
0.2200098144
0.2200156734
0.2200209868
0.2200258059
0.2200301773
0.2200341431
0.2200377413
0.2200410063
0.2200439693
0.2200466583
0.220049099
0.2200513143
0.2200533254
0.2200551511
0.2200568085
0.2200583134
0.2200596797
0.2200609204
0.220062047
0.22006307
0.220063999
0.2200648426
0.2200656088
0.2200663046
0.2200669365
0.2200675104
0.2200680316
0.220068505
0.2200689349
0.2200693254
0.22006968
0.2200700021
0.2200702946
0.2200705603
0.2200708015
0.2200710207
0.2200712197
0.2200714004
0.2200715645
0.2200717136
0.2200718489
0.2200719718
0.2200720834
0.2200721848
0.2200722768
0.2200723604
0.2200724362
0.2200725051
0.2200725676
0.2200726244
0.2200726759
0.2200727227
0.2200727651
0.2200728036
0.2200728386
0.2200728704
0.2200728992
0.2200729253
0.220072949
0.2200729705
0.2200729901
0.2200730078
0.2200730238
0.2200730384
0.2200730516
0.2200730636
0.2200730745
0.2200730843
0.2200730933
0.2200731014
0.2200731087
0.2200731154
0.2200731214
0.2200731269
0.2200731319
0.2200731364
0.2200731404
0.2200731441
0.2200731474
0.2200731505
0.2200731532
0.2200731557
0.2200731579
0.22007316
0.2200731618
0.2200731635
0.220073165
0.2200731663
0.2200731676
0.2200731687
0.2200731697
0.2200731706
0.2200731714
0.2200731722
0.2200731728
0.2200731735
0.220073174
0.2200731745
0.2200731749
0.2200731753
0.2200731757
0.220073176
0.2200731763
0.2200731766
0.2200731768
0.2200731771
0.2200731773
0.2200731774
0.2200731776
0.2200731777
0.2200731779
0.220073178
0.2200731781
0.2200731782
0.2200731783
0.2200731783
0.2200731784
0.2200731785
0.2200731785
0.2200731786
0.2200731786
0.2200731787
0.2200731787
0.2200731787
0.2200731788
0.2200731788
0.2200731788
0.2200731788
0.2200731788
0.2200731789
0.2200731789
0.2200731789
0.2200731789
0.2200731789
0.2200731789
0.2200731789
0.2200731789
0.2200731789
0.220073179
0.220073179
0.220073179
0.220073179
0.220073179
0.220073179
0.220073179
0.220073179
0.220073179
0.220073179
0.220073179
0.220073179