/*--------------------------------*- C++ -*----------------------------------*\
| =========                 |                                                 |
| \\      /  F ield         | OpenFOAM: The Open Source CFD Toolbox           |
|  \\    /   O peration     | Version:  v2006                                 |
|   \\  /    A nd           | Website:  www.openfoam.com                      |
|    \\/     M anipulation  |                                                 |
\*---------------------------------------------------------------------------*/
FoamFile
{
    version     2.0;
    format      ascii;
    class       volScalarField;
    location    "0.1";
    object      OH;
}
// * * * * * * * * * * * * * * * * * * * * * * * * * * * * * * * * * * * * * //

dimensions      [0 0 0 0 0 0 0];


internalField   nonuniform List<scalar> 
72000
(
3.691677329e-08
3.692429367e-08
3.693896693e-08
3.696017909e-08
3.698725247e-08
3.701951573e-08
3.705632106e-08
3.709708856e-08
3.71412903e-08
3.718847022e-08
3.7238217e-08
3.72901912e-08
3.734410149e-08
3.739969765e-08
3.74567752e-08
3.751516363e-08
3.757471841e-08
3.763533391e-08
3.769692279e-08
3.775941343e-08
3.782276134e-08
3.788693271e-08
3.795189754e-08
3.80176371e-08
3.808414409e-08
3.81514025e-08
3.821940493e-08
3.828817301e-08
3.835773317e-08
3.842811959e-08
3.849936256e-08
3.857149155e-08
3.864453374e-08
3.871850988e-08
3.879345532e-08
3.886940656e-08
3.894639794e-08
3.902446361e-08
3.910365028e-08
3.918399779e-08
3.926554461e-08
3.934833288e-08
3.943239972e-08
3.951779223e-08
3.96045509e-08
3.969272001e-08
3.978234273e-08
3.98734689e-08
3.996613832e-08
4.006038842e-08
4.015631394e-08
4.025393882e-08
4.035330266e-08
4.045446464e-08
4.055748484e-08
4.066241551e-08
4.076930425e-08
4.087821076e-08
4.098918507e-08
4.110227317e-08
4.121753074e-08
4.133501745e-08
4.145481301e-08
4.157698193e-08
4.170158846e-08
4.183525684e-08
4.202939619e-08
4.222747062e-08
4.24296411e-08
4.263604403e-08
4.284679766e-08
4.30620424e-08
4.328190005e-08
4.350649905e-08
4.373597666e-08
4.397045101e-08
4.421010999e-08
4.445505208e-08
4.470541954e-08
4.496135507e-08
4.522297646e-08
4.549048627e-08
4.576405547e-08
4.604390171e-08
4.6330224e-08
4.66232384e-08
4.692311816e-08
4.723002563e-08
4.754376968e-08
4.786478627e-08
4.819336573e-08
4.852978454e-08
4.887428505e-08
4.922703793e-08
4.958831986e-08
4.995830691e-08
5.033725434e-08
5.072539361e-08
5.112297e-08
5.153025147e-08
5.194743024e-08
5.237468865e-08
5.281217139e-08
5.325996849e-08
5.371815792e-08
5.418676596e-08
5.466582366e-08
5.515520043e-08
5.565452965e-08
5.616299524e-08
5.66804265e-08
5.720584975e-08
5.773774703e-08
5.827391489e-08
5.888247139e-08
5.962657562e-08
6.025060038e-08
6.138454492e-08
6.058744582e-08
6.379338856e-08
6.14737992e-08
6.612588227e-08
6.218001699e-08
6.852698571e-08
6.281609574e-08
7.103024063e-08
6.343129851e-08
7.373155552e-08
6.405306899e-08
7.674945279e-08
6.46679262e-08
8.019677599e-08
6.529143844e-08
8.446664526e-08
6.597981165e-08
9.219107567e-08
6.770171434e-08
9.760706361e-08
7.098057778e-08
1.045276021e-07
7.561293995e-08
1.13411512e-07
8.24693466e-08
1.277911804e-07
9.298364913e-08
1.473786005e-07
1.061110697e-07
1.725767336e-07
1.258439157e-07
2.202659926e-07
1.5560064e-07
2.904294202e-07
2.095651272e-07
4.465270605e-07
3.145435085e-07
7.032441959e-07
5.464439003e-07
7.484284206e-07
1.011911439e-06
3.437788038e-06
2.583481832e-06
0.0001006938825
4.781111558e-05
8.784545982e-06
2.348144891e-06
8.452072599e-07
3.440369797e-07
1.485455105e-07
6.314358598e-08
2.582257317e-08
1.04682062e-08
3.845555472e-09
1.549442918e-09
5.505878446e-10
2.244858129e-10
1.014117331e-10
4.553165144e-11
2.055000857e-11
1.106901373e-11
6.982896229e-12
4.679518887e-12
3.146741879e-12
2.313181543e-12
1.666860231e-12
1.319898258e-12
1.066515673e-12
8.61898668e-13
7.053321718e-13
5.962686301e-13
5.041931658e-13
4.265212055e-13
3.61037216e-13
3.036917232e-13
2.5310634e-13
2.173234953e-13
1.911108022e-13
1.656737726e-13
1.433418156e-13
1.243092053e-13
1.08221944e-13
9.461782982e-14
8.306484783e-14
7.319804877e-14
6.472097157e-14
5.739611354e-14
5.103354093e-14
4.54806957e-14
4.061414457e-14
3.633317637e-14
3.255490895e-14
2.921056251e-14
2.624261244e-14
2.360260165e-14
2.124944245e-14
1.914808685e-14
1.726847575e-14
1.558470098e-14
1.407433134e-14
1.271786605e-14
1.149828823e-14
1.040069761e-14
9.412006285e-15
8.520685283e-15
7.716552144e-15
6.99059202e-15
6.334806178e-15
5.742083115e-15
5.206088435e-15
4.721170342e-15
4.282278239e-15
3.884892334e-15
3.524962553e-15
3.198855365e-15
2.903307352e-15
2.635384543e-15
2.39244671e-15
2.172115939e-15
1.972248889e-15
1.79091227e-15
1.626361104e-15
1.477019432e-15
1.341463149e-15
1.218404721e-15
1.106679536e-15
1.005233723e-15
9.131132417e-16
8.29454118e-16
7.534736811e-16
6.844626971e-16
6.217783014e-16
5.648376387e-16
5.131121387e-16
4.661223571e-16
4.234333239e-16
3.846503479e-16
3.494152265e-16
3.174028242e-16
2.883179789e-16
2.618927038e-16
2.378836588e-16
2.160698593e-16
1.96250604e-16
1.782435969e-16
1.61883246e-16
1.470191232e-16
1.335145661e-16
1.21245412e-16
1.100988479e-16
9.997236999e-17
9.077283649e-17
8.241561007e-17
7.48237796e-17
6.792745225e-17
6.166311275e-17
5.597303975e-17
5.080477602e-17
4.611064922e-17
4.184733428e-17
3.797545686e-17
3.445923337e-17
3.126614299e-17
2.836663125e-17
2.573383837e-17
2.334335509e-17
2.117299827e-17
1.92026095e-17
1.741386896e-17
1.57901288e-17
1.43162614e-17
1.297852e-17
1.176441338e-17
1.066259093e-17
9.662739753e-18
8.755489451e-18
7.932326437e-18
7.185515486e-18
6.508028998e-18
5.893483012e-18
5.336077797e-18
4.830544921e-18
4.372098463e-18
3.956391213e-18
3.579474993e-18
3.23776394e-18
2.928000887e-18
2.647228412e-18
2.392760268e-18
2.16215758e-18
1.953205968e-18
1.763894591e-18
1.592397655e-18
1.437058241e-18
1.296371641e-18
1.168972463e-18
1.05362083e-18
9.491918594e-19
8.54664313e-19
7.691121645e-19
6.916946256e-19
6.216488683e-19
5.582827985e-19
5.009684874e-19
4.491369782e-19
4.022711158e-19
3.599028171e-19
3.216074243e-19
2.869993554e-19
2.557301059e-19
2.274824549e-19
2.019697729e-19
1.789319012e-19
1.581330152e-19
1.393593686e-19
1.224177552e-19
1.071329567e-19
9.334582918e-20
8.09122283e-20
6.970233412e-20
5.959830894e-20
5.049337255e-20
4.229084938e-20
3.490322322e-20
2.825117211e-20
2.226312161e-20
1.687462828e-20
1.202695244e-20
7.666972424e-21
3.746967001e-21
2.235783537e-22
0
0
0
0
0
0
0
0
0
0
0
0
0
0
0
0
0
0
0
0
0
0
0
0
0
0
0
0
0
0
0
0
0
0
0
0
0
0
0
0
0
0
0
0
0
0
0
0
0
0
0
0
0
0
0
0
0
0
0
0
0
0
0
0
0
0
0
0
0
0
0
0
0
0
0
0
0
0
0
0
0
0
0
0
0
0
0
0
0
0
0
0
0
0
0
0
0
0
0
0
0
0
0
0
0
0
0
0
0
0
0
0
0
0
0
0
0
0
0
0
0
0
0
0
0
0
0
0
0
0
0
0
0
0
0
0
0
0
0
0
0
0
0
0
0
0
0
0
0
0
0
0
0
0
0
0
0
0
0
0
0
0
0
0
0
0
0
0
0
0
0
0
0
0
0
0
0
0
0
0
0
0
0
0
0
0
0
0
0
0
0
0
0
0
0
0
0
0
0
0
0
0
0
0
0
0
0
0
0
0
0
0
0
0
0
0
0
0
0
0
0
0
0
0
0
0
0
0
0
0
0
0
0
0
0
0
0
0
0
0
0
0
0
0
0
0
0
0
0
0
0
2.50024865e-07
2.50251559e-07
2.506862729e-07
2.513090846e-07
2.520998868e-07
2.530397091e-07
2.541109022e-07
2.552979124e-07
2.565868064e-07
2.579655878e-07
2.594236423e-07
2.609522009e-07
2.625437544e-07
2.641919861e-07
2.658916386e-07
2.676384786e-07
2.694288706e-07
2.712602104e-07
2.731304176e-07
2.7503783e-07
2.769813967e-07
2.789601798e-07
2.809736864e-07
2.830215884e-07
2.851038453e-07
2.8722035e-07
2.893707959e-07
2.915560356e-07
2.937773596e-07
2.960359406e-07
2.983328779e-07
3.006692588e-07
3.030462074e-07
3.054648466e-07
3.079265382e-07
3.104326034e-07
3.129842434e-07
3.155827695e-07
3.182298385e-07
3.209271468e-07
3.2367637e-07
3.264792637e-07
3.293374215e-07
3.322526066e-07
3.352263216e-07
3.382599577e-07
3.413545736e-07
3.445105934e-07
3.477272372e-07
3.510018294e-07
3.547057336e-07
3.58691393e-07
3.627585578e-07
3.669138627e-07
3.711633539e-07
3.755119184e-07
3.799637341e-07
3.845228997e-07
3.891931573e-07
3.939781588e-07
3.988816331e-07
4.039075946e-07
4.090606275e-07
4.143451223e-07
4.197654694e-07
4.253253569e-07
4.310270694e-07
4.368797688e-07
4.428894582e-07
4.490620121e-07
4.554029171e-07
4.619166543e-07
4.686054068e-07
4.754805264e-07
4.825503136e-07
4.898220012e-07
4.973040818e-07
5.050036349e-07
5.129288123e-07
5.210888285e-07
5.294935447e-07
5.381546357e-07
5.470818083e-07
5.562857984e-07
5.657768734e-07
5.755675591e-07
5.856695378e-07
5.960958657e-07
6.083450069e-07
6.211457767e-07
6.343733616e-07
6.480497613e-07
6.621966229e-07
6.768353084e-07
6.919900316e-07
7.076834937e-07
7.239416277e-07
7.407886521e-07
7.593972051e-07
7.787592722e-07
7.988722302e-07
8.197742634e-07
8.415056461e-07
8.641041072e-07
8.876039716e-07
9.120429239e-07
9.374676049e-07
9.63920016e-07
9.920828235e-07
1.024247839e-06
1.057677298e-06
1.092379269e-06
1.128360784e-06
1.165575121e-06
1.203882409e-06
1.243100873e-06
1.283171482e-06
1.323113171e-06
1.365297006e-06
1.398887906e-06
1.441929341e-06
1.472057355e-06
1.51902968e-06
1.547842289e-06
1.601202749e-06
1.630045671e-06
1.692455399e-06
1.723831359e-06
1.802682345e-06
1.836871064e-06
1.930270739e-06
1.96583692e-06
2.075638403e-06
2.113881889e-06
2.248108939e-06
2.29724402e-06
2.497335843e-06
2.599631354e-06
2.873721864e-06
3.039381242e-06
3.432472304e-06
3.688044964e-06
4.211831982e-06
4.567279786e-06
5.326879202e-06
5.827884044e-06
6.866716708e-06
7.680805184e-06
9.257993258e-06
1.059553394e-05
1.314037631e-05
1.540104606e-05
1.972026452e-05
2.373478958e-05
3.15090837e-05
3.934633546e-05
5.43858046e-05
7.068823902e-05
9.024900891e-05
0.000114664188
0.0001431005508
0.0001173577591
4.727601195e-05
1.674908792e-05
6.875954145e-06
3.186798158e-06
1.56233581e-06
7.714941917e-07
3.716764094e-07
1.669234712e-07
7.129830076e-08
2.828881661e-08
1.035337896e-08
3.832264933e-09
1.449930529e-09
5.050892001e-10
2.150895671e-10
8.30172268e-11
4.365941199e-11
2.091486444e-11
1.080189602e-11
7.272724464e-12
4.83848914e-12
3.080126896e-12
1.857123691e-12
1.255843193e-12
1.0398126e-12
8.662519816e-13
7.227491535e-13
6.030570324e-13
5.047136754e-13
4.320088187e-13
3.705339681e-13
3.18234293e-13
2.729498831e-13
2.336098388e-13
1.997277198e-13
1.710713283e-13
1.470801131e-13
1.270327671e-13
1.102329538e-13
9.608234984e-14
8.409214235e-14
7.387114554e-14
6.510816468e-14
5.755524701e-14
5.101373462e-14
4.532330927e-14
4.035359411e-14
3.599774346e-14
3.21675478e-14
2.878967319e-14
2.580276171e-14
2.315516733e-14
2.080317652e-14
1.870959881e-14
1.684264144e-14
1.5175005e-14
1.368315064e-14
1.234670363e-14
1.114796411e-14
1.007150421e-14
9.103834128e-15
8.233124077e-15
7.448971748e-15
6.742206832e-15
6.104726015e-15
5.529353126e-15
5.009720103e-15
4.540165329e-15
4.11564645e-15
3.731665347e-15
3.384203358e-15
3.069665209e-15
2.784830249e-15
2.526810017e-15
2.293011135e-15
2.081102805e-15
1.888988271e-15
1.714779697e-15
1.556776001e-15
1.413443268e-15
1.283397384e-15
1.165388639e-15
1.058288035e-15
9.610750891e-16
8.728269675e-16
7.927087681e-16
7.199648405e-16
6.539110063e-16
5.939275898e-16
5.394531613e-16
4.89978916e-16
4.45043619e-16
4.042290585e-16
3.671559464e-16
3.334802286e-16
3.028897506e-16
2.751012531e-16
2.498576576e-16
2.269256123e-16
2.060932756e-16
1.871683102e-16
1.699760679e-16
1.543579489e-16
1.401699132e-16
1.272811344e-16
1.155727786e-16
1.049368985e-16
9.527543056e-17
8.649928503e-17
7.852752195e-17
7.128660196e-17
6.470970839e-17
5.873612985e-17
5.331070122e-17
4.838329688e-17
4.390836864e-17
3.984452767e-17
3.615416392e-17
3.280310108e-17
2.976028378e-17
2.699749107e-17
2.448907965e-17
2.221174673e-17
2.014431832e-17
1.826755387e-17
1.65639698e-17
1.501768054e-17
1.361425124e-17
1.234056688e-17
1.118471095e-17
1.013585636e-17
9.184166572e-18
8.320705171e-18
7.537352671e-18
6.826733344e-18
6.182146906e-18
5.597506806e-18
5.067284234e-18
4.586456799e-18
4.150462955e-18
3.755160105e-18
3.39678566e-18
3.071922103e-18
2.777466584e-18
2.510601169e-18
2.268766973e-18
2.049641087e-18
1.851114015e-18
1.671270491e-18
1.508372629e-18
1.360841679e-18
1.227245812e-18
1.10628432e-18
9.967774146e-19
8.976543851e-19
8.07943512e-19
7.267631859e-19
6.533131564e-19
5.868675031e-19
5.267683724e-19
4.724184603e-19
4.232754452e-19
3.788488757e-19
3.386929979e-19
3.02403799e-19
2.696152819e-19
2.399954295e-19
2.132432977e-19
1.890859903e-19
1.672766582e-19
1.475912153e-19
1.298264538e-19
1.137988885e-19
9.934166406e-20
8.630398688e-20
7.454937637e-20
6.395440477e-20
5.44070312e-20
4.580590751e-20
3.805900163e-20
3.108344618e-20
2.480447335e-20
1.915373812e-20
1.407034861e-20
9.49857742e-21
5.387817199e-21
1.693079506e-21
0
0
0
0
0
0
0
0
0
0
0
0
0
0
0
0
0
0
0
0
0
0
0
0
0
0
0
0
0
0
0
0
0
0
0
0
0
0
0
0
0
0
0
0
0
0
0
0
0
0
0
0
0
0
0
0
0
0
0
0
0
0
0
0
0
0
0
0
0
0
0
0
0
0
0
0
0
0
0
0
0
0
0
0
0
0
0
0
0
0
0
0
0
0
0
0
0
0
0
0
0
0
0
0
0
0
0
0
0
0
0
0
0
0
0
0
0
0
0
0
0
0
0
0
0
0
0
0
0
0
0
0
0
0
0
0
0
0
0
0
0
0
0
0
0
0
0
0
0
0
0
0
0
0
0
0
0
0
0
0
0
0
0
0
0
0
0
0
0
0
0
0
0
0
0
0
0
0
0
0
0
0
0
0
0
0
0
0
0
0
0
0
0
0
0
0
0
0
0
0
0
0
0
0
0
0
0
0
0
0
0
0
0
0
0
0
0
0
0
0
0
0
0
0
0
0
0
0
0
0
0
0
0
0
0
0
0
0
0
0
0
0
0
0
0
0
0
0
0
0
0
8.018633705e-07
8.026960183e-07
8.042790605e-07
8.065356413e-07
8.093918276e-07
8.127788133e-07
8.16633922e-07
8.209013321e-07
8.255317416e-07
8.304822812e-07
8.357158334e-07
8.412010755e-07
8.469113672e-07
8.528245001e-07
8.589217749e-07
8.651881301e-07
8.716110041e-07
8.781809453e-07
8.848907427e-07
8.917347532e-07
8.987090346e-07
9.058104831e-07
9.130372774e-07
9.20388512e-07
9.278640503e-07
9.354643938e-07
9.436300085e-07
9.522601733e-07
9.610366229e-07
9.699635147e-07
9.790450216e-07
9.882853932e-07
9.976892213e-07
1.007261495e-06
1.017007574e-06
1.0269328e-06
1.037042025e-06
1.047340639e-06
1.057835468e-06
1.068533504e-06
1.07944184e-06
1.090567636e-06
1.101917675e-06
1.113499015e-06
1.125318354e-06
1.137381829e-06
1.149694876e-06
1.162260777e-06
1.175079407e-06
1.188142962e-06
1.201423129e-06
1.214941197e-06
1.228732842e-06
1.242817789e-06
1.257219933e-06
1.271956094e-06
1.287040574e-06
1.302486786e-06
1.318307382e-06
1.334514816e-06
1.351120187e-06
1.368137921e-06
1.385583008e-06
1.403471383e-06
1.421819205e-06
1.440642466e-06
1.461018745e-06
1.48263361e-06
1.504833067e-06
1.527639149e-06
1.551074677e-06
1.575318339e-06
1.60161873e-06
1.628669266e-06
1.656498094e-06
1.685134093e-06
1.714608335e-06
1.744951821e-06
1.776196739e-06
1.808378347e-06
1.841539402e-06
1.875738347e-06
1.911008617e-06
1.947388451e-06
1.984920565e-06
2.023654901e-06
2.063643023e-06
2.104940545e-06
2.147604938e-06
2.194038143e-06
2.242880283e-06
2.293405742e-06
2.345697385e-06
2.399841278e-06
2.455924877e-06
2.514041023e-06
2.574294959e-06
2.636779485e-06
2.701610656e-06
2.768874954e-06
2.838658183e-06
2.911106561e-06
2.986361272e-06
3.064556768e-06
3.147755588e-06
3.236582634e-06
3.328912298e-06
3.424863749e-06
3.524631051e-06
3.628379466e-06
3.736781647e-06
3.852479275e-06
3.972511016e-06
4.096840562e-06
4.225328714e-06
4.357723042e-06
4.496628767e-06
4.639985824e-06
4.785524144e-06
4.930213689e-06
5.079604289e-06
5.229242551e-06
5.388239545e-06
5.548759326e-06
5.723341295e-06
5.900194339e-06
6.095791741e-06
6.295937085e-06
6.521671565e-06
6.753393158e-06
7.018043946e-06
7.286845692e-06
7.597786143e-06
7.918432571e-06
8.301644932e-06
8.713607153e-06
9.234590737e-06
9.813045594e-06
1.053012603e-05
1.13114919e-05
1.225646536e-05
1.330679622e-05
1.457058009e-05
1.59686101e-05
1.767998275e-05
1.95727875e-05
2.193985767e-05
2.46526769e-05
2.808234355e-05
3.215291687e-05
3.741685711e-05
4.381919217e-05
5.234227272e-05
6.302845358e-05
7.75231847e-05
9.600332397e-05
0.0001205011022
0.000148893159
0.0001784744444
0.0001996460279
0.0001887292778
0.0001288844563
6.7953309e-05
3.386160745e-05
1.740636562e-05
9.317405396e-06
5.116425307e-06
2.815071211e-06
1.527899946e-06
7.948031262e-07
3.808969809e-07
1.726761989e-07
7.083514183e-08
2.672127849e-08
9.615475041e-09
3.468546898e-09
1.283668126e-09
4.739869858e-10
1.878140424e-10
9.301672397e-11
4.179466812e-11
2.337997398e-11
1.424288596e-11
7.475703947e-12
4.844970708e-12
3.569715703e-12
2.56887249e-12
1.778069753e-12
1.148134048e-12
6.680185864e-13
5.649939119e-13
4.789839628e-13
4.072788638e-13
3.47151356e-13
2.964229527e-13
2.53519876e-13
2.173079647e-13
1.868949223e-13
1.613950331e-13
1.399718737e-13
1.218974857e-13
1.065691398e-13
9.349911624e-14
8.229590805e-14
7.264534456e-14
6.429437714e-14
5.703791499e-14
5.070856754e-14
4.516878763e-14
4.030479229e-14
3.602186178e-14
3.224065937e-14
2.889437844e-14
2.592647136e-14
2.328884289e-14
2.094040275e-14
1.884589704e-14
1.69749617e-14
1.530134666e-14
1.38022805e-14
1.245794484e-14
1.125103905e-14
1.016641722e-14
9.190784117e-15
8.312439894e-15
7.52106447e-15
6.807534844e-15
6.163769733e-15
5.582596909e-15
5.057639645e-15
4.583219097e-15
4.154270097e-15
3.766268328e-15
3.415167245e-15
3.097343063e-15
2.809546943e-15
2.548863066e-15
2.312671913e-15
2.098618014e-15
1.904581539e-15
1.728653228e-15
1.56911225e-15
1.424406545e-15
1.293135421e-15
1.174034069e-15
1.065959781e-15
9.67879665e-16
8.788596672e-16
7.980547794e-16
7.247002463e-16
6.58103712e-16
5.976381611e-16
5.42735584e-16
4.928812837e-16
4.476087556e-16
4.064950746e-16
3.691567472e-16
3.352459609e-16
3.044472114e-16
2.764742525e-16
2.510673437e-16
2.279907628e-16
2.070305579e-16
1.879925127e-16
1.707003096e-16
1.549938632e-16
1.407278131e-16
1.277701596e-16
1.160010267e-16
1.053115414e-16
9.560281851e-17
8.678503866e-17
7.877661481e-17
7.150343359e-17
6.489816858e-17
5.889965679e-17
5.345233324e-17
4.850571724e-17
4.401394629e-17
3.993535284e-17
3.623208029e-17
3.286973453e-17
2.981706624e-17
2.704568419e-17
2.452979346e-17
2.224595792e-17
2.017288518e-17
1.829122994e-17
1.658341709e-17
1.503347899e-17
1.362690947e-17
1.23505297e-17
1.119236747e-17
1.014154659e-17
9.188187204e-18
8.323313946e-18
7.538774442e-18
6.827163177e-18
6.181753936e-18
5.596437236e-18
5.065664116e-18
4.584394938e-18
4.148053057e-18
3.752481982e-18
3.393907393e-18
3.068901943e-18
2.77435371e-18
2.507436742e-18
2.265586003e-18
2.046471946e-18
1.847980171e-18
1.668191811e-18
1.505364016e-18
1.357915847e-18
1.224411894e-18
1.103549603e-18
9.94147036e-19
8.95132015e-19
8.05530873e-19
7.244608681e-19
6.511208662e-19
5.847844726e-19
5.247926796e-19
4.705473922e-19
4.215068299e-19
3.771792657e-19
3.371189114e-19
3.009218141e-19
2.682219602e-19
2.386868537e-19
2.120154653e-19
1.879355051e-19
1.661994715e-19
1.465835239e-19
1.288848348e-19
1.129196628e-19
9.8521207e-20
8.553921772e-20
7.383724028e-20
6.329161282e-20
5.379084055e-20
4.523309209e-20
3.752690557e-20
3.058966339e-20
2.434643923e-20
1.872957587e-20
1.367742154e-20
9.134851199e-21
5.051445992e-21
1.382289826e-21
0
0
0
0
0
0
0
0
0
0
0
0
0
0
0
0
0
0
0
0
0
0
0
0
0
0
0
0
0
0
0
0
0
0
0
0
0
0
0
0
0
0
0
0
0
0
0
0
0
0
0
0
0
0
0
0
0
0
0
0
0
0
0
0
0
0
0
0
0
0
0
0
0
0
0
0
0
0
0
0
0
0
0
0
0
0
0
0
0
0
0
0
0
0
0
0
0
0
0
0
0
0
0
0
0
0
0
0
0
0
0
0
0
0
0
0
0
0
0
0
0
0
0
0
0
0
0
0
0
0
0
0
0
0
0
0
0
0
0
0
0
0
0
0
0
0
0
0
0
0
0
0
0
0
0
0
0
0
0
0
0
0
0
0
0
0
0
0
0
0
0
0
0
0
0
0
0
0
0
0
0
0
0
0
0
0
0
0
0
0
0
0
0
0
0
0
0
0
0
0
0
0
0
0
0
0
0
0
0
0
0
0
0
0
0
0
0
0
0
0
0
0
0
0
0
0
0
0
0
0
0
0
0
0
0
0
0
0
0
0
0
0
0
0
0
0
0
0
0
0
1.767462741e-06
1.769337914e-06
1.772884492e-06
1.777919306e-06
1.784273252e-06
1.791792106e-06
1.800337015e-06
1.809784747e-06
1.820027013e-06
1.830969701e-06
1.842531838e-06
1.854644796e-06
1.867250688e-06
1.880301063e-06
1.893755346e-06
1.907579991e-06
1.921747626e-06
1.936237895e-06
1.951035593e-06
1.966128762e-06
1.981508652e-06
1.997168851e-06
2.013104827e-06
2.029314621e-06
2.045798836e-06
2.062561067e-06
2.08015571e-06
2.098457655e-06
2.117068996e-06
2.135996224e-06
2.15524716e-06
2.17483047e-06
2.194755632e-06
2.215033015e-06
2.235674034e-06
2.256691982e-06
2.278094415e-06
2.299887634e-06
2.322088609e-06
2.34471371e-06
2.367777867e-06
2.391295721e-06
2.415281458e-06
2.439749465e-06
2.464714303e-06
2.49018982e-06
2.516188734e-06
2.542720271e-06
2.569791225e-06
2.597405648e-06
2.625569155e-06
2.654306561e-06
2.684106383e-06
2.71572781e-06
2.748064114e-06
2.781147677e-06
2.81500875e-06
2.849676147e-06
2.885178074e-06
2.921543051e-06
2.960244296e-06
3.000068947e-06
3.040881162e-06
3.082723219e-06
3.12563443e-06
3.169654562e-06
3.214823115e-06
3.261181646e-06
3.308773921e-06
3.357645834e-06
3.407847186e-06
3.459433824e-06
3.512469805e-06
3.566994195e-06
3.623057651e-06
3.680715847e-06
3.740028196e-06
3.801055344e-06
3.863857713e-06
3.928487886e-06
3.995018862e-06
4.065614347e-06
4.138915272e-06
4.21446907e-06
4.292367958e-06
4.372713329e-06
4.455612338e-06
4.541177576e-06
4.629527266e-06
4.720791796e-06
4.815093822e-06
4.912558394e-06
5.013359856e-06
5.117677952e-06
5.225651943e-06
5.337941058e-06
5.457726536e-06
5.581821664e-06
5.710430903e-06
5.843762363e-06
5.985001341e-06
6.13170078e-06
6.283948838e-06
6.442035516e-06
6.606187659e-06
6.776666585e-06
6.953821817e-06
7.142977181e-06
7.339430856e-06
7.543463506e-06
7.755330036e-06
7.975256822e-06
8.20336149e-06
8.439695588e-06
8.684235765e-06
8.936865097e-06
9.203230126e-06
9.478547143e-06
9.760758686e-06
1.00500831e-05
1.034921316e-05
1.065745954e-05
1.097951113e-05
1.131481053e-05
1.166933177e-05
1.204574755e-05
1.245205359e-05
1.288098542e-05
1.334243947e-05
1.383268473e-05
1.436353529e-05
1.493215698e-05
1.555776209e-05
1.625796012e-05
1.70449332e-05
1.792303471e-05
1.893267255e-05
2.008716499e-05
2.143821946e-05
2.295483835e-05
2.473541252e-05
2.675044191e-05
2.909906266e-05
3.181788713e-05
3.500917547e-05
3.872354224e-05
4.323996202e-05
4.863863038e-05
5.526212721e-05
6.337193255e-05
7.359425772e-05
8.638420045e-05
0.000102784433
0.0001236698433
0.0001504366093
0.0001834469383
0.0002227868747
0.0002642769772
0.0002982200406
0.0003062747535
0.0002686938062
0.0001946157761
0.0001233808977
7.359411306e-05
4.299636811e-05
2.502226828e-05
1.452119796e-05
8.457287318e-06
4.903548514e-06
2.809719682e-06
1.564834782e-06
8.237595795e-07
3.941817319e-07
1.777792342e-07
7.115836033e-08
2.610552783e-08
9.558657925e-09
3.419073864e-09
1.232890793e-09
5.426152494e-10
2.314257013e-10
9.583988149e-11
5.421597417e-11
2.692627533e-11
1.525044412e-11
9.859691402e-12
5.654446443e-12
3.346088449e-12
2.528696525e-12
1.866164627e-12
1.325304007e-12
8.811894012e-13
5.154908959e-13
3.82894056e-13
3.286175635e-13
2.829149724e-13
2.443946095e-13
2.119000735e-13
1.844241959e-13
1.61101694e-13
1.412112359e-13
1.24165459e-13
1.094890843e-13
9.679706615e-14
8.577636675e-14
7.61713733e-14
6.777192768e-14
6.04039989e-14
5.392266368e-14
4.820652449e-14
4.315336492e-14
3.867660009e-14
3.470259427e-14
3.116844136e-14
2.802017849e-14
2.52113374e-14
2.27017559e-14
2.045661295e-14
1.844561942e-14
1.664235248e-14
1.502369749e-14
1.35693817e-14
1.226158234e-14
1.108459408e-14
1.002454828e-14
9.069173886e-15
8.207593044e-15
7.430146229e-15
6.728241656e-15
6.094225752e-15
5.521271123e-15
5.003279224e-15
4.534795795e-15
4.110937297e-15
3.72732634e-15
3.380035509e-15
3.06553777e-15
2.780662915e-15
2.522559187e-15
2.288659385e-15
2.076650868e-15
1.884449008e-15
1.710173534e-15
1.552127593e-15
1.408779062e-15
1.278743897e-15
1.160771273e-15
1.053730288e-15
9.565981015e-16
8.684492516e-16
7.884461376e-16
7.158304392e-16
6.499154236e-16
5.900790247e-16
5.357576203e-16
4.864404229e-16
4.416644409e-16
4.01009914e-16
3.640962167e-16
3.305781505e-16
3.001425992e-16
2.72505507e-16
2.47409149e-16
2.246196594e-16
2.039248037e-16
1.851319554e-16
1.680662691e-16
1.525690256e-16
1.384961336e-16
1.257167712e-16
1.141121587e-16
1.035744398e-16
9.400567643e-17
8.5316929e-17
7.742742738e-17
7.026381784e-17
6.375947966e-17
5.785390509e-17
5.24921371e-17
4.762425952e-17
4.320493304e-17
3.919297561e-17
3.555098049e-17
3.224497016e-17
2.924408104e-17
2.652027928e-17
2.404810014e-17
2.180441287e-17
1.976820758e-17
1.792040012e-17
1.624365592e-17
1.47222302e-17
1.334182204e-17
1.208944192e-17
1.095329229e-17
9.922657823e-18
8.98780697e-18
8.139901178e-18
7.370913711e-18
6.673555069e-18
6.041205545e-18
5.467853626e-18
4.948040656e-18
4.476809991e-18
4.04966123e-18
3.662507988e-18
3.311640422e-18
2.993690089e-18
2.70559961e-18
2.444592981e-18
2.208150301e-18
1.993985034e-18
1.800020881e-18
1.624374011e-18
1.465334982e-18
1.321351566e-18
1.19101657e-18
1.073051978e-18
9.662989692e-19
8.697057347e-19
7.823188582e-19
7.032728143e-19
6.317824935e-19
5.671364628e-19
5.086891255e-19
4.558552368e-19
4.081039559e-19
3.649543727e-19
3.259701132e-19
2.907557964e-19
2.589530494e-19
2.302373796e-19
2.043143912e-19
1.809174361e-19
1.598049125e-19
1.407581373e-19
1.235785473e-19
1.080869894e-19
9.412106521e-20
8.153358642e-20
7.019152341e-20
5.997403868e-20
5.077200392e-20
4.248686861e-20
3.502951091e-20
2.831922278e-20
2.228253063e-20
1.685390781e-20
1.197339828e-20
7.586952473e-21
3.645883343e-21
1.06302471e-22
0
0
0
0
0
0
0
0
0
0
0
0
0
0
0
0
0
0
0
0
0
0
0
0
0
0
0
0
0
0
0
0
0
0
0
0
0
0
0
0
0
0
0
0
0
0
0
0
0
0
0
0
0
0
0
0
0
0
0
0
0
0
0
0
0
0
0
0
0
0
0
0
0
0
0
0
0
0
0
0
0
0
0
0
0
0
0
0
0
0
0
0
0
0
0
0
0
0
0
0
0
0
0
0
0
0
0
0
0
0
0
0
0
0
0
0
0
0
0
0
0
0
0
0
0
0
0
0
0
0
0
0
0
0
0
0
0
0
0
0
0
0
0
0
0
0
0
0
0
0
0
0
0
0
0
0
0
0
0
0
0
0
0
0
0
0
0
0
0
0
0
0
0
0
0
0
0
0
0
0
0
0
0
0
0
0
0
0
0
0
0
0
0
0
0
0
0
0
0
0
0
0
0
0
0
0
0
0
0
0
0
0
0
0
0
0
0
0
0
0
0
0
0
0
0
0
0
0
0
0
0
0
0
0
0
0
0
0
0
0
0
0
0
0
0
0
0
0
3.079906377e-06
3.083125456e-06
3.089192454e-06
3.097778489e-06
3.108587209e-06
3.121352689e-06
3.135838196e-06
3.151834866e-06
3.169159976e-06
3.187655013e-06
3.20718384e-06
3.227631684e-06
3.248902215e-06
3.270914781e-06
3.293601828e-06
3.316906393e-06
3.340777096e-06
3.365184526e-06
3.390105339e-06
3.415520129e-06
3.441414155e-06
3.467776614e-06
3.494599548e-06
3.521876071e-06
3.549607494e-06
3.577803461e-06
3.606475512e-06
3.635630702e-06
3.66527434e-06
3.69541565e-06
3.726066216e-06
3.757239263e-06
3.788949333e-06
3.821212117e-06
3.854044246e-06
3.888715592e-06
3.92410009e-06
3.961418074e-06
3.999761663e-06
4.038826967e-06
4.078637678e-06
4.119217636e-06
4.16059039e-06
4.202779961e-06
4.245811326e-06
4.289712648e-06
4.334512063e-06
4.380221217e-06
4.426858206e-06
4.47444315e-06
4.523001795e-06
4.572574099e-06
4.623214018e-06
4.674976745e-06
4.727900759e-06
4.782031329e-06
4.837414437e-06
4.894093716e-06
4.952113511e-06
5.011520266e-06
5.072363328e-06
5.135568713e-06
5.201598632e-06
5.269266917e-06
5.338632886e-06
5.409762486e-06
5.482737641e-06
5.557610004e-06
5.634436136e-06
5.713285494e-06
5.794234485e-06
5.877365208e-06
5.962761955e-06
6.050503143e-06
6.140671054e-06
6.233353792e-06
6.328644738e-06
6.426641221e-06
6.52744484e-06
6.633206148e-06
6.744236776e-06
6.858491516e-06
6.976116144e-06
7.097256397e-06
7.222042005e-06
7.350640682e-06
7.483221993e-06
7.619959328e-06
7.761032326e-06
7.906627745e-06
8.05694095e-06
8.213446088e-06
8.378645917e-06
8.553421035e-06
8.734017879e-06
8.920689976e-06
9.113701266e-06
9.313353649e-06
9.519957869e-06
9.733845431e-06
9.955396226e-06
1.018496283e-05
1.042513843e-05
1.068361906e-05
1.095149701e-05
1.122919333e-05
1.151715445e-05
1.181586911e-05
1.212570981e-05
1.244711915e-05
1.278049975e-05
1.314236524e-05
1.352112496e-05
1.391307738e-05
1.431828835e-05
1.473685302e-05
1.516885819e-05
1.561417996e-05
1.608145151e-05
1.658109693e-05
1.709748312e-05
1.763286595e-05
1.819134722e-05
1.877562338e-05
1.939066346e-05
2.004243575e-05
2.076236329e-05
2.152590183e-05
2.234106268e-05
2.321225379e-05
2.415044284e-05
2.519112264e-05
2.636420301e-05
2.763077819e-05
2.903109923e-05
3.062943959e-05
3.250578362e-05
3.460295707e-05
3.70218772e-05
3.982787282e-05
4.304141479e-05
4.680798044e-05
5.115319175e-05
5.624227088e-05
6.229573233e-05
6.944206748e-05
7.794400009e-05
8.825171905e-05
0.0001009336715
0.0001165621155
0.0001358785305
0.0001595776504
0.0001894328614
0.0002261534722
0.0002709716605
0.0003238096849
0.0003822280565
0.0004393569967
0.0004809109449
0.0004864382984
0.0004407225439
0.0003539921462
0.0002572157039
0.0001744582806
0.000112561277
6.973194864e-05
4.188840338e-05
2.459420889e-05
1.446321913e-05
8.472372248e-06
4.964703827e-06
2.894931583e-06
1.647340008e-06
8.895271835e-07
4.417471296e-07
2.005681852e-07
8.291727464e-08
3.300205469e-08
1.251821793e-08
4.712186783e-09
1.787200615e-09
6.760902463e-10
2.899900891e-10
1.427275077e-10
5.825040442e-11
3.60063768e-11
1.813876766e-11
1.067102751e-11
7.198526262e-12
4.36982879e-12
2.554466627e-12
1.986879784e-12
1.511202178e-12
1.110706252e-12
7.719161769e-13
4.843513739e-13
2.987744064e-13
2.613241654e-13
2.292879481e-13
2.017690551e-13
1.780240598e-13
1.574504408e-13
1.395577097e-13
1.239423854e-13
1.102707386e-13
9.82663119e-14
8.769840801e-14
7.837281481e-14
7.012549588e-14
6.281713999e-14
5.632911732e-14
5.055958334e-14
4.542099786e-14
4.083781187e-14
3.674459895e-14
3.308452577e-14
2.980805317e-14
2.687191621e-14
2.423821794e-14
2.187369009e-14
1.974905992e-14
1.783851668e-14
1.611926212e-14
1.457111849e-14
1.317619797e-14
1.191861785e-14
1.07842541e-14
9.760529991e-15
8.836231005e-15
8.001345363e-15
7.246925225e-15
6.564964641e-15
5.948293318e-15
5.390483392e-15
4.885767197e-15
4.428965616e-15
4.015424306e-15
3.640957471e-15
3.301798168e-15
2.994554276e-15
2.716169406e-15
2.463888244e-15
2.23522548e-15
2.027938358e-15
1.840002057e-15
1.669587765e-15
1.515043063e-15
1.374874337e-15
1.247731113e-15
1.132391875e-15
1.027751482e-15
9.328097775e-16
8.4666139e-16
7.684865473e-16
6.975428192e-16
6.331576674e-16
5.747217691e-16
5.216829421e-16
4.735407215e-16
4.298414335e-16
3.901737595e-16
3.541647295e-16
3.214761031e-16
2.918010935e-16
2.648614169e-16
2.404046126e-16
2.182016273e-16
1.980446234e-16
1.797449999e-16
1.631315968e-16
1.480490738e-16
1.343564334e-16
1.219256958e-16
1.106406848e-16
1.003959366e-16
9.10957063e-17
8.265306919e-17
7.498910566e-17
6.803215961e-17
6.171717034e-17
5.598506194e-17
5.078219287e-17
4.605985427e-17
4.177381599e-17
3.788391377e-17
3.435367593e-17
3.114998264e-17
2.824275811e-17
2.560469093e-17
2.321097997e-17
2.103910326e-17
1.906860876e-17
1.728092507e-17
1.56591872e-17
1.418808119e-17
1.285370091e-17
1.164341936e-17
1.054577083e-17
9.550344401e-18
8.647687115e-18
7.829216259e-18
7.087139224e-18
6.414380628e-18
5.804517369e-18
5.251718113e-18
4.75068893e-18
4.296624139e-18