/*--------------------------------*- C++ -*----------------------------------*\
| =========                 |                                                 |
| \\      /  F ield         | OpenFOAM: The Open Source CFD Toolbox           |
|  \\    /   O peration     | Version:  v2006                                 |
|   \\  /    A nd           | Website:  www.openfoam.com                      |
|    \\/     M anipulation  |                                                 |
\*---------------------------------------------------------------------------*/
FoamFile
{
    version     2.0;
    format      ascii;
    class       volScalarField;
    location    "0.1";
    object      p_0;
}
// * * * * * * * * * * * * * * * * * * * * * * * * * * * * * * * * * * * * * //

dimensions      [1 -1 -2 0 0 0 0];


internalField   nonuniform List<scalar> 
72000
(
101317.2183
101317.2384
101317.2565
101317.2731
101317.2886
101317.3032
101317.3172
101317.3305
101317.3432
101317.3552
101317.3665
101317.377
101317.3864
101317.3945
101317.4013
101317.4064
101317.4097
101317.4111
101317.4105
101317.4077
101317.4029
101317.3961
101317.3874
101317.3772
101317.3656
101317.3531
101317.3401
101317.327
101317.3142
101317.302
101317.2909
101317.2811
101317.2729
101317.2665
101317.2619
101317.2589
101317.2574
101317.2571
101317.2575
101317.258
101317.258
101317.2569
101317.254
101317.2487
101317.2402
101317.2279
101317.2119
101317.1918
101317.1677
101317.1398
101317.1086
101317.0748
101317.0392
101317.0029
101316.9672
101316.9332
101316.9024
101316.8759
101316.8552
101316.841
101316.8344
101316.836
101316.8459
101316.8642
101316.8904
101316.9236
101316.9629
101317.0066
101317.0537
101317.1017
101317.1489
101317.1933
101317.2327
101317.2656
101317.2904
101317.3059
101317.3111
101317.3057
101317.2898
101317.2642
101317.2298
101317.1881
101317.1411
101317.0911
101317.0405
101316.9918
101316.9478
101316.9109
101316.8833
101316.8668
101316.8628
101316.8722
101316.895
101316.9307
101316.9781
101317.0352
101317.0996
101317.168
101317.237
101317.3027
101317.3613
101317.409
101317.4421
101317.4577
101317.453
101317.4265
101317.3775
101317.3064
101317.2144
101317.1039
101316.9784
101316.8419
101316.6995
101316.5566
101316.4185
101316.2909
101316.1788
101316.0872
101316.0199
101315.9805
101315.9707
101315.9924
101316.0456
101316.1305
101316.2453
101316.3892
101316.5583
101316.7506
101316.9602
101317.1832
101317.4126
101317.6404
101317.8546
101318.0462
101318.1986
101318.3025
101318.3398
101318.3036
101318.1822
101317.9795
101317.6984
101317.36
101316.9865
101316.6174
101316.2884
101316.044
101315.9183
101315.9618
101316.5915
101318.756
101315.2901
101313.8654
101307.6113
101297.0462
101302.8042
101307.0064
101312.0252
101322.2332
101339.1581
101365.5959
101341.762
101328.2307
101320.9624
101317.0887
101315.2741
101314.5974
101314.4962
101314.6602
101314.9267
101315.2229
101315.5263
101315.8394
101316.1707
101316.5242
101316.8998
101317.2849
101317.6612
101318.0079
101318.3039
101318.5312
101318.6756
101318.7274
101318.6815
101318.5387
101318.306
101317.9975
101317.6344
101317.244
101316.8574
101316.5071
101316.2235
101316.0312
101315.9469
101315.9772
101316.1183
101316.3563
101316.6694
101317.0301
101317.4083
101317.7745
101318.1023
101318.3711
101318.5674
101318.6854
101318.7272
101318.7011
101318.6208
101318.5033
101318.3666
101318.2277
101318.1016
101317.9991
101317.9267
101317.8865
101317.8762
101317.8901
101317.9202
101317.9576
101317.9936
101318.0206
101318.0334
101318.0291
101318.0077
101317.9713
101317.9243
101317.8721
101317.8205
101317.775
101317.74
101317.7185
101317.7118
101317.7192
101317.7387
101317.7672
101317.8007
101317.8353
101317.8673
101317.894
101317.9137
101317.926
101317.9318
101317.933
101317.9322
101317.9326
101317.9372
101317.9489
101317.9698
101318.001
101318.043
101318.0947
101318.1546
101318.2202
101318.2885
101318.3564
101318.4207
101318.4785
101318.5276
101318.5661
101318.5931
101318.6082
101318.6117
101318.6044
101318.5875
101318.5626
101318.531
101318.4945
101318.4544
101318.412
101318.3684
101318.3245
101318.2812
101318.2391
101318.1991
101318.1617
101318.1278
101318.0982
101318.0739
101318.0557
101318.0446
101318.0412
101318.0461
101318.0596
101318.0818
101318.1122
101318.1502
101318.1946
101318.2443
101318.2974
101318.3522
101318.407
101318.4597
101318.5087
101318.5523
101318.5893
101318.6187
101318.6397
101318.6522
101318.656
101318.6515
101318.6395
101318.6206
101318.596
101318.5669
101318.5345
101318.5
101318.4647
101318.4297
101318.3961
101318.3646
101318.3361
101318.3111
101318.29
101318.273
101318.2601
101318.2513
101318.2463
101318.2449
101318.2466
101318.2512
101318.2581
101318.2669
101318.2774
101318.2892
101318.3022
101318.3161
101318.3308
101318.3464
101318.3629
101318.3805
101318.3994
101318.4197
101318.4415
101318.465
101318.4901
101318.5169
101318.5453
101318.5751
101318.6062
101318.6383
101318.671
101318.704
101318.7368
101318.769
101318.8002
101318.8299
101318.8578
101318.8835
101318.9066
101318.9269
101318.9442
101318.9582
101318.969
101318.9766
101318.9808
101318.982
101318.9803
101318.976
101318.9693
101318.9607
101318.9505
101318.9392
101318.9274
101318.9154
101318.9038
101318.8931
101318.8836
101318.8759
101318.8703
101318.867
101318.8663
101318.8684
101318.8733
101318.881
101318.8915
101318.9046
101318.9201
101318.9377
101318.9572
101318.9781
101319.0003
101319.0232
101319.0465
101319.0698
101319.0929
101319.1155
101319.1372
101319.1578
101319.1772
101319.1953
101319.2118
101319.2269
101319.2404
101319.2523
101319.2629
101319.272
101319.2799
101319.2865
101319.2921
101319.2967
101319.3005
101319.3034
101319.3057
101319.3072
101319.3082
101319.3084
101319.3079
101319.3067
101319.3047
101319.3018
101319.2979
101319.2929
101319.2867
101319.2793
101319.2705
101319.2605
101319.2491
101319.2365
101319.2228
101319.2081
101319.1926
101319.1765
101319.1602
101319.144
101319.1282
101319.1133
101319.0995
101319.0874
101319.0772
101319.0695
101319.0644
101319.0623
101319.0634
101319.068
101319.076
101319.0876
101319.1027
101319.1213
101319.143
101319.1678
101319.1953
101319.225
101319.2568
101319.29
101319.3244
101319.3593
101319.3944
101319.4292
101319.4633
101319.4964
101319.528
101319.5579
101319.5858
101319.6116
101319.635
101319.656
101319.6746
101319.6906
101319.7042
101319.7155
101319.7245
101319.7313
101319.736
101319.7389
101319.7401
101319.7396
101319.7378
101319.7345
101319.7302
101319.7247
101319.7183
101319.7111
101319.7032
101319.6946
101319.6854
101319.6758
101319.6659
101319.6557
101319.6453
101319.6348
101319.6244
101319.6142
101319.6042
101319.5945
101319.5854
101319.5769
101319.569
101319.562
101319.5558
101319.5506
101319.5463
101319.5432
101319.5411
101319.5402
101319.5403
101319.5416
101319.5439
101319.5473
101319.5516
101319.5568
101319.5629
101319.5698
101319.5774
101319.5856
101319.5944
101319.6036
101319.6132
101319.6232
101319.6334
101319.6437
101319.6542
101319.6647
101319.6751
101319.6854
101319.6955
101319.7054
101319.7149
101319.7239
101319.7325
101319.7405
101319.7478
101319.7544
101319.7603
101319.7653
101319.7695
101319.7728
101319.7753
101319.7768
101319.7775
101319.7773
101319.7764
101319.7749
101319.7727
101319.77
101319.767
101319.7638
101319.7604
101319.7571
101319.754
101319.7512
101319.7489
101319.7472
101319.7462
101319.7459
101319.7465
101319.748
101319.7505
101319.7539
101319.7583
101319.7636
101319.7697
101319.7766
101319.7842
101319.7924
101319.801
101319.81
101319.8192
101319.8285
101319.8377
101319.8467
101319.8554
101319.8636
101319.8713
101319.8782
101319.8845
101319.8899
101319.8943
101319.8978
101319.9003
101319.9017
101319.902
101319.9012
101319.8993
101319.8964
101319.8923
101319.8873
101319.8812
101319.8742
101319.8662
101319.8575
101319.848
101319.8378
101319.8271
101319.8159
101319.8043
101319.7925
101319.7806
101319.7687
101319.7569
101319.7454
101319.7343
101319.7238
101319.7139
101319.7049
101319.6967
101319.6896
101319.6837
101319.6789
101319.6754
101319.6733
101319.6727
101317.2187
101317.2379
101317.2555
101317.2717
101317.287
101317.3015
101317.3152
101317.3284
101317.3409
101317.3527
101317.3638
101317.374
101317.3832
101317.3911
101317.3976
101317.4025
101317.4057
101317.407
101317.4062
101317.4034
101317.3986
101317.3919
101317.3834
101317.3734
101317.3621
101317.3498
101317.337
101317.3241
101317.3113
101317.2993
101317.2883
101317.2787
101317.2706
101317.2642
101317.2595
101317.2564
101317.2547
101317.254
101317.254
101317.254
101317.2535
101317.2518
101317.2484
101317.2425
101317.2338
101317.2217
101317.2059
101317.1862
101317.1626
101317.1356
101317.1054
101317.0728
101317.0385
101317.0037
101316.9694
101316.937
101316.9076
101316.8824
101316.8627
101316.8494
101316.8433
101316.8449
101316.8546
101316.8722
101316.8973
101316.9292
101316.9669
101317.009
101317.0536
101317.0993
101317.1441
101317.1862
101317.2237
101317.2549
101317.2783
101317.2928
101317.2977
101317.2925
101317.2776
101317.2533
101317.2207
101317.1814
101317.1372
101317.0901
101317.0425
101316.997
101316.956
101316.9217
101316.8962
101316.8814
101316.8784
101316.8879
101316.9101
101316.9444
101316.9896
101317.0437
101317.1045
101317.1689
101317.2335
101317.2948
101317.349
101317.3926
101317.4221
101317.4346
101317.4279
101317.4005
101317.3517
101317.2819
101317.1924
101317.0856
101316.9647
101316.8338
101316.6975
101316.5608
101316.4292
101316.3079
101316.2017
101316.1148
101316.0517
101316.0154
101316.008
101316.0305
101316.0838
101316.1671
101316.2798
101316.4195
101316.5844
101316.7702
101316.9735
101317.1881
101317.4073
101317.6228
101317.8257
101318.0036
101318.1473
101318.2402
101318.2708
101318.2279
101318.11
101317.9133
101317.6493
101317.3301
101316.9841
101316.639
101316.3341
101316.0985
101315.9616
101315.9362
101316.0402
101316.0652
101314.881
101313.3321
101310.5711
101307.4022
101307.5694
101309.1824
101313.094
101319.5046
101327.8377
101334.4447
101329.7634
101323.8311
101319.5489
101316.8594
101315.4207
101314.8154
101314.6898
101314.8115
101315.0437
101315.3173
101315.6059
101315.906
101316.2229
101316.5612
101316.9168
101317.2809
101317.6377
101317.969
101318.2544
101318.4764
101318.6207
101318.6772
101318.64
101318.5094
101318.2915
101317.9995
101317.6533
101317.2789
101316.9064
101316.567
101316.2899
101316.0996
101316.0125
101316.0357
101316.1661
101316.391
101316.6895
101317.0354
101317.3996
101317.7535
101318.0715
101318.3333
101318.5256
101318.6426
101318.6858
101318.6635
101318.5886
101318.4775
101318.3476
101318.2156
101318.0959
101317.999
101317.9313
101317.8947
101317.8867
101317.902
101317.9326
101317.9697
101318.0048
101318.0305
101318.0417
101318.0356
101318.0123
101317.9741
101317.9253
101317.8714
101317.8183
101317.7714
101317.7352
101317.7128
101317.7053
101317.7124
101317.7318
101317.7605
101317.7945
101317.8298
101317.8628
101317.8906
101317.9117
101317.9253
101317.9324
101317.9348
101317.935
101317.936
101317.9411
101317.9528
101317.9734
101318.0041
101318.0452
101318.0959
101318.1546
101318.2188
101318.2858
101318.3523
101318.4154
101318.4722
101318.5204
101318.5583
101318.5849
101318.5998
101318.6033
101318.5963
101318.5799
101318.5555
101318.5247
101318.4889
101318.4496
101318.408
101318.3652
101318.3221
101318.2795
101318.238
101318.1985
101318.1616
101318.1282
101318.099
101318.075
101318.057
101318.046
101318.0427
101318.0476
101318.0611
101318.0832
101318.1135
101318.1513
101318.1955
101318.2449
101318.2978
101318.3524
101318.407
101318.4595
101318.5084
101318.552
101318.589
101318.6184
101318.6396
101318.6523
101318.6564
101318.6523
101318.6407
101318.6223
101318.5982
101318.5696
101318.5377
101318.5037
101318.4689
101318.4344
101318.4011
101318.37
101318.3418
101318.317
101318.296
101318.2791
101318.2662
101318.2572
101318.2521
101318.2504
101318.2518
101318.2559
101318.2624
101318.2708
101318.2808
101318.292
101318.3044
101318.3177
101318.332
101318.3472
101318.3634
101318.3807
101318.3993
101318.4192
101318.4407
101318.4638
101318.4886
101318.5151
101318.5432
101318.5728
101318.6037
101318.6355
101318.6681
101318.7008
101318.7335
101318.7655
101318.7966
101318.8262
101318.854
101318.8796
101318.9027
101318.923
101318.9403
101318.9544
101318.9653
101318.9729
101318.9773
101318.9787
101318.9772
101318.9731
101318.9666
101318.9582
101318.9484
101318.9374
101318.9259
101318.9142
101318.903
101318.8925
101318.8834
101318.876
101318.8707
101318.8677
101318.8673
101318.8697
101318.8748
101318.8827
101318.8934
101318.9066
101318.9222
101318.94
101318.9595
101318.9805
101319.0026
101319.0254
101319.0487
101319.0719
101319.0949
101319.1173
101319.1389
101319.1594
101319.1786
101319.1964
101319.2128
101319.2276
101319.2409
101319.2527
101319.263
101319.2719
101319.2796
101319.286
101319.2915
101319.2959
101319.2995
101319.3023
101319.3044
101319.3059
101319.3067
101319.3069
101319.3064
101319.3052
101319.3032
101319.3003
101319.2964
101319.2914
101319.2853
101319.278
101319.2694
101319.2594
101319.2482
101319.2358
101319.2222
101319.2076
101319.1922
101319.1763
101319.1602
101319.1441
101319.1284
101319.1136
101319.0999
101319.0879
101319.0778
101319.0701
101319.0651
101319.063
101319.0641
101319.0686
101319.0767
101319.0882
101319.1033
101319.1217
101319.1434
101319.168
101319.1954
101319.2251
101319.2567
101319.2898
101319.324
101319.3589
101319.3939
101319.4286
101319.4626
101319.4956
101319.5272
101319.557
101319.5849
101319.6106
101319.634
101319.655
101319.6735
101319.6895
101319.7032
101319.7144
101319.7234
101319.7302
101319.735
101319.7379
101319.7391
101319.7386
101319.7368
101319.7336
101319.7292
101319.7238
101319.7174
101319.7102
101319.7023
101319.6937
101319.6845
101319.6749
101319.665
101319.6548
101319.6444
101319.634
101319.6236
101319.6133
101319.6033
101319.5938
101319.5846
101319.5761
101319.5683
101319.5613
101319.5552
101319.55
101319.5459
101319.5428
101319.5408
101319.5399
101319.5401
101319.5414
101319.5438
101319.5472
101319.5516
101319.5569
101319.5631
101319.57
101319.5777
101319.5859
101319.5947
101319.604
101319.6137
101319.6237
101319.6339
101319.6443
101319.6548
101319.6653
101319.6757
101319.686
101319.6961
101319.706
101319.7154
101319.7245
101319.733
101319.7409
101319.7482
101319.7548
101319.7606
101319.7656
101319.7698
101319.773
101319.7754
101319.7768
101319.7774
101319.7772
101319.7763
101319.7746
101319.7724
101319.7697
101319.7666
101319.7633
101319.7599
101319.7565
101319.7534
101319.7506
101319.7482
101319.7465
101319.7454
101319.7451
101319.7458
101319.7473
101319.7498
101319.7532
101319.7576
101319.7629
101319.7691
101319.776
101319.7837
101319.7919
101319.8006
101319.8097
101319.8189
101319.8283
101319.8375
101319.8466
101319.8553
101319.8636
101319.8714
101319.8784
101319.8847
101319.8902
101319.8947
101319.8982
101319.9007
101319.9022
101319.9025
101319.9018
101319.8999
101319.897
101319.8929
101319.8879
101319.8818
101319.8748
101319.8668
101319.8581
101319.8486
101319.8384
101319.8276
101319.8164
101319.8048
101319.7929
101319.781
101319.769
101319.7572
101319.7456
101319.7345
101319.7239
101319.714
101319.7049
101319.6968
101319.6896
101319.6836
101319.6789
101319.6754
101319.6733
101319.6727
101317.2188
101317.2369
101317.2537
101317.2696
101317.2845
101317.2987
101317.3122
101317.3251
101317.3373
101317.3489
101317.3596
101317.3695
101317.3783
101317.3859
101317.3921
101317.3967
101317.3996
101317.4007
101317.3998
101317.397
101317.3923
101317.3857
101317.3774
101317.3677
101317.3567
101317.3449
101317.3326
101317.32
101317.3078
101317.2961
101317.2854
101317.2759
101317.2679
101317.2613
101317.2564
101317.2529
101317.2507
101317.2494
101317.2486
101317.2479
101317.2467
101317.2444
101317.2404
101317.2342
101317.2252
101317.2131
101317.1976
101317.1785
101317.1559
101317.13
101317.1013
101317.0704
101317.0381
101317.0053
101316.9731
101316.9427
101316.9152
101316.8918
101316.8735
101316.8612
101316.8557
101316.8574
101316.8665
101316.8831
101316.9066
101316.9365
101316.9716
101317.0107
101317.0524
101317.0949
101317.1365
101317.1756
101317.2104
101317.2392
101317.261
101317.2745
101317.2791
101317.2746
101317.2609
101317.2386
101317.2089
101317.1729
101317.1324
101317.0895
101317.0463
101317.005
101316.9679
101316.9371
101316.9146
101316.9018
101316.9
101316.9096
101316.9308
101316.963
101317.005
101317.0551
101317.1108
101317.1696
101317.2283
101317.2834
101317.3317
101317.3697
101317.3945
101317.4033
101317.3942
101317.3657
101317.3175
101317.2498
101317.164
101317.0624
101316.948
101316.8246
101316.6966
101316.5687
101316.4458
101316.3329
101316.2345
101316.1548
101316.0975
101316.065
101316.06
101316.0834
101316.1361
101316.2173
101316.3264
101316.4609
101316.6191
101316.7965
101316.9899
101317.1925
101317.399
101317.5998
101317.7873
101317.9492
101318.0761
101318.1542
101318.1772
101318.1324
101318.0195
101317.8354
101317.5917
101317.2991
101316.9837
101316.6681
101316.3861
101316.1579
101316.0026
101315.9077
101315.8275
101315.5983
101314.9503
101313.9536
101312.6219
101311.3189
101310.8722
101311.5434
101313.8943
101317.4708
101321.3125
101323.8402
101322.7052
101320.3251
101318.0086
101316.3564
101315.391
101314.9533
101314.8598
101314.965
101315.171
101315.4226
101315.6944
101315.9797
101316.2795
101316.5959
101316.9263
101317.2631
101317.5939
101317.902
101318.1712
101318.3843
101318.5276
101318.5907
101318.5674
101318.4569
101318.2645
101318.0014
101317.6854
101317.3404
101316.9938
101316.6748
101316.4108
101316.2251
101316.134
101316.1451
101316.2567
101316.4576
101316.7292
101317.0473
101317.3851
101317.7156
101318.0145
101318.2626
101318.4469
101318.5614
101318.6072
101318.5917
101318.5268
101318.4278
101318.311
101318.1921
101318.0846
101317.9985
101317.9397
101317.9099
101317.9067
101317.9247
101317.9563
101317.9929
101318.0264
101318.0496
101318.0577
101318.0483
101318.0215
101317.9798
101317.9276
101317.8706
101317.8145
101317.765
101317.7266
101317.7023
101317.6935
101317.6997
101317.7188
101317.7478
101317.7826
101317.8193
101317.8542
101317.8843
101317.9077
101317.9239
101317.9335
101317.938
101317.9401
101317.9426
101317.9484
101317.9604
101317.9805
101318.0102
101318.0496
101318.0982
101318.1545
101318.2162
101318.2805
101318.3445
101318.4052
101318.4599
101318.5064
101318.5431
101318.5689
101318.5835
101318.5872
101318.5806
101318.5651
101318.5418
101318.5123
101318.478
101318.4402
101318.4002
101318.3589
101318.3172
101318.276
101318.2358
101318.1974
101318.1615
101318.1289
101318.1004
101318.077
101318.0595
101318.0488
101318.0457
101318.0507
101318.0641
101318.086
101318.116
101318.1535
101318.1974
101318.2463
101318.2988
101318.3529
101318.4071
101318.4593
101318.5079
101318.5513
101318.5883
101318.6179
101318.6394
101318.6525
101318.6572
101318.6538
101318.6429
101318.6255
101318.6024
101318.5748
101318.5439
101318.5109
101318.4771
101318.4434
101318.4109
101318.3805
101318.3528
101318.3284
101318.3077
101318.2908
101318.2778
101318.2687
101318.2632
101318.2611
101318.262
101318.2655
101318.2712
101318.2789
101318.288
101318.2985
101318.31
101318.3224
101318.3358
101318.3501
101318.3654
101318.3819
101318.3996
101318.4188
101318.4395
101318.4619
101318.486
101318.5119
101318.5394
101318.5684
101318.5988
101318.6302
101318.6623
101318.6947
101318.727
101318.7587
101318.7895
101318.819
101318.8466
101318.8721
101318.8951
101318.9154
101318.9327
101318.9469
101318.9579
101318.9658
101318.9705
101318.9721
101318.971
101318.9673
101318.9613
101318.9535
101318.9442
101318.9338
101318.9229
101318.9119
101318.9013
101318.8915
101318.8831
101318.8763
101318.8716
101318.8692
101318.8694
101318.8722
101318.8778
101318.8862
101318.8972
101318.9107
101318.9266
101318.9445
101318.9641
101318.9851
101319.0072
101319.03
101319.0531
101319.0762
101319.099
101319.1211
101319.1424
101319.1625
101319.1814
101319.1989
101319.2148
101319.2292
101319.2421
101319.2535
101319.2633
101319.2719
101319.2791
101319.2852
101319.2903
101319.2944
101319.2977
101319.3002
101319.3021
101319.3033
101319.304
101319.3041
101319.3035
101319.3022
101319.3002
101319.2973
101319.2935
101319.2887
101319.2827
101319.2756
101319.2672
101319.2575
101319.2465
101319.2344
101319.2211
101319.2068
101319.1917
101319.1761
101319.1602
101319.1444
101319.129
101319.1144
101319.101
101319.0891
101319.0792
101319.0715
101319.0666
101319.0645
101319.0657
101319.0701
101319.0781
101319.0895
101319.1044
101319.1227
101319.1442
101319.1687
101319.1959
101319.2253
101319.2567
101319.2896
101319.3236
101319.3582
101319.393
101319.4276
101319.4614
101319.4942
101319.5257
101319.5554
101319.5831
101319.6088
101319.6321
101319.653
101319.6715
101319.6876
101319.7012
101319.7125
101319.7215
101319.7283
101319.7331
101319.7361
101319.7373
101319.7369
101319.735
101319.7319
101319.7275
101319.7221
101319.7158
101319.7086
101319.7007
101319.6921
101319.683
101319.6734
101319.6634
101319.6532
101319.6429
101319.6325
101319.6221
101319.6119
101319.602
101319.5924
101319.5834
101319.5749
101319.5672
101319.5603
101319.5542
101319.5492
101319.5451
101319.5421
101319.5402
101319.5395
101319.5398
101319.5413
101319.5438
101319.5473
101319.5519
101319.5573
101319.5636
101319.5707
101319.5784
101319.5868
101319.5957
101319.6051
101319.6148
101319.6249
101319.6352
101319.6456
101319.6561
101319.6667
101319.6771
101319.6874
101319.6975
101319.7073
101319.7168
101319.7257
101319.7342
101319.7421
101319.7493
101319.7558
101319.7615
101319.7664
101319.7704
101319.7735
101319.7757
101319.7771
101319.7776
101319.7772
101319.7761
101319.7743
101319.7719
101319.7691
101319.7659
101319.7625
101319.759
101319.7555
101319.7523
101319.7494
101319.747
101319.7452
101319.7441
101319.7438
101319.7444
101319.7459
101319.7484
101319.7519
101319.7563
101319.7617
101319.7679
101319.775
101319.7827
101319.7911
101319.7999
101319.8091
101319.8185
101319.8279
101319.8373
101319.8465
101319.8554
101319.8639
101319.8717
101319.8789
101319.8853
101319.8909
101319.8955
101319.8992
101319.9018
101319.9033
101319.9037
101319.903
101319.9012
101319.8983
101319.8943
101319.8892
101319.8831
101319.8761
101319.8681
101319.8593
101319.8498
101319.8395
101319.8287
101319.8174
101319.8057
101319.7938
101319.7817
101319.7697
101319.7578
101319.7461
101319.7349
101319.7242
101319.7143
101319.7051
101319.6969
101319.6897
101319.6836
101319.6788
101319.6753
101319.6732
101319.6726
101317.2184
101317.2355
101317.2516
101317.2669
101317.2814
101317.2952
101317.3084
101317.3209
101317.3328
101317.344
101317.3544
101317.3638
101317.3722
101317.3794
101317.3852
101317.3895
101317.3921
101317.393
101317.392
101317.3892
101317.3845
101317.3781
101317.3701
101317.3606
101317.3501
101317.3387
101317.3268
101317.3148
101317.3029
101317.2917
101317.2812
101317.2719
101317.2639
101317.2572
101317.252
101317.2481
101317.2453
101317.2433
101317.2418
101317.2404
101317.2384
101317.2354
101317.2309
101317.2242
101317.2151
101317.2031
101317.1879
101317.1696
101317.1481
101317.1236
101317.0966
101317.0677
101317.0376
101317.0072
101316.9774
101316.9493
101316.924
101316.9024
101316.8857
101316.8745
101316.8695
101316.8712
101316.8798
101316.8951
101316.9168
101316.9442
101316.9765
101317.0124
101317.0506
101317.0895
101317.1276
101317.1634
101317.1952
101317.2216
101317.2415
101317.254
101317.2583
101317.2543
101317.2421
101317.2223
101317.1956
101317.1634
101317.1273
101317.089
101317.0505
101317.014
101316.9813
101316.9544
101316.9351
101316.9246
101316.924
101316.9337
101316.9537
101316.9835
101317.0219
101317.0673
101317.1176
101317.1701
101317.2221
101317.2705
101317.3122
101317.3442
101317.3638
101317.3686
101317.3568
101317.3273
101317.2797
101317.2145
101317.133
101317.0371
101316.93
101316.8149
101316.6961
101316.5778
101316.4645
101316.3608
101316.2709
101316.1987
101316.1474
101316.1199
101316.1179
101316.1428
101316.195
101316.2741
101316.3792
101316.5083
101316.6588
101316.8274
101317.0095
101317.1999
101317.3919
101317.578
101317.7493
101317.8964
101318.0088
101318.077
101318.0918
101318.0467
101317.9385
101317.769
101317.5452
101317.2806
101316.9937
101316.7076
101316.4453
101316.2265
101316.059
101315.932
101315.8033
101315.5906
101315.191
101314.6075
101313.8846
101313.1996
101312.8919
101313.2323
101314.4328
101316.2603
101318.1515
101319.337
101319.0437
101318.0105
101316.848
101315.9239
101315.3437
101315.0743
101315.0328
101315.1373
101315.3248
101315.5555
101315.8082
101316.0749
101316.3542
101316.646
101316.9477
101317.2535
101317.5534
101317.8341
101318.0815
101318.281
101318.4197
101318.488
101318.4798
101318.3931
101318.2317
101318.0048
101317.7279
101317.4214
101317.1095
101316.8182
101316.5728
101316.3948
101316.2999
101316.2962
101316.3832
101316.5521
101316.7872
101317.0673
101317.3682
101317.6658
101317.9377
101318.1661
101318.3384
101318.4487
101318.4975
101318.491
101318.4397
101318.3573
101318.2586
101318.158
101318.0677
101317.9968
101317.9505
101317.9304
101317.9339
101317.9558
101317.9888
101318.0248
101318.0561
101318.076
101318.0801
101318.0661
101318.0346
101317.9882
101317.9316
101317.8702
101317.8102
101317.7571
101317.7156
101317.6887
101317.6779
101317.6828
101317.7014
101317.7306
101317.7664
101317.8048
101317.8421
101317.8751
101317.9019
101317.9216
101317.9345
101317.9422
101317.9469
101317.9514
101317.9584
101317.9707
101317.9902
101318.0184
101318.0556
101318.1013
101318.1542
101318.2122
101318.2728
101318.3331
101318.3905
101318.4423
101318.4864
101318.5212
101318.5459
101318.5601
101318.5639
101318.5581
101318.5437
101318.522
101318.4944
101318.4622
101318.4266
101318.3888
101318.3497
101318.3101
101318.2708
101318.2324
101318.1957
101318.1612
101318.1299
101318.1025
101318.0799
101318.0631
101318.0529
101318.0501
101318.0552
101318.0686
101318.0903
101318.12
101318.157
101318.2003
101318.2486
101318.3004
101318.354
101318.4075
101318.4592
101318.5074
101318.5506
101318.5876
101318.6173
101318.6392
101318.6528
101318.6583
101318.6559
101318.6462
101318.63
101318.6083
101318.5822
101318.5528
101318.5213
101318.4888
101318.4564
101318.4251
101318.3956
101318.3687
101318.3449
101318.3246
101318.3079
101318.2949
101318.2855
101318.2796
101318.2769
101318.277
101318.2796
101318.2844
101318.2909
101318.2989
101318.3081
101318.3183
101318.3295
101318.3416
101318.3546
101318.3686
101318.3838
101318.4003
101318.4182
101318.4378
101318.4592
101318.4823
101318.5072
101318.5339
101318.5621
101318.5917
101318.6224
101318.6538
101318.6857
101318.7175
101318.7488
101318.7792
101318.8084
101318.8358
101318.8611
101318.884
101318.9042
101318.9216
101318.9359
101318.9472
101318.9553
101318.9604
101318.9625
101318.9619
101318.9588
101318.9536
101318.9465
101318.938
101318.9285
101318.9185
101318.9085
101318.8988
101318.8901
101318.8826
101318.8768
101318.873
101318.8715
101318.8724
101318.876
101318.8823
101318.8913
101318.9028
101318.9168
101318.933
101318.9511
101318.9709
101318.992
101319.0141
101319.0368
101319.0597
101319.0826
101319.105
101319.1268
101319.1476
101319.1672
101319.1856
101319.2025
101319.2178
101319.2317
101319.2439
101319.2547
101319.2639
101319.2719
101319.2785
101319.2841
101319.2886
101319.2922
101319.295
101319.2972
101319.2987
101319.2996
101319.3001
101319.2999
101319.2992
101319.2979
101319.2959
101319.2931
101319.2894
101319.2848
101319.279
101319.2722
101319.2641
101319.2548
101319.2442
101319.2324
101319.2196
101319.2057
101319.1911
101319.1759
101319.1605
101319.145
101319.13
101319.1157
101319.1026
101319.091
101319.0813
101319.0738
101319.0689
101319.0669
101319.0681
101319.0725
101319.0803
101319.0916
101319.1064
101319.1244
101319.1457
101319.1699
101319.1967
101319.2258
101319.2569
101319.2895
101319.3232
101319.3575
101319.392
101319.4262
101319.4598
101319.4924
101319.5236
101319.5531
101319.5808
101319.6063
101319.6295
101319.6504
101319.6688
101319.6849
101319.6985
101319.7098
101319.7188
101319.7257
101319.7305
101319.7335
101319.7348
101319.7344
101319.7326
101319.7295
101319.7252
101319.7199
101319.7135
101319.7064
101319.6985
101319.6899
101319.6808
101319.6712
101319.6613
101319.6512
101319.6408
101319.6304
101319.6201
101319.61
101319.6001
101319.5906
101319.5817
101319.5733
101319.5657
101319.5589
101319.553
101319.5481
101319.5442
101319.5414
101319.5397
101319.5391
101319.5397
101319.5413
101319.544
101319.5478
101319.5525
101319.5581
101319.5646
101319.5718
101319.5797
101319.5883
101319.5973
101319.6068
101319.6167
101319.6269
101319.6372
101319.6478
101319.6583
101319.6689
101319.6794
101319.6897
101319.6997
101319.7095
101319.7189
101319.7278
101319.7362
101319.7439
101319.751
101319.7574
101319.7629
101319.7676
101319.7715
101319.7744
101319.7765
101319.7776
101319.7779
101319.7773
101319.776
101319.774
101319.7715
101319.7684
101319.765
101319.7614
101319.7578
101319.7542
101319.7508
101319.7478
101319.7453
101319.7434
101319.7423
101319.742
101319.7425
101319.7441
101319.7466
101319.7501
101319.7546
101319.7601
101319.7664
101319.7736
101319.7815
101319.79
101319.799
101319.8083
101319.8179
101319.8276
101319.8372
101319.8466
101319.8557
101319.8643
101319.8724
101319.8797
101319.8863
101319.8921
101319.8969
101319.9007
101319.9034
101319.905
101319.9056
101319.9049
101319.9032
101319.9003
101319.8964
101319.8913
101319.8852
101319.8782
101319.8701
101319.8613
101319.8516
101319.8413
101319.8304
101319.8189
101319.8071
101319.7951
101319.7829
101319.7707
101319.7587
101319.7469
101319.7356
101319.7248
101319.7147
101319.7054
101319.6971
101319.6898
101319.6837
101319.6788
101319.6752
101319.6731
101319.6725
101317.2176
101317.2337
101317.2491
101317.2638
101317.2778
101317.2912
101317.304
101317.3161
101317.3276
101317.3383
101317.3483
101317.3573
101317.3653
101317.372
101317.3775
101317.3814
101317.3837
101317.3843
101317.3832
101317.3803
101317.3757
101317.3694
101317.3616
101317.3526
101317.3424
101317.3315
101317.32
101317.3085
101317.2971
101317.2861
101317.276
101317.2668
101317.2587
101317.252
101317.2464
101317.2421
101317.2387
101317.2361
101317.2339
101317.2317
101317.229
101317.2253
101317.2202
101317.2133
101317.2041
101317.1923
101317.1776
101317.1601
101317.1398
101317.1169