/*--------------------------------*- C++ -*----------------------------------*\
| =========                 |                                                 |
| \\      /  F ield         | OpenFOAM: The Open Source CFD Toolbox           |
|  \\    /   O peration     | Version:  v2006                                 |
|   \\  /    A nd           | Website:  www.openfoam.com                      |
|    \\/     M anipulation  |                                                 |
\*---------------------------------------------------------------------------*/
FoamFile
{
    version     2.0;
    format      ascii;
    class       surfaceScalarField;
    location    "0.1";
    object      phi;
}
// * * * * * * * * * * * * * * * * * * * * * * * * * * * * * * * * * * * * * //

dimensions      [1 0 -1 0 0 0 0];
oriented        oriented;


internalField   nonuniform List<scalar> 
143280
(
-8.667496369e-10
-4.216941421e-12
-8.651491096e-10
-3.175192991e-12
-8.640258142e-10
-2.559463389e-12
-8.632062661e-10
-2.113097282e-12
-8.625663659e-10
-1.7841487e-12
-8.620298138e-10
-1.525252251e-12
-8.615519008e-10
-1.299464952e-12
-8.610503939e-10
-1.137028199e-12
-8.605161069e-10
-9.679840603e-13
-8.599211006e-10
-8.094174439e-13
-8.592430378e-10
-6.523406028e-13
-8.58477118e-10
-4.837922301e-13
-8.576010149e-10
-3.224599094e-13
-8.566022056e-10
-1.618055838e-13
-8.55482245e-10
4.077594185e-15
-8.542383299e-10
1.658398897e-13
-8.528751169e-10
3.244384648e-13
-8.514069357e-10
4.790438179e-13
-8.498504308e-10
6.238178715e-13
-8.482008279e-10
7.334636549e-13
-8.464692225e-10
8.184663921e-13
-8.447053361e-10
9.115190896e-13
-8.429371916e-10
9.900085252e-13
-8.412113543e-10
1.06891647e-12
-8.395302426e-10
1.103577211e-12
-8.379159704e-10
1.116518581e-12
-8.36394141e-10
1.116694168e-12
-8.349852474e-10
1.105242117e-12
-8.33688028e-10
1.074619087e-12
-8.325106581e-10
1.039625514e-12
-8.31478971e-10
1.025163808e-12
-8.305825525e-10
1.013476637e-12
-8.29807146e-10
1.013465702e-12
-8.291287699e-10
1.031116742e-12
-8.285167842e-10
1.068018219e-12
-8.279580826e-10
1.143720158e-12
-8.27422117e-10
1.250510108e-12
-8.268605861e-10
1.379820758e-12
-8.262363224e-10
1.536834598e-12
-8.255214564e-10
1.723779338e-12
-8.246878345e-10
1.930991792e-12
-8.237157119e-10
2.152389591e-12
-8.225928214e-10
2.380960396e-12
-8.212730473e-10
2.567767333e-12
-8.19786972e-10
2.752193831e-12
-8.182176339e-10
2.955468439e-12
-8.165457987e-10
3.078344929e-12
-8.148131969e-10
3.150890473e-12
-8.130816651e-10
3.174732376e-12
-8.114085137e-10
3.12793305e-12
-8.098253025e-10
2.979787045e-12
-8.084622679e-10
2.814227051e-12
-8.073698646e-10
2.560835995e-12
-8.066137132e-10
2.242978607e-12
-8.062600655e-10
1.87450825e-12
-8.063493053e-10
1.453412986e-12
-8.069249117e-10
1.011552402e-12
-8.080186449e-10
5.677138877e-13
-8.096343864e-10
1.31822917e-13
-8.117622643e-10
-2.703655015e-13
-8.143150157e-10
-6.712137356e-13
-8.173185758e-10
-9.324856265e-13
-8.206944304e-10
-1.114378276e-12
-8.243805977e-10
-1.176183884e-12
-8.281918497e-10
-1.209898094e-12
-8.320684393e-10
-1.090532748e-12
-8.359244702e-10
-8.370190018e-13
-8.397576969e-10
-3.82994845e-13
-8.432630308e-10
1.629209324e-14
-8.464482632e-10
5.852200056e-13
-8.492458531e-10
1.23121966e-12
-8.517377287e-10
2.042927209e-12
-8.536619586e-10
2.670300678e-12
-8.551272538e-10
3.396366575e-12
-8.561628164e-10
4.093537325e-12
-8.569005676e-10
4.807142156e-12
-8.572754606e-10
5.300651525e-12
-8.574517243e-10
5.742218586e-12
-8.575535851e-10
6.059831543e-12
-8.577129822e-10
6.233902537e-12
-8.580898653e-10
6.28253661e-12
-8.587554259e-10
6.115109847e-12
-8.598975659e-10
5.851332972e-12
-8.616317188e-10
5.451268644e-12
-8.641176981e-10
4.991600486e-12
-8.673233826e-10
4.353272866e-12
-8.713796637e-10
3.744109685e-12
-8.762852222e-10
3.102686525e-12
-8.820368149e-10
2.508629714e-12
-8.88534759e-10
1.94652504e-12
-8.957505837e-10
1.553144614e-12
-9.035119221e-10
1.268390817e-12
-9.116755263e-10
1.1687663e-12
-9.200877692e-10
1.303762782e-12
-9.285308864e-10
1.63315405e-12
-9.368038903e-10
2.19688173e-12
-9.447136228e-10
2.987634827e-12
-9.520681347e-10
3.984130788e-12
-9.587019336e-10
5.161414363e-12
-9.644943429e-10
6.494466412e-12
-9.693487005e-10
7.927391162e-12
-9.732178929e-10
9.408534173e-12
-9.760873434e-10
1.086373911e-11
-9.78026763e-10
1.225583829e-11
-9.791664795e-10
1.351910215e-11
-9.79688282e-10
1.4600166e-11
-9.797663537e-10
1.540261443e-11
-9.796370008e-10
1.591052247e-11
-9.796109346e-10
1.612136024e-11
-9.800297581e-10
1.603597926e-11
-9.81141837e-10
1.556854277e-11
-9.831683857e-10
1.472017551e-11
-9.864684659e-10
1.365751277e-11
-9.913662625e-10
1.243001359e-11
-9.980877585e-10
1.105489227e-11
-1.006422746e-09
9.187896264e-12
-1.018661689e-09
9.473113756e-12
-1.029723924e-09
4.599642255e-12
-1.045022676e-09
5.236901979e-12
-1.058864833e-09
4.064363523e-13
-1.079250297e-09
3.880822902e-12
-1.094129013e-09
-4.355860452e-12
-1.11785205e-09
2.349625129e-12
-1.134058184e-09
-6.841149106e-12
-1.161554932e-09
3.56182714e-12
-1.178519914e-09
-7.158492477e-12
-1.209620319e-09
7.653387594e-12
-1.226827011e-09
-4.608020124e-12
-1.260895535e-09
1.474613977e-11
-1.277716288e-09
1.19416932e-12
-1.313884634e-09
2.51883148e-11
-1.327566042e-09
8.61379045e-12
-1.363571879e-09
3.732451654e-11
-1.367856373e-09
1.308945743e-11
-1.402840618e-09
5.106309724e-11
-1.410276905e-09
3.103882936e-11
-1.44803509e-09
6.784185545e-11
-1.45327449e-09
4.035935501e-11
-1.500687201e-09
8.554886167e-11
-1.517038922e-09
5.496091955e-11
-1.580622204e-09
1.002469193e-10
-1.614195872e-09
6.588000446e-11
-1.698511492e-09
1.10985879e-10
-1.752121265e-09
7.438505175e-11
-1.8555816e-09
1.202300633e-10
-1.923197803e-09
8.465234059e-11
-2.03263975e-09
1.336664973e-10
-2.061563999e-09
9.227796865e-11
-2.045355395e-09
9.891186188e-11
-2.539396774e-09
-7.870089912e-11
-2.584908971e-09
1.099937339e-10
-2.217499766e-09
2.377253069e-10
-2.513428466e-09
-1.645885335e-11
-3.724444329e-09
-2.98361591e-10
-4.443577458e-09
1.05408555e-10
-3.557598624e-09
8.300001207e-10
-4.08697225e-09
2.605180669e-10
-4.032330955e-09
1.857917747e-10
-3.200321045e-09
1.316148743e-10
-6.590433365e-09
-9.319927727e-10
-5.437441965e-09
-2.178436354e-10
-5.440904839e-09
4.550748858e-10
-5.967966456e-09
7.846284986e-10
-6.51804134e-09
5.991606526e-10
-7.017335228e-09
4.507813887e-10
-7.460870897e-09
3.687231139e-10
-7.846302806e-09
3.156353217e-10
-8.168244395e-09
2.672708481e-10
-8.423777955e-09
2.171346688e-10
-8.611360767e-09
1.634304441e-10
-8.730450315e-09
1.066596936e-10
-8.782824309e-09
5.005114989e-11
-8.773626797e-09
-2.493539729e-12
-8.703105627e-09
-5.516386136e-11
-8.581175725e-09
-9.800378237e-11
-8.416990961e-09
-1.322901807e-10
-8.220816296e-09
-1.576955359e-10
-8.003461465e-09
-1.744418124e-10
-7.774647108e-09
-1.84217834e-10
-7.542830985e-09
-1.885678199e-10
-7.314825248e-09
-1.891751289e-10
-7.095931584e-09
-1.872994173e-10
-6.89063414e-09
-1.833366859e-10
-6.701757352e-09
-1.783559109e-10
-6.530532152e-09
-1.732294259e-10
-6.377848192e-09
-1.674558677e-10
-6.244016068e-09
-1.606709179e-10
-6.127826897e-09
-1.534105546e-10
-6.026913128e-09
-1.459206912e-10
-5.93833255e-09
-1.380279727e-10
-5.85874204e-09
-1.296450331e-10
-5.785106469e-09
-1.20328432e-10
-5.714480918e-09
-1.102504634e-10
-5.643828834e-09
-1.001159041e-10
-5.5710118e-09
-8.994770752e-11
-5.495154259e-09
-7.961148315e-11
-5.415697573e-09
-6.992866027e-11
-5.332591929e-09
-6.148650394e-11
-5.246876107e-09
-5.417425852e-11
-5.160193338e-09
-4.808869858e-11
-5.074500307e-09
-4.329705523e-11
-4.991839642e-09
-3.976196327e-11
-4.914103078e-09
-3.737431014e-11
-4.842833538e-09
-3.596674633e-11
-4.779081768e-09
-3.533446452e-11
-4.723320758e-09
-3.526251451e-11
-4.675433634e-09
-3.55403985e-11
-4.634767402e-09
-3.597621689e-11
-4.600242537e-09
-3.64054511e-11
-4.570496549e-09
-3.670105812e-11
-4.544047961e-09
-3.677395616e-11
-4.519459034e-09
-3.657166511e-11
-4.495476217e-09
-3.607720455e-11
-4.471139553e-09
-3.530025267e-11
-4.445847706e-09
-3.427131975e-11
-4.419376616e-09
-3.303394537e-11
-4.391850493e-09
-3.164060274e-11
-4.363678532e-09
-3.014328679e-11
-4.335464113e-09
-2.858967232e-11
-4.307899617e-09
-2.702085321e-11
-4.281660039e-09
-2.547113684e-11
-4.257311714e-09
-2.396533169e-11
-4.235242331e-09
-2.252085919e-11
-4.215619908e-09
-2.114922569e-11
-4.198382421e-09
-1.985846873e-11
-4.183258389e-09
-1.865359037e-11
-4.169811664e-09
-1.75383652e-11
-4.157503056e-09
-1.651635793e-11
-4.145759703e-09
-1.55914674e-11
-4.134043792e-09
-1.476710385e-11
-4.121911517e-09
-1.404577377e-11
-4.109056496e-09
-1.342782795e-11
-4.095332684e-09
-1.291116931e-11
-4.080756564e-09
-1.249015228e-11
-4.065489585e-09
-1.215527024e-11
-4.049805264e-09
-1.18925361e-11
-4.034044891e-09
-1.168464898e-11
-4.018568613e-09
-1.1511937e-11
-4.00370899e-09
-1.135270579e-11
-3.989730523e-09
-1.118571549e-11
-3.976800992e-09
-1.099108131e-11
-3.964975898e-09
-1.075226335e-11
-3.954197985e-09
-1.045658586e-11
-3.944308632e-09
-1.009758028e-11
-3.935071481e-09
-9.674107657e-12
-3.926203133e-09
-9.19070216e-12
-3.917407079e-09
-8.657277456e-12
-3.908406647e-09
-8.088608993e-12
-3.898974442e-09
-7.502388783e-12
-3.88895394e-09
-6.918596021e-12
-3.878272991e-09
-6.357215916e-12
-3.86694706e-09
-5.837545198e-12
-3.855073607e-09
-5.376641345e-12
-3.842818631e-09
-4.988364789e-12
-3.830398143e-09
-4.682017599e-12
-3.818055566e-09
-4.462788442e-12
-3.806038227e-09
-4.331934466e-12
-3.794576178e-09
-4.286431637e-12
-3.783865868e-09
-4.31839317e-12
-3.774056671e-09
-4.417922269e-12
-3.765244149e-09
-4.57291067e-12
-3.75746983e-09
-4.769188518e-12
-3.750723713e-09
-4.993755707e-12
-3.744953631e-09
-5.232658437e-12
-3.740075844e-09
-5.473034506e-12
-3.735985783e-09
-5.704495068e-12
-3.73257001e-09
-5.917775221e-12
-3.729715511e-09
-6.105899759e-12
-3.727316628e-09
-6.264033488e-12
-3.725279574e-09
-6.388796353e-12
-3.723523223e-09
-6.478806829e-12
-3.721977668e-09
-6.534007566e-12
-3.720581191e-09
-6.555047536e-12
-3.719274882e-09
-6.544268087e-12
-3.717999046e-09
-6.503556101e-12
-3.716688727e-09
-6.435771941e-12
-3.715270992e-09
-6.34433275e-12
-3.713665314e-09
-6.231973849e-12
-3.711784347e-09
-6.102452397e-12
-3.709538078e-09
-5.959194417e-12
-3.706839031e-09
-5.805910189e-12
-3.703608587e-09
-5.646563522e-12
-3.699783736e-09
-5.48528533e-12
-3.695323413e-09
-5.326370977e-12
-3.690214223e-09
-5.173709084e-12
-3.68447298e-09
-5.032175197e-12
-3.678148922e-09
-4.905709258e-12
-3.671323261e-09
-4.797537022e-12
-3.664104737e-09
-4.711713029e-12
-3.656625738e-09
-4.6503769e-12
-3.649035057e-09
-4.615341804e-12
-3.641489984e-09
-4.607558895e-12
-3.634148272e-09
-4.626694896e-12
-3.627160222e-09
-4.671121694e-12
-3.620660443e-09
-4.73891412e-12
-3.614762102e-09
-4.826626581e-12
-3.60955301e-09
-4.929072961e-12
-3.605090877e-09
-5.041976099e-12
-3.601402727e-09
-5.159817046e-12
-3.598485922e-09
-5.276015857e-12
-3.596308764e-09
-5.38533637e-12
-3.594814668e-09
-5.481579613e-12
-3.593926151e-09
-5.558985399e-12
-3.59354955e-09
-5.612503498e-12
-3.593578341e-09
-5.639386657e-12
-3.593898062e-09
-5.637948365e-12
-3.594392548e-09
-5.606083231e-12
-3.594951209e-09
-5.539904726e-12
-3.595474962e-09
-5.434749013e-12
-3.595874711e-09
-5.29196248e-12
-3.596058743e-09
-5.129139953e-12
-3.595954288e-09
-4.944381813e-12
-3.595525396e-09
-4.719303213e-12
-3.594735296e-09
-4.474888604e-12
-3.593565218e-09
-4.21321659e-12
-3.592011311e-09
-3.93841286e-12
-3.590079453e-09
-3.658183307e-12
-3.587791545e-09
-3.372539952e-12
-3.585183008e-09
-3.083046085e-12
-3.582290057e-09
-2.799948939e-12
-3.579152829e-09
-2.526772007e-12
-3.57581245e-09
-2.266341182e-12
-3.572316573e-09
-2.010158547e-12
-3.568679167e-09
-1.792458851e-12
-3.564941949e-09
-1.586647489e-12
-3.561138622e-09
-1.396350692e-12
-3.557291681e-09
-1.22616259e-12
-3.553400179e-09
-1.090227502e-12
-3.549462241e-09
-9.81462146e-13
-3.545473497e-09
-8.958642739e-13
-3.541425864e-09
-8.324352232e-13
-3.537308123e-09
-7.914376547e-13
-3.533107597e-09
-7.732298618e-13
-3.528812279e-09
-7.776776541e-13
-3.524412844e-09
-8.041518875e-13
-3.519904242e-09
-8.517318089e-13
-3.515286806e-09
-9.194066374e-13
-3.510567037e-09
-1.006059861e-12
-3.505757767e-09
-1.110686972e-12
-3.500878104e-09
-1.232232774e-12
-3.49595314e-09
-1.36943268e-12
-3.49101286e-09
-1.521296688e-12
-3.48609107e-09
-1.686814931e-12
-3.481224182e-09
-1.864913713e-12
-3.476449529e-09
-2.054824211e-12
-3.471804159e-09
-2.255567709e-12
-3.467323504e-09
-2.466115406e-12
-3.463039915e-09
-2.685571766e-12
-3.458981554e-09
-2.912960163e-12
-3.455171452e-09
-3.147192165e-12
-3.451626456e-09
-3.387351357e-12
-3.448356718e-09
-3.6323064e-12
-3.445365336e-09
-3.880719735e-12
-3.442647932e-09
-4.131292888e-12
-3.440192602e-09
-4.382557492e-12
-3.437979741e-09
-4.633164918e-12
-3.435982327e-09
-4.881600263e-12
-3.4341663e-09
-5.126265153e-12
-3.432491069e-09
-5.365552936e-12
-3.430910271e-09
-5.597783782e-12
-3.429372403e-09
-5.821538891e-12
-3.427822005e-09
-6.03532133e-12
-3.426200849e-09
-6.237726195e-12
-3.42444929e-09
-6.427461997e-12
-3.42250766e-09
-6.603437976e-12
-3.420317675e-09
-6.764854236e-12
-3.417824087e-09
-6.910992986e-12
-3.414976151e-09
-7.041385098e-12
-3.411729083e-09
-7.155748285e-12
-3.408045134e-09
-7.25422772e-12
-3.403894787e-09
-7.337072476e-12
-3.399257566e-09
-7.404779736e-12
-3.394122611e-09
-7.458034041e-12
-3.388488779e-09
-7.497852815e-12
-3.38236466e-09
-7.525352001e-12
-3.375768207e-09
-7.541806533e-12
-3.368726065e-09
-7.548618294e-12
-3.361272581e-09
-7.547366865e-12
-3.353448703e-09
-7.53964394e-12
-3.345300648e-09
-7.527094492e-12
-3.336878441e-09
-7.511382645e-12
-3.328234402e-09
-7.494163622e-12
-3.319421597e-09
-7.477059311e-12
-3.310492336e-09
-7.461636493e-12
-3.301496742e-09
-7.449388323e-12
-3.29248144e-09
-7.441718388e-12
-3.2834884e-09
-7.439927832e-12
-3.274553955e-09
-7.445204999e-12
-3.265708026e-09
-7.458617432e-12
-3.256973553e-09
-7.481106356e-12
-3.24836615e-09
-7.51348272e-12
-3.239893982e-09
-7.55642494e-12
-3.231557859e-09
-7.610477439e-12
-3.223351535e-09
-7.676050672e-12
-3.215262208e-09
-7.753421391e-12
-3.207271187e-09
-7.842733725e-12
-3.199354718e-09
-7.944000459e-12
-3.191484936e-09
-8.057104866e-12
-3.183630908e-09
-8.181802976e-12
-3.175759743e-09
-8.317726314e-12
-3.167837735e-09
-8.464385163e-12
-3.159831485e-09
-8.621172888e-12
-3.151708995e-09
-8.787370736e-12
-3.143440668e-09
-8.962154366e-12
-3.135000201e-09
-9.144600983e-12
-3.126365338e-09
-9.333698339e-12
-3.117518442e-09
-9.528355041e-12
-3.108446894e-09
-9.727412325e-12
-3.099143282e-09
-9.92965733e-12
-3.089605387e-09
-1.013383787e-11
-3.079835972e-09
-1.033867857e-11
-3.069842369e-09
-1.054289782e-11
-3.059635909e-09
-1.074522582e-11
-3.049231189e-09
-1.094442317e-11
-3.038645238e-09
-1.113929965e-11
-3.027896595e-09
-1.132873272e-11
-3.017004349e-09
-1.151168576e-11
-3.005987177e-09
-1.168722505e-11
-2.99486243e-09
-1.185453559e-11
-2.983645282e-09
-1.20129351e-11
-2.972348007e-09
-1.21618859e-11
-2.960979387e-09
-1.230100413e-11
-2.949544287e-09
-1.243006668e-11
-2.938043408e-09
-1.254901455e-11
-2.926473228e-09
-1.265795333e-11
-2.914826132e-09
-1.275715035e-11
-2.903090716e-09
-1.284702864e-11
-2.891252256e-09
-1.292815728e-11
-2.879293318e-09
-1.300123921e-11
-2.867194478e-09
-1.306709581e-11
-2.854935127e-09
-1.312664889e-11
-2.842494318e-09
-1.318090093e-11
-2.829851618e-09
-1.323091322e-11
-2.816987948e-09
-1.327778321e-11
-2.803886341e-09
-1.332262081e-11
-2.790532631e-09
-1.336652503e-11
-2.776916006e-09
-1.341056109e-11
-2.763029438e-09
-1.345573867e-11
-2.748869951e-09
-1.350299175e-11
-2.734438741e-09
-1.355316081e-11
-2.719741128e-09
-1.360697762e-11
-2.704786366e-09
-1.366505302e-11
-2.68958731e-09
-1.372786818e-11
-2.674159968e-09
-1.379576917e-11
-2.658522952e-09
-1.38689652e-11
-2.64269687e-09
-1.394753011e-11
-2.626703671e-09
-1.403140794e-11
-2.61056598e-09
-1.412042095e-11
-2.594306458e-09
-1.421428077e-11
-2.577947198e-09
-1.431260208e-11
-2.561509195e-09
-1.44149179e-11
-2.545011898e-09
-1.452069678e-11
-2.528472862e-09
-1.46293603e-11
-2.511907511e-09
-1.47403013e-11
-2.495329006e-09
-1.485290172e-11
-2.478748221e-09
-1.496654932e-11
-2.462173817e-09
-1.508065376e-11
-2.4456124e-09
-1.519466036e-11
-2.429068744e-09
-1.530806217e-11
-2.412546067e-09
-1.542040956e-11
-2.396046327e-09
-1.553131734e-11
-2.379570528e-09
-1.564046933e-11
-2.363119007e-09
-1.574762037e-11
-2.346691693e-09
-1.585259564e-11
-2.330288309e-09
-1.595528789e-11
-2.313908519e-09
-1.605565257e-11
-2.297552005e-09
-1.615370097e-11
-2.281218471e-09
-1.624949213e-11
-2.264907582e-09
-1.634312377e-11
-2.24861884e-09
-1.643472214e-11
-2.232351401e-09
-1.652443203e-11
-2.216103868e-09
-1.661240663e-11
-2.199874052e-09
-1.669879783e-11
-2.183658732e-09
-1.678374722e-11
-2.167453441e-09
-1.686737833e-11
-2.151252272e-09
-1.694978962e-11
-2.135047747e-09
-1.703104919e-11
-2.118830748e-09
-1.711119073e-11
-2.102590522e-09
-1.7190211e-11
-2.086314773e-09
-1.72680686e-11
-2.069989842e-09
-1.734468437e-11
-2.053600965e-09
-1.741994267e-11
-2.037132619e-09
-1.749369403e-11
-2.020568924e-09
-1.756575852e-11
-2.003894111e-09
-1.763592983e-11
-1.987093017e-09
-1.770398006e-11
-1.970151602e-09
-1.776966431e-11
-1.953057463e-09
-1.783272602e-11
-1.935800319e-09
-1.789290158e-11
-1.91837246e-09
-1.7949925e-11
-1.900769127e-09
-1.800353227e-11
-1.882988811e-09
-1.805346495e-11
-1.865033473e-09
-1.80994734e-11
-1.846908645e-09
-1.814131937e-11
-1.828623445e-09
-1.817877787e-11
-1.810190467e-09
-1.821163858e-11
-1.791625582e-09
-1.823970662e-11
-1.772947633e-09
-1.826280283e-11
-1.754178053e-09
-1.82807637e-11
-1.735340402e-09
-1.829344093e-11
-1.71645986e-09
-1.830070068e-11
-1.697562671e-09
-1.8302423e-11
-1.678675574e-09
-1.82985008e-11
-1.659825232e-09
-1.828883923e-11
-1.641037681e-09
-1.827335511e-11
-1.622337805e-09
-1.825197642e-11
-1.603748865e-09
-1.822464216e-11
-1.585292091e-09
-1.819130244e-11
-1.566986335e-09
-1.815191892e-11
-1.548847808e-09
-1.810646538e-11
-1.530889896e-09
-1.805492853e-11
-1.513123048e-09
-1.799730912e-11
-1.495554755e-09
-1.79336232e-11
-1.478189597e-09
-1.786390329e-11
-1.461029354e-09
-1.77881997e-11
-1.444073182e-09
-1.770658155e-11
-1.427317838e-09
-1.761913812e-11
-1.410757949e-09
-1.752597931e-11
-1.394386301e-09
-1.742723631e-11
-1.378194162e-09
-1.732306163e-11
-1.362171609e-09
-1.721362893e-11
-1.34630786e-09
-1.709913213e-11
-1.330591599e-09
-1.697978429e-11
-1.315011296e-09
-1.685581599e-11
-1.2995555e-09
-1.672747298e-11
-1.284213128e-09
-1.659501375e-11
-1.268973709e-09
-1.645870653e-11
-1.253827625e-09
-1.631882581e-11
-1.238766303e-09
-1.617564881e-11
-1.223782395e-09
-1.602945157e-11
-1.208869923e-09
-1.588050512e-11
-1.194024391e-09
-1.572907136e-11
-1.179242873e-09
-1.557539913e-11
-1.164524073e-09
-1.541972053e-11
-1.149868347e-09
-1.526224735e-11
-1.135277705e-09
-1.510316795e-11
-1.120755772e-09
-1.494264434e-11
-1.106307733e-09
-1.47808101e-11
-1.09194023e-09
-1.461776854e-11
-1.077661245e-09
-1.44535916e-11
-1.063479945e-09
-1.428831934e-11
-1.049406502e-09
-1.412196014e-11
-1.035451886e-09
-1.395449139e-11
-1.021627639e-09
-1.378586099e-11
-1.007945633e-09
-1.361598932e-11
-9.944178034e-10
-1.344477188e-11
-9.810558926e-10
-1.327208228e-11
-9.678711781e-10
-1.309777588e-11
-9.548742158e-10
-1.292169353e-11
-9.420745945e-10
-1.274366575e-11
-9.294807136e-10
-1.256351699e-11
-9.170995891e-10
-1.238107004e-11
-9.049366976e-10
-1.219615027e-11
-8.929958624e-10
-1.200858983e-11
-8.81279188e-10
-1.181823159e-11
-8.697870458e-10
-1.162493286e-11
-8.585181152e-10
-1.142856843e-11
-8.474694777e-10
-1.122903336e-11
-8.366367657e-10
-1.102624525e-11
-8.260143603e-10
-1.082014563e-11
-8.15595634e-10
-1.061070105e-11
-8.053732321e-10
-1.039790329e-11
-7.953393835e-10
-1.018176906e-11
-7.854862318e-10
-9.962338704e-12
-7.758061768e-10
-9.73967485e-12
-7.662922146e-10
-9.513859847e-12
-7.569382663e-10
-9.284993013e-12
-7.477394836e-10
-9.053187268e-12
-7.38692522e-10
-8.818565292e-12
-7.297957719e-10
-8.581255276e-12
-7.210495411e-10
-8.341386522e-12
-7.124561808e-10
-8.099084614e-12
-7.040201532e-10
-7.854466501e-12
-6.957480374e-10
-7.607635366e-12
-6.876484736e-10
-7.358675599e-12
-6.797320487e-10
-7.107647502e-12
-6.720111262e-10
-6.854581863e-12
-6.644996278e-10
-6.599474951e-12
-6.572127737e-10
-6.342282524e-12
-6.501667909e-10
-6.082914362e-12
-6.433786005e-10
-5.821227863e-12
-6.368654943e-10
-5.557021224e-12
-6.306448143e-10
-5.290025481e-12
-6.247336459e-10
-5.019895192e-12
-6.191485391e-10
-4.746196889e-12
-6.139052697e-10
-4.468395164e-12
-6.090186516e-10
-4.185836412e-12
-6.045024155e-10
-3.897727321e-12
-6.003692012e-10
-3.603070028e-12
-5.966306472e-10
-3.30062246e-12
-5.932975224e-10
-2.988915183e-12
-5.90379951e-10
-2.66621934e-12
-5.878876761e-10
-2.330569061e-12
-5.858300168e-10
-1.980124568e-12
-5.842144403e-10
-1.61461045e-12
-5.830441111e-10
-1.236384865e-12
-5.823031884e-10
-8.627342145e-13
-5.819030392e-10
-5.650149104e-13
-5.819718424e-10
-1.253126396e-13
1.524907869e-13
-1.796328668e-09
-7.318729706e-12
-1.794313951e-09
-6.214595857e-12
-1.792563029e-09
-5.26202557e-12
-1.791013524e-09
-4.531018545e-12
-1.789549552e-09
-4.01915664e-12
-1.788138364e-09
-3.605487578e-12
-1.786713647e-09
-3.279144608e-12
-1.785264577e-09
-3.01335994e-12
-1.783749579e-09
-2.771172866e-12
-1.782137971e-09
-2.557780708e-12
-1.780408436e-09
-2.350737391e-12
-1.778535203e-09
-2.147715897e-12
-1.7765269e-09
-1.932782681e-12
-1.774367828e-09
-1.726118406e-12
-1.772095351e-09
-1.476187968e-12
-1.769652282e-09
-1.285525184e-12
-1.767069804e-09
-1.072767201e-12
-1.764356781e-09
-8.678087251e-13
-1.761530739e-09
-6.724446616e-13
-1.75862319e-09
-4.967547656e-13
-1.755657264e-09
-3.505412697e-13
-1.752667498e-09
-1.970350078e-13
-1.749664679e-09
-8.215946856e-14
-1.746644539e-09
-6.548683229e-15
-1.743671645e-09
5.760521087e-14
-1.740771126e-09
9.559186805e-14
-1.737963972e-09
1.139686069e-13
-1.735273476e-09
1.192626327e-13
-1.732722909e-09
1.160029173e-13
-1.730322419e-09
1.12194141e-13
-1.728058245e-09
1.163924569e-13
-1.725933341e-09
1.374886439e-13
-1.723939373e-09
1.813622491e-13
-1.722060516e-09
2.562983374e-13
-1.720277618e-09
3.667973913e-13
-1.718555764e-09
5.209943733e-13
-1.716866103e-09
7.221792828e-13
-1.71519735e-09
9.7947249e-13
-1.713492302e-09
1.252134283e-12
-1.711729789e-09
1.57140965e-12
-1.709887635e-09
1.921738394e-12
-1.707940809e-09
2.282932288e-12
-1.705889063e-09
2.661690169e-12
-1.703734375e-09
3.000764542e-12
-1.701486929e-09
3.329757722e-12
-1.69913485e-09
3.63008628e-12
-1.696743187e-09
3.868293517e-12
-1.694344904e-09
4.025273077e-12
-1.691982961e-09
4.098935036e-12
-1.689727721e-09
4.084851288e-12
-1.687664731e-09
3.968710685e-12
-1.685836705e-09
3.771244877e-12
-1.684317975e-09
3.465827431e-12
-1.683179344e-09
3.079391415e-12
-1.68248079e-09
2.622139838e-12
-1.682271032e-09
2.099989962e-12
-1.682588487e-09
1.552340258e-12
-1.683454162e-09
1.000410902e-12
-1.684879164e-09
4.718304685e-13
-1.686843304e-09
-1.152719823e-14
-1.689356138e-09
-4.212685656e-13
-1.69232348e-09
-7.104801461e-13
-1.695697111e-09
-8.657894444e-13
-1.699381493e-09
-8.719102357e-13
-1.703330315e-09
-7.399496725e-13
-1.70744218e-09
-4.14707884e-13
-1.711608739e-09
8.978855995e-14
-1.715665527e-09
7.715906376e-13
-1.719648603e-09
1.581078837e-12
-1.723408976e-09
2.526414983e-12
-1.726906434e-09
3.603500435e-12
-1.729999071e-09
4.758606741e-12
-1.732838685e-09
5.940007623e-12
-1.735286909e-09
7.073245462e-12
-1.737440521e-09
8.220957371e-12
-1.739276983e-09
9.287576136e-12
-1.740941865e-09
1.017839309e-11
-1.742545819e-09
1.097789872e-11
-1.744186161e-09
1.158636618e-11
-1.74594722e-09
1.195299105e-11
-1.747929813e-09
1.210405383e-11
-1.750400291e-09
1.210839779e-11
-1.753425352e-09
1.189946848e-11
-1.757088819e-09
1.147054856e-11
-1.761495148e-09
1.094648976e-11
-1.76679837e-09
1.030159347e-11
-1.772989593e-09
9.614984507e-12
-1.780078262e-09
8.889445694e-12
-1.788089668e-09
8.273938933e-12
-1.796963586e-09
7.724810881e-12
-1.806594716e-09
7.372547098e-12
-1.816866333e-09
7.203758349e-12
-1.827635751e-09
7.298809732e-12
-1.838699801e-09
7.687118637e-12
-1.849930466e-09
8.409258605e-12
-1.861164306e-09
9.488410056e-12
-1.872168515e-09
1.083685326e-11
-1.882756878e-09
1.24719338e-11
-1.892784094e-09
1.436846591e-11
-1.902151147e-09
1.649206024e-11
-1.910765307e-09
1.874301817e-11
-1.918580104e-09
2.105034589e-11
-1.925606055e-09
2.332087229e-11
-1.931899666e-09
2.548886794e-11
-1.937595985e-09
2.747884866e-11
-1.942847679e-09
2.919573957e-11
-1.947875849e-09
3.055275762e-11
-1.952919104e-09
3.149833705e-11
-1.95824808e-09
3.202288843e-11
-1.96414087e-09
3.209308202e-11
-1.970897337e-09
3.16731883e-11
-1.978821832e-09
3.079055586e-11
-1.988136039e-09
2.953907084e-11
-1.999024047e-09
2.799136903e-11
-2.011596185e-09
2.616562204e-11
-2.026623325e-09
2.444793764e-11
-2.041625577e-09
2.232007954e-11
-2.062479366e-09
2.087378727e-11
-2.083743989e-09
1.960458897e-11
-2.108271932e-09
1.5796907e-11
-2.131060317e-09
1.552929023e-11
-2.160448875e-09
1.215618209e-11
-2.186850632e-09
1.44818318e-11
-2.22117179e-09
1.215847161e-11
-2.250959195e-09
1.751476888e-11
-2.290315156e-09
1.632022605e-11
-2.322972498e-09
2.49585824e-11
-2.366841419e-09
2.507285526e-11
-2.401746129e-09
3.725286623e-11
-2.449307453e-09
3.882751845e-11
-2.485528535e-09
5.467767316e-11
-2.537036995e-09
5.717592593e-11
-2.574285911e-09
7.597785205e-11
-2.633270113e-09
7.815758498e-11
-2.6702637e-09
9.903270757e-11
-2.722085447e-09
9.843210173e-11
-2.762974978e-09
1.284810365e-10
-2.830872896e-09
1.310143392e-10
-2.88216168e-09
1.614742021e-10
-2.964620541e-09
1.622465916e-10
-3.031228879e-09
1.904863305e-10
-3.133014145e-09
1.886319375e-10
-3.220285121e-09
2.158620623e-10
-3.344732569e-09
2.131074413e-10
-3.454160351e-09
2.418470636e-10
-3.596640044e-09
2.39751114e-10
-3.715659514e-09
2.698165314e-10
-3.862224256e-09
2.652465527e-10
-3.997718971e-09
2.806595575e-10
-4.210549553e-09
2.487664406e-10
-4.368894227e-09
2.915552571e-10
-4.47696002e-09
2.832061422e-10
-4.812879404e-09
2.098944588e-10
-5.414059057e-09
1.063932321e-10
-5.859550331e-09
2.896580812e-10
-5.815893619e-09
4.05659147e-10
-6.259855029e-09
5.580172058e-10
-6.637905595e-09
6.347933056e-10
-6.692684265e-09
5.134531103e-10
-7.548102418e-09
7.391267336e-10
-8.032566939e-09
6.722942928e-10
-8.498152312e-09
1.116312236e-09
-8.8990906e-09
1.26462217e-09
-9.543341081e-09
1.240635535e-09
-1.02744695e-08
1.145813246e-09
-1.100783595e-08
1.057963557e-09
-1.171338263e-08
9.808058186e-10
-1.238570665e-08
9.073084579e-10
-1.302330277e-08
8.309170522e-10
-1.362386995e-08
7.47810364e-10
-1.418304443e-08
6.561367168e-10
-1.469336567e-08
5.566103504e-10
-1.514607394e-08
4.51991601e-10
-1.553823153e-08
3.446791347e-10
-1.586041579e-08
2.382425198e-10
-1.610876332e-08
1.365830588e-10
-1.628045756e-08
4.062483974e-11
-1.638562448e-08
-3.781299732e-11
-1.642827004e-08
-1.070890136e-10
-1.641670749e-08
-1.650712382e-10
-1.636156851e-08
-2.114286489e-10
-1.627214746e-08
-2.486753002e-10
-1.615798852e-08
-2.768050966e-10
-1.602774165e-08
-2.973036117e-10
-1.58882671e-08
-3.122032665e-10
-1.574524534e-08
-3.213784418e-10
-1.560214863e-08
-3.258249487e-10
-1.54619865e-08
-3.255134198e-10
-1.532738839e-08
-3.201554013e-10
-1.519822258e-08
-3.115755697e-10
-1.507312553e-08
-3.003789624e-10
-1.495097854e-08
-2.856696871e-10
-1.483029114e-08
-2.681435143e-10
-1.470933416e-08
-2.492589344e-10
-1.458646761e-08
-2.297672694e-10
-1.445991769e-08
-2.106775106e-10
-1.432884817e-08
-1.929930558e-10
-1.419364768e-08
-1.771670859e-10
-1.405547083e-08
-1.632727125e-10
-1.391609249e-08
-1.514904783e-10
-1.377765958e-08
-1.419162384e-10
-1.364241426e-08
-1.344969104e-10
-1.351243617e-08
-1.290645059e-10
-1.338942388e-08
-1.253552571e-10
-1.327455529e-08
-1.230281162e-10
-1.316841509e-08
-1.217042224e-10
-1.307098282e-08
-1.210079852e-10
-1.298168955e-08
-1.2059105e-10
-1.289952706e-08
-1.20152686e-10
-1.282319763e-08
-1.194537118e-10
-1.275127438e-08
-1.183279341e-10
-1.26823605e-08
-1.166803283e-10
-1.261523391e-08
-1.144789451e-10
-1.254895371e-08
-1.117455005e-10
-1.24829263e-08
-1.085410452e-10
-1.241692264e-08
-1.049539079e-10
-1.235105398e-08
-1.010861889e-10
-1.228570785e-08
-9.704110612e-11
-1.222145852e-08
-9.291388527e-11
-1.215896393e-08
-8.878624094e-11
-1.209886339e-08
-8.472398725e-11
-1.204168584e-08
-8.077599252e-11
-1.198778132e-08
-7.697599105e-11
-1.193728105e-08
-7.33455988e-11
-1.189008897e-08
-6.989808901e-11
-1.184590143e-08
-6.66417145e-11
-1.18042519e-08
-6.358247107e-11
-1.176457236e-08
-6.07260603e-11
-1.172626299e-08
-5.807853867e-11
-1.168876011e-08
-5.564580375e-11
-1.165159482e-08
-5.343246952e-11
-1.161443546e-08
-5.144004296e-11
-1.157711093e-08
-4.966517808e-11
-1.153961279e-08
-4.809798923e-11
-1.15020781e-08
-4.672098567e-11
-1.146475594e-08
-4.550875693e-11
-1.142796384e-08
-4.442883695e-11
-1.139203984e-08
-4.344329672e-11
-1.135729528e-08
-4.251088159e-11
-1.132397531e-08
-4.158999612e-11
-1.129222995e-08
-4.064166318e-11
-1.12620989e-08
-3.963252868e-11
-1.123351003e-08
-3.853732702e-11
-1.120629205e-08
-3.734104205e-11
-1.118019699e-08
-3.603967801e-11
-1.115493029e-08
-3.464043819e-11
-1.11301843e-08
-3.316104173e-11
-1.110567151e-08
-3.162822439e-11
-1.108115289e-08
-3.007537658e-11
-1.105645996e-08
-2.853999315e-11
-1.103150735e-08
-2.706068027e-11
-1.100629649e-08
-2.567448881e-11
-1.098091014e-08
-2.441432511e-11
-1.095549924e-08
-2.330685002e-11
-1.093026354e-08
-2.237096503e-11
-1.090542992e-08
-2.161694624e-11
-1.088123001e-08
-2.104662317e-11
-1.085787928e-08
-2.06534749e-11
-1.083555894e-08
-2.042330703e-11
-1.081440433e-08
-2.033636656e-11
-1.079449841e-08
-2.036856922e-11
-1.077587017e-08
-2.049308443e-11
-1.075849977e-08
-2.068277107e-11
-1.074232558e-08
-2.091084917e-11
-1.072725475e-08
-2.115245216e-11
-1.071317523e-08
-2.138611412e-11
-1.069996634e-08
-2.159374424e-11
-1.068750846e-08
-2.176115595e-11
-1.067568987e-08
-2.187832664e-11
-1.066441053e-08
-2.193865206e-11
-1.065358349e-08