/*--------------------------------*- C++ -*----------------------------------*\
| =========                 |                                                 |
| \\      /  F ield         | OpenFOAM: The Open Source CFD Toolbox           |
|  \\    /   O peration     | Version:  v2006                                 |
|   \\  /    A nd           | Website:  www.openfoam.com                      |
|    \\/     M anipulation  |                                                 |
\*---------------------------------------------------------------------------*/
FoamFile
{
    version     2.0;
    format      ascii;
    class       surfaceScalarField;
    location    "0.1";
    object      phi_0;
}
// * * * * * * * * * * * * * * * * * * * * * * * * * * * * * * * * * * * * * //

dimensions      [1 0 -1 0 0 0 0];
oriented        oriented;


internalField   nonuniform List<scalar> 
143280
(
-8.614782515e-10
-4.24844139e-12
-8.604103278e-10
-3.415834417e-12
-8.596830126e-10
-2.926120718e-12
-8.591854208e-10
-2.559547151e-12
-8.588263413e-10
-2.292834347e-12
-8.585545981e-10
-2.087136613e-12
-8.583450816e-10
-1.910599289e-12
-8.581221993e-10
-1.803850783e-12
-8.578917712e-10
-1.688072856e-12
-8.576329074e-10
-1.584437745e-12
-8.573280235e-10
-1.481954181e-12
-8.56974848e-10
-1.365028925e-12
-8.565480917e-10
-1.252165905e-12
-8.560291743e-10
-1.134391565e-12
-8.554123572e-10
-1.001827364e-12
-8.546823541e-10
-8.637443978e-13
-8.538297141e-10
-7.16465014e-13
-8.528515774e-10
-5.604797768e-13
-8.517454894e-10
-4.010115546e-13
-8.505253564e-10
-2.289575613e-13
-8.491762698e-10
-7.920226128e-14
-8.477125417e-10
6.626258637e-14
-8.461557174e-10
2.063919772e-13
-8.44522291e-10
3.293601944e-13
-8.428368393e-10
4.332136398e-13
-8.411238946e-10
5.143173537e-13
-8.394144985e-10
5.745869683e-13
-8.377398621e-10
6.103205209e-13
-8.361161604e-10
6.115131571e-13
-8.345739211e-10
5.956807314e-13
-8.331584129e-10
5.835783408e-13
-8.318847057e-10
5.546235065e-13
-8.307663086e-10
5.167681353e-13
-8.298082364e-10
4.775576771e-13
-8.290076286e-10
4.419128658e-13
-8.28367242e-10
4.289921182e-13
-8.278785551e-10
4.421442504e-13
-8.275061214e-10
4.717434005e-13
-8.272174487e-10
5.296364263e-13
-8.269798103e-10
6.253065098e-13
-8.267540672e-10
7.595843536e-13
-8.265010967e-10
9.338384204e-13
-8.261831954e-10
1.147924323e-12
-8.257208066e-10
1.356572362e-12
-8.250993951e-10
1.611820394e-12
-8.243450728e-10
1.935206307e-12
-8.233971913e-10
2.22667082e-12
-8.222508992e-10
2.511669899e-12
-8.209249707e-10
2.790322604e-12
-8.194306326e-10
3.028803992e-12
-8.177538989e-10
3.182960419e-12
-8.160236379e-10
3.346265497e-12
-8.142699318e-10
3.416118335e-12
-8.125586704e-10
3.408378192e-12
-8.109722958e-10
3.323902158e-12
-8.095761127e-10
3.141406624e-12
-8.084595066e-10
2.885382402e-12
-8.077117618e-10
2.5618147e-12
-8.074021378e-10
2.168938004e-12
-8.075971397e-10
1.728527743e-12
-8.082829578e-10
1.197766906e-12
-8.09587152e-10
7.403773297e-13
-8.114681867e-10
2.415481438e-13
-8.139246585e-10
-2.200855012e-13
-8.169161498e-10
-6.354625148e-13
-8.203741531e-10
-9.911428472e-13
-8.242505518e-10
-1.22487705e-12
-8.285427979e-10
-1.266323307e-12
-8.32961831e-10
-1.356219069e-12
-8.374760777e-10
-1.241213374e-12
-8.419716707e-10
-9.878898586e-13
-8.464956016e-10
-4.708775866e-13
-8.506560737e-10
-4.918048802e-14
-8.544662261e-10
5.747384015e-13
-8.578511972e-10
1.292071202e-12
-8.608847076e-10
2.193897303e-12
-8.633224062e-10
2.936164191e-12
-8.65249332e-10
3.765700536e-12
-8.666943494e-10
4.574286932e-12
-8.6771735e-10
5.328385762e-12
-8.684340215e-10
6.025007125e-12
-8.688461025e-10
6.503701074e-12
-8.691567153e-10
6.905694068e-12
-8.694972604e-10
7.139321087e-12
-8.701060479e-10
7.277710492e-12
-8.709740471e-10
7.098629766e-12
-8.723699787e-10
6.85839431e-12
-8.744088667e-10
6.434999539e-12
-8.77234173e-10
5.90205108e-12
-8.808896648e-10
5.220682128e-12
-8.855106742e-10
4.543196614e-12
-8.910733341e-10
3.796772979e-12
-8.97582571e-10
3.078923311e-12
-9.05016689e-10
2.462230216e-12
-9.132456822e-10
1.918107003e-12
-9.221319758e-10
1.52926807e-12
-9.315164058e-10
1.338063788e-12
-9.412089607e-10
1.379353818e-12
-9.509972107e-10
1.669676667e-12
-9.606590165e-10
2.219536582e-12
-9.699476075e-10
3.010714412e-12
-9.786465793e-10
4.040828275e-12
-9.865487874e-10
5.274332163e-12
-9.935026834e-10
6.69658707e-12
-9.993933908e-10
8.246436282e-12
-1.00416489e-09
9.879224203e-12
-1.007763285e-09
1.148542032e-11
-1.01022158e-09
1.302114745e-11
-1.01169416e-09
1.445375326e-11
-1.012411062e-09
1.573897759e-11
-1.01253573e-09
1.672231083e-11
-1.012252352e-09
1.733967505e-11
-1.011987724e-09
1.77338371e-11
-1.012191682e-09
1.789477544e-11
-1.013194337e-09
1.772529972e-11
-1.01498106e-09
1.687158803e-11
-1.020037414e-09
1.791894386e-11
-1.023546597e-09
1.357801448e-11
-1.031157357e-09
1.446906743e-11
-1.037405184e-09
9.598784678e-12
-1.050532436e-09
1.274213101e-11
-1.058714936e-09
3.895110038e-12
-1.076612106e-09
9.770044031e-12
-1.087611826e-09
-9.544418384e-13
-1.111465534e-09
8.370056126e-12
-1.126109476e-09
-4.201528518e-12
-1.156573352e-09
8.790837304e-12
-1.175008268e-09
-5.692245252e-12
-1.212419701e-09
1.15107527e-11
-1.234816574e-09
-4.525123005e-12
-1.279070651e-09
1.721792387e-11
-1.303226942e-09
-1.735876705e-12
-1.352037777e-09
2.506028569e-11
-1.371261827e-09
-5.404904194e-13
-1.422272504e-09
3.642902644e-11
-1.446383767e-09
1.645920752e-11
-1.500040362e-09
5.425253998e-11
-1.519207195e-09
2.891754469e-11
-1.577196646e-09
7.716128169e-11
-1.599692999e-09
5.053674931e-11
-1.664447513e-09
1.000975514e-10
-1.694378438e-09
7.00307269e-11
-1.771528288e-09
1.186234825e-10
-1.817306269e-09
8.436361798e-11
-1.916475458e-09
1.309681181e-10
-1.990372575e-09
9.498826679e-11
-2.126698432e-09
1.444609596e-10
-2.265771327e-09
1.100869584e-10
-2.527092939e-09
1.922071455e-10
-2.154930041e-09
3.527253853e-10
-2.328061392e-09
1.197095526e-10
-2.763128286e-09
1.335554342e-11
-2.324012952e-09
7.489626055e-12
-2.85802935e-09
-3.854528863e-10
-2.249919114e-09
-3.139992134e-10
-4.888433269e-09
-7.525232026e-10
-4.872641039e-09
-2.958204825e-10
-5.463827137e-09
1.786261632e-10
-7.244356823e-09
1.029248461e-09
-2.299457624e-09
2.552880333e-09
-3.927070091e-09
7.562375438e-10
-5.001768139e-09
6.120934001e-10
-6.030196645e-09
7.083240906e-10
-6.744584162e-09
4.958194881e-10
-7.246338443e-09
3.872837919e-10
-7.637985931e-09
3.448222836e-10
-7.964396576e-09
3.168158894e-10
-8.236231386e-09
2.810260926e-10
-8.453882216e-09
2.355581959e-10
-8.613841083e-09
1.824577319e-10
-8.712313895e-09
1.244226303e-10
-8.748283182e-09
6.597637077e-11
-8.725094876e-09
1.10894633e-11
-8.641149297e-09
-4.523081718e-11
-8.50781052e-09
-9.156071049e-11
-8.335124455e-09
-1.300632868e-10
-8.134432971e-09
-1.60042695e-10
-7.917724445e-09
-1.809544099e-10
-7.694962357e-09
-1.945357645e-10
-7.474582973e-09
-2.018412391e-10
-7.262908367e-09
-2.043475219e-10
-7.064410905e-09
-2.032071371e-10
-6.882417305e-09
-1.98827432e-10
-6.718316507e-09
-1.9233387e-10
-6.571653299e-09
-1.84715593e-10
-6.441456181e-09
-1.756378841e-10
-6.326138254e-09
-1.649574567e-10
-6.222757628e-09
-1.534793505e-10
-6.127608531e-09
-1.41746329e-10
-6.036991063e-09
-1.298966779e-10
-5.947531644e-09
-1.181407549e-10
-5.856959735e-09
-1.06281698e-10
-5.76381016e-09
-9.466322056e-11
-5.667081035e-09
-8.406402364e-11
-5.567000182e-09
-7.449418589e-11
-5.465111548e-09
-6.571408365e-11
-5.363069003e-09
-5.837258649e-11
-5.26261824e-09
-5.284117382e-11
-5.165989385e-09
-4.876429717e-11
-5.075319274e-09
-4.598913849e-11
-4.992358581e-09
-4.434948215e-11
-4.918319098e-09
-4.360979087e-11
-4.853772178e-09
-4.351141395e-11
-4.798627145e-09
-4.379226696e-11
-4.75218122e-09
-4.42091049e-11
-4.713223799e-09
-4.456007429e-11
-4.680189526e-09
-4.469115978e-11
-4.651337569e-09
-4.44994067e-11
-4.624937137e-09
-4.392978881e-11
-4.599432912e-09
-4.297406701e-11
-4.57358088e-09
-4.165909254e-11
-4.546538165e-09
-4.003791604e-11
-4.517898109e-09
-3.818278233e-11
-4.487677362e-09
-3.617194287e-11
-4.456255798e-09
-3.408274898e-11
-4.424281671e-09
-3.198488781e-11
-4.392553391e-09
-2.993836837e-11
-4.361898609e-09
-2.798814464e-11
-4.333061512e-09
-2.616450365e-11
-4.30661092e-09
-2.448483683e-11
-4.282877429e-09
-2.295716584e-11
-4.261928183e-09
-2.158020198e-11
-4.243575336e-09
-2.034745182e-11
-4.22741537e-09
-1.924970284e-11
-4.212890974e-09
-1.827769947e-11
-4.199367913e-09
-1.74220428e-11
-4.186214542e-09
-1.667420258e-11
-4.172874364e-09
-1.602656151e-11
-4.158923223e-09
-1.547213241e-11
-4.144106358e-09
-1.500310421e-11
-4.128351729e-09
-1.461024183e-11
-4.111760639e-09
-1.428182931e-11
-4.094577703e-09
-1.400401626e-11
-4.077146458e-09
-1.376057322e-11
-4.059856681e-09
-1.353358823e-11
-4.043091129e-09
-1.330381433e-11
-4.027176841e-09
-1.305269301e-11
-4.012346991e-09
-1.276381363e-11
-3.998717906e-09
-1.242335814e-11
-3.986280885e-09
-1.20223314e-11
-3.974910177e-09
-1.15567365e-11
-3.964383782e-09
-1.102854009e-11
-3.954414884e-09
-1.04448642e-11
-3.944687347e-09
-9.818976262e-12
-3.934893605e-09
-9.167929849e-12
-3.924768909e-09
-8.511639334e-12
-3.914118594e-09
-7.871559294e-12
-3.902835665e-09
-7.269502963e-12
-3.890908704e-09
-6.725302365e-12
-3.878418425e-09
-6.256331733e-12
-3.865525853e-09
-5.875524632e-12
-3.852452471e-09
-5.591420978e-12
-3.839456115e-09
-5.407504897e-12
-3.82680515e-09
-5.322264741e-12
-3.814754521e-09
-5.328881321e-12
-3.803524311e-09
-5.416782222e-12
-3.793283431e-09
-5.572774167e-12
-3.784140323e-09
-5.781449594e-12
-3.776141248e-09
-6.025245521e-12
-3.769272572e-09
-6.287655915e-12
-3.763469264e-09
-6.553006392e-12
-3.758627571e-09
-6.806506317e-12
-3.754617252e-09
-7.037021413e-12
-3.751296235e-09
-7.235028762e-12
-3.748523132e-09
-7.393424833e-12
-3.746166057e-09
-7.508510234e-12
-3.744109599e-09
-7.57827047e-12
-3.742257205e-09
-7.603051654e-12
-3.740530398e-09
-7.585001665e-12
-3.738865852e-09
-7.527092934e-12
-3.737209924e-09
-7.433500901e-12
-3.735512879e-09
-7.308840079e-12
-3.733723799e-09
-7.157548336e-12
-3.731785472e-09
-6.984967826e-12
-3.729633218e-09
-6.795257686e-12
-3.727194389e-09
-6.592999593e-12
-3.724390556e-09
-6.382895106e-12
-3.721143007e-09
-6.168605572e-12
-3.717378031e-09
-5.95456494e-12
-3.713034433e-09
-5.744629681e-12
-3.708070403e-09
-5.542715226e-12
-3.702469635e-09
-5.352717771e-12
-3.696245954e-09
-5.178374746e-12
-3.689445811e-09
-5.02319951e-12
-3.682148868e-09
-4.889843894e-12
-3.674464543e-09
-4.7814681e-12
-3.666528061e-09
-4.699774517e-12
-3.65849416e-09
-4.645251256e-12
-3.650527662e-09
-4.618807749e-12
-3.642795923e-09
-4.619064526e-12
-3.635459433e-09
-4.644114405e-12
-3.628663441e-09
-4.69112151e-12
-3.622531011e-09
-4.756059772e-12
-3.617157662e-09
-4.833888618e-12
-3.612606859e-09
-4.91970411e-12
-3.608908708e-09
-5.007672864e-12
-3.606060855e-09
-5.090901336e-12
-3.604028805e-09
-5.164199427e-12
-3.602749849e-09
-5.221942749e-12
-3.602138168e-09
-5.258353036e-12
-3.602088758e-09
-5.269611325e-12
-3.602484102e-09
-5.251699283e-12
-3.603199789e-09
-5.201689589e-12
-3.604109758e-09
-5.117894707e-12
-3.605089951e-09
-5.001128388e-12
-3.606022159e-09
-4.853815948e-12
-3.606798896e-09
-4.677907615e-12
-3.607329867e-09
-4.472486002e-12
-3.607546297e-09
-4.235061338e-12
-3.607396401e-09
-3.969621805e-12
-3.606827827e-09
-3.699111849e-12
-3.60581074e-09
-3.423890061e-12
-3.604357179e-09
-3.124493541e-12
-3.602473829e-09
-2.826253402e-12
-3.600182679e-09
-2.53136671e-12
-3.597516137e-09
-2.243882806e-12
-3.594510254e-09
-1.97032751e-12
-3.591212099e-09
-1.706654679e-12
-3.587672537e-09
-1.458765849e-12
-3.583936063e-09
-1.234695177e-12
-3.58004339e-09
-1.036853808e-12
-3.576028654e-09
-8.691920405e-13
-3.571940002e-09
-7.176203935e-13
-3.567781416e-09
-6.127987894e-13
-3.563569468e-09
-5.275697638e-13
-3.559314697e-09
-4.594620002e-13
-3.555021994e-09
-4.081119096e-13
-3.550679605e-09
-3.866149292e-13
-3.546274759e-09
-3.924686607e-13
-3.541794304e-09
-4.235617145e-13
-3.537225855e-09
-4.781989983e-13
-3.532559448e-09
-5.547740553e-13
-3.527788908e-09
-6.51949649e-13
-3.522913268e-09
-7.683553661e-13
-3.517937926e-09
-9.024641358e-13
-3.51287513e-09
-1.052836808e-12
-3.50774398e-09
-1.218134802e-12
-3.502570136e-09
-1.396994698e-12
-3.497384857e-09
-1.588286388e-12
-3.492224015e-09
-1.790839182e-12
-3.487127004e-09
-2.00330041e-12
-3.48213496e-09
-2.224635864e-12
-3.477289277e-09
-2.4537719e-12
-3.472630184e-09
-2.689544956e-12
-3.468195007e-09
-2.93108533e-12
-3.464017089e-09
-3.177261878e-12
-3.460124675e-09
-3.426873172e-12
-3.456539828e-09
-3.678799726e-12
-3.453277697e-09
-3.931821576e-12
-3.450345991e-09
-4.184587737e-12
-3.447744328e-09
-4.435922955e-12
-3.445464198e-09
-4.68437809e-12
-3.443488872e-09
-4.928476249e-12
-3.441793477e-09
-5.166713683e-12
-3.440345344e-09
-5.397478109e-12
-3.439104229e-09
-5.619375859e-12
-3.438023019e-09
-5.830946447e-12
-3.437048565e-09
-6.030758406e-12
-3.43612264e-09
-6.217496223e-12
-3.435183178e-09
-6.389897998e-12
-3.434165358e-09
-6.547104255e-12
-3.433003214e-09
-6.688298146e-12
-3.431631211e-09
-6.81287197e-12
-3.429985884e-09
-6.920436172e-12
-3.428007432e-09
-7.010890719e-12
-3.425641188e-09
-7.084497347e-12
-3.422839215e-09
-7.141646425e-12
-3.419561576e-09
-7.18300313e-12
-3.41577745e-09
-7.20942265e-12
-3.411465744e-09
-7.222150759e-12
-3.406615729e-09
-7.222501427e-12
-3.401227202e-09
-7.211972706e-12
-3.39531036e-09
-7.192178436e-12
-3.38888524e-09
-7.164943501e-12
-3.381981025e-09
-7.132096112e-12
-3.374635026e-09
-7.095501793e-12
-3.366891444e-09
-7.057036725e-12
-3.358799976e-09
-7.018554008e-12
-3.350414303e-09
-6.981854523e-12
-3.341790527e-09
-6.948661762e-12
-3.332985595e-09
-6.920600196e-12
-3.324055772e-09
-6.899176994e-12
-3.315055196e-09
-6.885767422e-12
-3.306034558e-09
-6.881603548e-12
-3.297039932e-09
-6.887766287e-12
-3.288111789e-09
-6.905180076e-12
-3.279284202e-09
-6.934610232e-12
-3.270584256e-09
-6.976662153e-12
-3.262031678e-09
-7.031782254e-12
-3.253638671e-09
-7.100260402e-12
-3.245409962e-09
-7.182233283e-12
-3.237343052e-09
-7.277688611e-12
-3.229428644e-09
-7.386469584e-12
-3.221651251e-09
-7.508280332e-12
-3.213989948e-09
-7.642691375e-12
-3.206419247e-09
-7.78914571e-12
-3.198910071e-09
-7.946965201e-12
-3.191430795e-09
-8.115357653e-12
-3.183948314e-09
-8.293424619e-12
-3.176429111e-09
-8.480169976e-12
-3.168840294e-09
-8.674509365e-12
-3.161150551e-09
-8.875281004e-12
-3.153331016e-09
-9.081257148e-12
-3.145355991e-09
-9.291157401e-12
-3.137203528e-09
-9.503662549e-12
-3.128855827e-09
-9.717429974e-12
-3.120299463e-09
-9.931109968e-12
-3.111525419e-09
-1.014336279e-11
-3.102528945e-09
-1.035287644e-11
-3.093309242e-09
-1.055838468e-11
-3.083868998e-09
-1.075868534e-11
-3.074213803e-09
-1.095265792e-11
-3.064351456e-09
-1.113928078e-11
-3.054291228e-09
-1.131764728e-11
-3.044043085e-09
-1.148698037e-11
-3.033616926e-09
-1.164664535e-11
-3.023021875e-09
-1.179616063e-11
-3.012265643e-09
-1.193520584e-11
-3.001353998e-09
-1.206362736e-11
-2.990290375e-09
-1.21814407e-11
-2.979075617e-09
-1.228882997e-11
-2.967707889e-09
-1.238614382e-11
-2.956182736e-09
-1.247388867e-11
-2.944493301e-09
-1.255271809e-11
-2.932630677e-09
-1.262341977e-11
-2.920584388e-09
-1.26868992e-11
-2.908342949e-09
-1.274416133e-11
-2.895894515e-09
-1.279628948e-11
-2.883227542e-09
-1.284442327e-11
-2.870331472e-09
-1.288973489e-11
-2.857197368e-09
-1.293340471e-11
-2.843818504e-09
-1.29765973e-11
-2.830190857e-09
-1.302043739e-11
-2.81631349e-09
-1.306598752e-11
-2.802188803e-09
-1.31142268e-11
-2.787822649e-09
-1.316603239e-11
-2.773224298e-09
-1.322216342e-11
-2.758406261e-09
-1.328324816e-11
-2.74338398e-09
-1.334977445e-11
-2.728175397e-09
-1.342208383e-11
-2.712800423e-09
-1.350036951e-11
-2.697280341e-09
-1.358467796e-11
-2.681637153e-09
-1.367491432e-11
-2.66589292e-09
-1.377085112e-11
-2.650069107e-09
-1.387214021e-11
-2.63418598e-09
-1.397832707e-11
-2.618262064e-09
-1.408886805e-11
-2.602313698e-09
-1.420314855e-11
-2.586354695e-09
-1.432050268e-11
-2.570396126e-09
-1.444023339e-11
-2.554446223e-09
-1.456163215e-11
-2.53851042e-09
-1.468399845e-11
-2.522591501e-09
-1.480665737e-11
-2.50668986e-09
-1.492897594e-11
-2.490803851e-09
-1.5050377e-11
-2.474930204e-09
-1.517035037e-11
-2.459064483e-09
-1.528846174e-11
-2.443201563e-09
-1.540435818e-11
-2.427336097e-09
-1.551777083e-11
-2.411462949e-09
-1.562851481e-11
-2.395577571e-09
-1.573648621e-11
-2.379676302e-09
-1.584165672e-11
-2.363756576e-09
-1.594406605e-11
-2.347817032e-09
-1.604381241e-11
-2.331857516e-09
-1.614104175e-11
-2.315878982e-09
-1.623593604e-11
-2.299883297e-09
-1.632870091e-11
-2.283872958e-09
-1.641955335e-11
-2.267850753e-09
-1.650870995e-11
-2.251819364e-09
-1.659637541e-11
-2.235780951e-09
-1.668273269e-11
-2.219736743e-09
-1.676793423e-11
-2.203686642e-09
-1.685209487e-11
-2.187628885e-09
-1.693528636e-11
-2.17155977e-09
-1.701753409e-11
-2.15547347e-09
-1.709881505e-11
-2.139361942e-09
-1.717905812e-11
-2.123214951e-09
-1.725814562e-11
-2.1070202e-09
-1.733591666e-11
-2.090763566e-09
-1.741217136e-11
-2.074429446e-09
-1.74866767e-11
-2.058001186e-09
-1.755917248e-11
-2.041461584e-09
-1.762937839e-11
-2.024793452e-09
-1.769700088e-11
-2.007980204e-09
-1.776174025e-11
-1.991006461e-09
-1.782329754e-11
-1.973858633e-09
-1.788138063e-11
-1.956525471e-09
-1.793571029e-11
-1.938998557e-09
-1.798602483e-11
-1.921272723e-09
-1.803208422e-11
-1.90334637e-09
-1.807367335e-11
-1.885221689e-09
-1.811060405e-11
-1.866904775e-09
-1.814271641e-11
-1.848405623e-09
-1.816987917e-11
-1.82973801e-09
-1.819198911e-11
-1.810919281e-09
-1.820897e-11
-1.791970029e-09
-1.822077081e-11
-1.772913694e-09
-1.822736343e-11
-1.753776089e-09
-1.82287402e-11
-1.734584876e-09
-1.822491105e-11
-1.715369003e-09
-1.82159007e-11
-1.696158123e-09
-1.820174605e-11
-1.676982008e-09
-1.81824933e-11
-1.657869983e-09
-1.815819585e-11
-1.638850379e-09
-1.812891222e-11
-1.619950042e-09
-1.809470427e-11
-1.601193875e-09
-1.805563605e-11
-1.58260446e-09
-1.801177289e-11
-1.564201725e-09
-1.796318097e-11
-1.546002696e-09
-1.790992718e-11
-1.528021308e-09
-1.785207926e-11
-1.510268293e-09
-1.778970632e-11
-1.492751127e-09
-1.772287949e-11
-1.475474046e-09
-1.765167263e-11
-1.458438119e-09
-1.757616319e-11
-1.441641372e-09
-1.749643278e-11
-1.425078964e-09
-1.741256818e-11
-1.408743407e-09
-1.732466147e-11
-1.392624816e-09
-1.72328105e-11
-1.376711199e-09
-1.713711878e-11
-1.360988773e-09
-1.703769529e-11
-1.345442299e-09
-1.693465374e-11
-1.330055439e-09
-1.682811162e-11
-1.314811127e-09
-1.671818906e-11
-1.299691946e-09
-1.660500713e-11
-1.284680514e-09
-1.648868612e-11
-1.269759869e-09
-1.636934353e-11
-1.254913845e-09
-1.624709181e-11
-1.240127438e-09
-1.612203621e-11
-1.225387161e-09
-1.59942724e-11
-1.210681361e-09
-1.586388437e-11
-1.196000518e-09
-1.573094229e-11
-1.181337493e-09
-1.559550051e-11
-1.166687742e-09
-1.545759613e-11
-1.152049463e-09
-1.531724756e-11
-1.137423699e-09
-1.51744538e-11
-1.122814364e-09
-1.502919372e-11
-1.108228209e-09
-1.488142633e-11
-1.093674716e-09
-1.473109123e-11
-1.079165921e-09
-1.457810955e-11
-1.064716172e-09
-1.442238557e-11
-1.050341816e-09
-1.426380878e-11
-1.036060839e-09
-1.410225635e-11
-1.021892448e-09
-1.393759598e-11
-1.007856619e-09
-1.376968928e-11
-9.93973615e-10
-1.359839536e-11
-9.802634985e-10
-1.342357459e-11
-9.667456381e-10
-1.324509265e-11
-9.534382359e-10
-1.306282448e-11
-9.403578866e-10
-1.28766582e-11
-9.275191812e-10
-1.268649909e-11
-9.149343707e-10
-1.249227305e-11
-9.026130989e-10
-1.229392987e-11
-8.905622149e-10
-1.209144613e-11
-8.787856706e-10
-1.18848274e-11
-8.672845078e-10
-1.16741101e-11
-8.560569342e-10
-1.145936247e-11
-8.450984869e-10
-1.124068499e-11
-8.344022779e-10
-1.101821008e-11
-8.239593121e-10
-1.079210093e-11
-8.137588681e-10
-1.056254966e-11
-8.037889289e-10
-1.032977472e-11
-7.940366475e-10
-1.009401768e-11
-7.844888315e-10
-9.855538994e-12
-7.751324322e-10
-9.614613736e-12
-7.659550207e-10
-9.371526259e-12
-7.569452364e-10
-9.126564747e-12
-7.480931945e-10
-8.880015307e-12
-7.393908398e-10
-8.632155812e-12
-7.308322367e-10
-8.383249559e-12
-7.224137882e-10
-8.133539019e-12
-7.141343795e-10
-7.883239512e-12
-7.059954428e-10
-7.632533045e-12
-6.980009458e-10
-7.381562333e-12
-6.901573052e-10
-7.130425264e-12
-6.824732338e-10
-6.879169451e-12
-6.749595264e-10
-6.627787054e-12
-6.676287957e-10
-6.376210334e-12
-6.604951706e-10
-6.124306702e-12
-6.535739664e-10
-5.871874444e-12
-6.468813428e-10
-5.618638069e-12
-6.404339604e-10
-5.364243312e-12
-6.342486508e-10
-5.108251387e-12
-6.283421109e-10
-4.850132074e-12
-6.227306363e-10
-4.589254804e-12
-6.174299015e-10
-4.324877483e-12
-6.124548004e-10
-4.056133349e-12
-6.078193537e-10
-3.782012826e-12
-6.035367377e-10
-3.501298923e-12
-5.996194054e-10
-3.212531137e-12
-5.960792435e-10
-2.914030278e-12
-5.929278187e-10
-2.603867211e-12
-5.901766562e-10
-2.279889167e-12
-5.878372073e-10
-1.940084818e-12
-5.859194168e-10
-1.584032952e-12
-5.844292793e-10
-1.213951512e-12
-5.833540385e-10
-8.47073749e-13
-5.826085024e-10
-5.545394456e-13
-5.823259796e-10
-1.168138725e-13
1.596891245e-13
-1.7912452e-09
-7.470968075e-12
-1.789644363e-09
-6.619185522e-12
-1.788241273e-09
-5.839813648e-12
-1.786993212e-09
-5.232365719e-12
-1.785800985e-09
-4.822623391e-12
-1.784650234e-09
-4.496768792e-12
-1.783487481e-09
-4.253330862e-12
-1.782317762e-09
-4.070743438e-12
-1.781106976e-09
-3.910938212e-12
-1.77983124e-09
-3.780725262e-12
-1.778473281e-09
-3.655288979e-12
-1.777007568e-09
-3.530175736e-12
-1.775441909e-09
-3.386256267e-12
-1.773755226e-09
-3.241801107e-12
-1.771979459e-09
-3.038362553e-12
-1.770042913e-09
-2.883158512e-12
-1.76796665e-09
-2.685968738e-12
-1.76574678e-09
-2.476685025e-12
-1.763389439e-09
-2.254698216e-12
-1.760890611e-09
-2.024740816e-12
-1.758265037e-09
-1.808541666e-12
-1.755547673e-09
-1.574737178e-12
-1.752732562e-09
-1.371471928e-12
-1.749821121e-09
-1.205573632e-12
-1.74686058e-09
-1.043126426e-12
-1.743878248e-09
-9.083294056e-13
-1.740902674e-09
-8.017868424e-13
-1.737968938e-09
-7.234674703e-13
-1.735115471e-09
-6.735246354e-13
-1.732370289e-09
-6.475112183e-13
-1.729743609e-09
-6.410766908e-13
-1.727263858e-09
-6.465588746e-13
-1.724949118e-09
-6.585224893e-13
-1.722809341e-09
-6.666105139e-13
-1.720848446e-09
-6.631520519e-13
-1.719056511e-09
-6.353807539e-13
-1.717419393e-09
-5.712893219e-13
-1.715938618e-09
-4.531731689e-13
-1.714559988e-09
-3.153545738e-13
-1.713256915e-09
-1.174600301e-13
-1.711999016e-09
1.433517063e-13
-1.710744342e-09
4.569746152e-13
-1.709463631e-09
8.363355134e-13
-1.708119784e-09
1.229035671e-12
-1.706684886e-09
1.676953776e-12
-1.705108198e-09
2.163449494e-12
-1.703404442e-09
2.654711555e-12
-1.701560877e-09
3.128181653e-12
-1.699571763e-09
3.572454199e-12
-1.697472682e-09
3.974933755e-12
-1.695323626e-09
4.30561134e-12
-1.693134961e-09
4.576205575e-12
-1.690973747e-09
4.734719001e-12
-1.688912749e-09
4.790316515e-12
-1.687025899e-09
4.732779306e-12
-1.685391381e-09
4.545960909e-12
-1.684087969e-09
4.253304197e-12
-1.683189186e-09
3.8591334e-12
-1.682770041e-09
3.377748178e-12
-1.682879325e-09
2.821867967e-12
-1.683605494e-09
2.214886915e-12
-1.684917039e-09
1.609749878e-12
-1.686863264e-09
1.014903655e-12
-1.68942433e-09
4.666540312e-13
-1.692571826e-09
-1.714072985e-15
-1.696269203e-09
-3.600654193e-13
-1.700440976e-09
-5.622233444e-13
-1.70494274e-09
-5.915369053e-13
-1.709787986e-09
-4.707093505e-13
-1.714815919e-09
-1.4989843e-13
-1.71993071e-09
3.855016848e-13
-1.724915798e-09
1.125277129e-12
-1.729860966e-09
2.026085104e-12
-1.734550211e-09
3.04875513e-12
-1.738948322e-09
4.243025002e-12
-1.742918256e-09
5.552874039e-12
-1.74653842e-09
6.848104332e-12
-1.749801417e-09
8.210645183e-12
-1.752718101e-09
9.527253177e-12
-1.755294627e-09
1.071780423e-11
-1.757569663e-09
1.177380865e-11
-1.759803702e-09
1.271961117e-11
-1.762043104e-09
1.345288542e-11
-1.764392242e-09
1.39175141e-11
-1.766989737e-09
1.420403985e-11
-1.770093941e-09
1.422582363e-11
-1.773774271e-09
1.403869025e-11
-1.778162182e-09
1.360505528e-11
-1.783415373e-09
1.305833461e-11
-1.789623058e-09
1.232875667e-11
-1.796824303e-09
1.155184698e-11
-1.805050005e-09
1.071552414e-11
-1.814291556e-09
9.922442358e-12
-1.824459089e-09
9.232212443e-12
-1.835526974e-09
8.725029415e-12
-1.847399068e-09
8.477074769e-12
-1.859867635e-09
8.458401984e-12
-1.872729495e-09
8.754774837e-12
-1.885785274e-09
9.406722771e-12
-1.898848938e-09
1.044245042e-11
-1.911703305e-09
1.182072297e-11
-1.92413494e-09
1.35288693e-11
-1.93595543e-09
1.551983966e-11
-1.947005154e-09
1.775901412e-11
-1.957200984e-09
2.018628448e-11
-1.966468583e-09
2.270345454e-11
-1.974816076e-09
2.520581382e-11
-1.982292497e-09
2.760608338e-11
-1.989011177e-09
2.984648883e-11
-1.995128151e-09
3.183046604e-11
-2.00088239e-09
3.344077291e-11
-2.006574906e-09
3.462211263e-11
-2.012456586e-09
3.539362065e-11
-2.018789822e-09
3.574414946e-11
-2.025843139e-09
3.560130179e-11
-2.034556264e-09
3.529007812e-11
-2.042660416e-09
3.423478064e-11
-2.056241792e-09
3.350783477e-11
-2.070129709e-09
3.255776486e-11
-2.087332448e-09
2.868129556e-11
-2.103111728e-09
2.792850507e-11
-2.126035851e-09
2.365954308e-11
-2.146656767e-09
2.468829826e-11
-2.176411056e-09
2.061387983e-11
-2.202564008e-09
2.398212947e-11
-2.239819813e-09
2.037657056e-11
-2.271932121e-09
2.633894444e-11
-2.317169255e-09
2.347684549e-11
-2.355410341e-09
3.254501276e-11
-2.408620224e-09
3.086447284e-11
-2.452699665e-09
4.356931422e-11
-2.514436739e-09
4.308551688e-11
-2.564039778e-09
5.939445046e-11
-2.637023036e-09
5.976419581e-11
-2.689373513e-09
7.970524989e-11
-2.756786861e-09
7.936958292e-11
-2.812569344e-09
1.109447169e-10
-2.893332261e-09
1.164356137e-10
-2.954474767e-09
1.5105911e-10
-3.042720045e-09
1.569850268e-10
-3.110686724e-09
1.908276155e-10
-3.209609232e-09
1.944629787e-10
-3.291108207e-09
2.263537571e-10
-3.409357697e-09
2.269424757e-10
-3.51587451e-09
2.575883375e-10
-3.663793387e-09
2.56764262e-10
-3.802782091e-09
2.900598016e-10
-3.990081083e-09
2.970571231e-10
-4.155689242e-09
3.461198549e-10
-4.233648706e-09
3.599955682e-10
-4.430184722e-09
3.468209223e-10
-4.646588412e-09
3.158272926e-10
-4.733312295e-09
3.192675398e-10
-4.90146293e-09
2.317518319e-10
-5.131757013e-09
1.15708931e-10
-5.865357891e-09
8.56912912e-11
-6.458594796e-09
2.319779369e-10
-7.081483804e-09
5.912826131e-10
-7.342232022e-09
8.949615271e-10
-6.759525297e-09
1.076059828e-09
-7.49976227e-09
1.078468044e-09
-8.341090296e-09
1.148412361e-09
-8.983657946e-09
1.14903997e-09
-9.723244143e-09
1.119562579e-09
-1.045960649e-08
1.063645839e-09
-1.115775212e-08
1.017834242e-09
-1.181782558e-08
9.71507615e-10
-1.244848251e-08
9.16636466e-10
-1.305253311e-08
8.497420629e-10
-1.362754209e-08
7.703640308e-10
-1.416705015e-08
6.792020688e-10
-1.466122735e-08
5.783655226e-10
-1.509974671e-08
4.711807231e-10
-1.547960703e-08
3.599581547e-10
-1.579111929e-08
2.486129996e-10
-1.603140621e-08
1.410132635e-10
-1.619832697e-08
3.796907489e-11
-1.63038665e-08
-4.6498914e-11
-1.635183641e-08
-1.221808658e-10
-1.635076183e-08
-1.85355542e-10
-1.63108771e-08
-2.35347298e-10
-1.624074641e-08
-2.744257936e-10
-1.614881116e-08
-3.024491876e-10
-1.604233484e-08
-3.208960211e-10
-1.592654104e-08
-3.319311866e-10
-1.580530955e-08
-3.356726969e-10
-1.568026401e-08
-3.334856471e-10
-1.55527177e-08
-3.25812048e-10
-1.542399689e-08
-3.129033437e-10
-1.529320706e-08
-2.971540465e-10
-1.515892543e-08
-2.797257926e-10
-1.502072952e-08
-2.601971165e-10
-1.487852603e-08
-2.396104192e-10
-1.473253417e-08
-2.196097094e-10
-1.458338867e-08
-2.00964952e-10
-1.443166553e-08
-1.845374666e-10
-1.427868861e-08
-1.710479401e-10
-1.412660157e-08
-1.605574966e-10
-1.397773167e-08
-1.526826484e-10
-1.38343534e-08
-1.471283523e-10
-1.369843291e-08
-1.4354025e-10
-1.357142026e-08
-1.414780192e-10
-1.345412236e-08
-1.404754892e-10
-1.334665459e-08
-1.400748179e-10
-1.324849174e-08
-1.39847404e-10
-1.315858024e-08
-1.394270688e-10
-1.307548856e-08
-1.385362975e-10
-1.299758737e-08
-1.369901186e-10
-1.292323383e-08
-1.346937571e-10
-1.285094436e-08
-1.31633735e-10
-1.277952618e-08
-1.278681633e-10
-1.270816618e-08
-1.235074129e-10
-1.263647238e-08
-1.186939181e-10
-1.256446016e-08
-1.135844611e-10
-1.249249552e-08
-1.083330876e-10
-1.24212012e-08
-1.030804822e-10
-1.235134432e-08
-9.794511963e-11
-1.228371595e-08
-9.301769576e-11
-1.221902035e-08
-8.836013214e-11
-1.21577852e-08
-8.400821519e-11
-1.210030266e-08
-7.997644845e-11
-1.204660286e-08
-7.626278211e-11
-1.199646307e-08
-7.285440632e-11
-1.194944719e-08
-6.973288416e-11
-1.190496881e-08
-6.687837863e-11
-1.186236637e-08
-6.427209586e-11
-1.182098209e-08
-6.189741224e-11
-1.178023399e-08
-5.973982148e-11
-1.173967336e-08
-5.778579933e-11
-1.169902111e-08
-5.602097856e-11
-1.165818097e-08
-5.44284837e-11
-1.161722949e-08
-5.298739678e-11
-1.157638671e-08
-5.167208085e-11
-1.153597203e-08
-5.045214689e-11
-1.149635212e-08
-4.929332925e-11
-1.14578871e-08
-4.81591491e-11
-1.142088269e-08
-4.701346072e-11
-1.138555282e-08
-4.58231699e-11
-1.135199563e-08
-4.456075884e-11
-1.132018607e-08
-4.320685694e-11
-1.128998321e-08
-4.175197013e-11
-1.126115116e-08
-4.019756257e-11
-1.123338916e-08
-3.855608704e-11
-1.12063683e-08
-3.685043809e-11
-1.117976815e-08
-3.511196607e-11
-1.115331041e-08
-3.33781385e-11
-1.112678596e-08
-3.168978275e-11
-1.1100073e-08
-3.008812587e-11
-1.107314403e-08
-2.861166413e-11
-1.104606336e-08
-2.729361092e-11
-1.101897455e-08
-2.615956555e-11
-1.099208139e-08
-2.522614264e-11
-1.096562416e-08
-2.450013006e-11
-1.093985424e-08
-2.397842515e-11
-1.091500931e-08
-2.364866458e-11
-1.089129285e-08
-2.349049319e-11
-1.086885893e-08
-2.34776167e-11
-1.084780292e-08
-2.35794292e-11
-1.082815806e-08
-2.376282881e-11
-1.080989943e-08
-2.399496273e-11
-1.079295225e-08
-2.424458761e-11
-1.077720303e-08
-2.448341092e-11
-1.076251401e-08
-2.468791529e-11
-1.074873605e-08
-2.483924923e-11
-1.073572057e-08
-2.492359725e-11
-1.072332948e-08
-2.49325948e-11
-1.071144084e-08
-2.486229454e-11
-1.069995174e-08
-2.47127648e-11
-1.068877755e-08
-2.448758018e-11
-1.067784832e-08