/*--------------------------------*- C++ -*----------------------------------*\
| =========                 |                                                 |
| \\      /  F ield         | OpenFOAM: The Open Source CFD Toolbox           |
|  \\    /   O peration     | Version:  v2006                                 |
|   \\  /    A nd           | Website:  www.openfoam.com                      |
|    \\/     M anipulation  |                                                 |
\*---------------------------------------------------------------------------*/
FoamFile
{
    version     2.0;
    format      ascii;
    class       volScalarField;
    location    "0.1";
    object      rho;
}
// * * * * * * * * * * * * * * * * * * * * * * * * * * * * * * * * * * * * * //

dimensions      [1 -3 0 0 0 0 0];


internalField   nonuniform List<scalar> 
72000
(
0.9187823655
0.918739516
0.9186557475
0.9185345692
0.9183798767
0.9181955396
0.9179852989
0.9177525087
0.9175002221
0.9172310798
0.916947463
0.9166513377
0.9163443924
0.9160280772
0.9157035779
0.9153718849
0.9150338389
0.9146900552
0.9143410456
0.9139872317
0.9136288787
0.9132662222
0.91289942
0.9125285857
0.9121537737
0.9117750883
0.9113925826
0.9110061463
0.9106156436
0.9102208926
0.9098217337
0.9094180122
0.9090095862
0.9085963508
0.9081781179
0.9077546924
0.9073258897
0.9068915273
0.9064513541
0.9060051607
0.905552747
0.9050938935
0.9046284104
0.9041560539
0.9036766184
0.903189879
0.9026956163
0.9021935682
0.9016835215
0.9011652664
0.900639013
0.9001043745
0.8995608086
0.8990080666
0.8984458904
0.8978740563
0.8972923583
0.8967005229
0.8960983252
0.8954855638
0.8948619832
0.8942272919
0.8935810996
0.892923095
0.8922529796
0.8915709067
0.890879887
0.8901759858
0.8894586848
0.8887275554
0.8879822371
0.8872222891
0.8864473391
0.8856570377
0.8848510041
0.884028923
0.8831902402
0.8823347307
0.8814620252
0.8805717602
0.8796636723
0.8787372092
0.8777919295
0.8768272274
0.8758425719
0.8748373816
0.8738112313
0.8727637404
0.8716958808
0.8706062606
0.8694940215
0.8683584173
0.8671988254
0.8660148781
0.8648058495
0.8635713779
0.8623108353
0.8610236832
0.8597092343
0.858366981
0.8569965882
0.8555977792
0.8541704285
0.852714596
0.8512304094
0.8497181784
0.8481782205
0.8466113922
0.8450193361
0.8434051074
0.8417697168
0.8401166603
0.838451217
0.8367811788
0.8351211268
0.8334905812
0.8318983059
0.8304359277
0.8288694722
0.8281874203
0.8267952131
0.8266059653
0.8251458194
0.8253192416
0.8236626881
0.8241367361
0.8222170108
0.822996111
0.8207812616
0.8219044897
0.8193463267
0.8208604758
0.8178846836
0.8198420694
0.8161933654
0.8184973408
0.8122503905
0.8129354885
0.804830071
0.8041720479
0.7947241376
0.7930133478
0.7823911775
0.7797074047
0.7678043495
0.7639207429
0.7503399063
0.7444606706
0.7284378475
0.7200837998
0.7004684556
0.6885178422
0.6644296294
0.647871681
0.6177563521
0.5942080631
0.5571504865
0.5236683767
0.492018645
0.4624910962
0.413495899
0.4368503376
0.5149078701
0.5835459116
0.6328005282
0.6692614705
0.7003679827
0.7299806074
0.7595129697
0.789348097
0.8195083724
0.8492916931
0.8784634465
0.9061525454
0.9322098983
0.9560892887
0.9775350023
0.9964965498
1.013182385
1.027653811
1.040091807
1.05072675
1.05981362
1.067568536
1.074206129
1.079895863
1.084765189
1.08894427
1.092585469
1.095768539
1.098489557
1.100729808
1.102747106
1.104541093
1.106085071
1.107582429
1.109327441
1.110928068
1.112325692
1.113531776
1.114571979
1.115471948
1.116253854
1.116936024
1.117533433
1.118058343
1.118520883
1.118929508
1.119291344
1.119612453
1.119898024
1.120152516
1.120379772
1.120583102
1.120765356
1.120928984
1.121076091
1.121208484
1.121327722
1.121435153
1.121531954
1.121619166
1.121697717
1.12176845
1.121832136
1.121889484
1.121941151
1.121987742
1.122029811
1.122067862
1.122102341
1.122133645
1.122162116
1.122188043
1.122211674
1.122233213
1.122252834
1.122270685
1.122286897
1.12230159
1.12231488
1.12232688
1.122337705
1.122347472
1.122356297
1.122364294
1.122371571
1.12237823
1.122384359
1.122390036
1.122395321
1.12240026
1.122404886
1.122409217
1.122413261
1.122417019
1.122420488
1.122423663
1.122426539
1.122429114
1.122431392
1.122433381
1.122435094
1.122436548
1.122437765
1.122438768
1.122439582
1.12244023
1.122440737
1.122441125
1.122441412
1.122441617
1.122441756
1.122441843
1.122441893
1.122441919
1.122441934
1.122441953
1.122441989
1.122442057
1.122442169
1.122442337
1.122442572
1.12244288
1.122443265
1.122443728
1.122444265
1.122444867
1.122445523
1.122446218
1.122446935
1.122447654
1.122448355
1.12244902
1.122449631
1.12245017
1.122450625
1.122450985
1.122451246
1.122451403
1.122451458
1.122451415
1.122451281
1.122451067
1.122450783
1.122450443
1.122450061
1.12244965
1.122449224
1.122448796
1.122448378
1.12244798
1.12244761
1.122447276
1.122446981
1.12244673
1.122446524
1.122446363
1.122446245
1.122446169
1.12244613
1.122446127
1.122446155
1.122446211
1.122446292
1.122446394
1.122446517
1.12244666
1.122446821
1.122447001
1.122447201
1.122447422
1.122447666
1.122447932
1.122448223
1.122448538
1.122448878
1.122449242
1.122449628
1.122450033
1.122450456
1.12245089
1.122451334
1.122451781
1.122452225
1.122452663
1.122453088
1.122453496
1.12245388
1.122454236
1.122454561
1.12245485
1.122455101
1.122455311
1.122455479
1.122455604
1.122455686
1.122455727
1.122455729
1.122455693
1.122455624
1.122455526
1.122455403
1.12245526
1.122455104
1.12245494
1.122454774
1.122454612
1.122454459
1.122454321
1.122454203
1.122454109
1.122454042
1.122454004
1.122453998
1.122454025
1.122454084
1.122454175
1.122454296
1.122454445
1.12245462
1.122454817
1.122455032
1.122455262
1.122455502
1.12245575
1.122456001
1.122456251
1.122456496
1.122456735
1.122456964
1.12245718
1.122457383
1.12245757
1.12245774
1.122457893
1.122458028
1.122458146
1.122458247
1.12245833
1.122458397
1.122458449
1.122458486
1.122458509
1.122458519
1.122458515
1.1224585
1.122458472
1.122458432
1.12245838
1.122458317
1.122458241
1.122458152
1.122458052
1.122457939
1.122457813
1.122457676
1.122457528
1.122457369
1.122457202
1.122457029
1.12245685
1.12245667
1.122456491
1.122456317
1.122456151
1.122455996
1.122455858
1.12245574
1.122455645
1.122455577
1.12245554
1.122455536
1.122455567
1.122455635
1.12245574
1.122455884
1.122456065
1.122456281
1.122456532
1.122456813
1.122457123
1.122457455
1.122457808
1.122458174
1.122458551
1.122458932
1.122459314
1.12245969
1.122460057
1.122460411
1.122460748
1.122461065
1.12246136
1.12246163
1.122461874
1.122462091
1.122462282
1.122462446
1.122462584
1.122462698
1.122462788
1.122462856
1.122462903
1.122462933
1.122462945
1.122462942
1.122462926
1.122462897
1.122462857
1.122462808
1.12246275
1.122462683
1.122462609
1.122462528
1.122462441
1.122462348
1.12246225
1.122462147
1.12246204
1.122461929
1.122461816
1.122461701
1.122461586
1.122461472
1.12246136
1.122461251
1.122461148
1.122461051
1.122460963
1.122460884
1.122460816
1.12246076
1.122460718
1.122460689
1.122460676
1.122460678
1.122460696
1.122460731
1.12246078
1.122460846
1.122460926
1.122461021
1.122461128
1.122461248
1.122461379
1.122461519
1.122461667
1.122461821
1.12246198
1.122462141
1.122462304
1.122462467
1.122462626
1.122462782
1.122462932
1.122463074
1.122463207
1.122463329
1.12246344
1.122463538
1.122463621
1.12246369
1.122463744
1.122463782
1.122463805
1.122463812
1.122463805
1.122463784
1.122463751
1.122463707
1.122463653
1.122463591
1.122463524
1.122463453
1.122463381
1.12246331
1.122463242
1.12246318
1.122463126
1.12246308
1.122463047
1.122463025
1.122463017
1.122463024
1.122463045
1.122463081
1.122463131
1.122463195
1.122463271
1.122463359
1.122463456
1.122463561
1.122463672
1.122463786
1.122463902
1.122464017
1.12246413
1.122464237
1.122464338
1.122464429
1.122464511
1.122464581
1.122464639
1.122464683
1.122464714
1.12246473
1.122464732
1.122464719
1.122464693
1.122464654
1.122464602
1.122464539
1.122464465
1.122464382
1.12246429
1.12246419
1.122464085
1.122463974
1.12246386
1.122463743
1.122463624
1.122463505
1.122463386
1.122463268
1.122463153
1.122463041
1.122462933
1.122462831
1.122462734
1.122462644
1.122462561
1.122462486
1.12246242
1.122462364
1.122462317
1.12246228
1.122462254
1.122462239
1.122462236
0.7309611729
0.7309042461
0.7307944361
0.7306365287
0.7304356921
0.7301970142
0.7299253496
0.7296250608
0.7293001139
0.728953959
0.7285896684
0.7282098004
0.7278165711
0.7274118436
0.7269971893
0.7265738678
0.7261429742
0.7257053237
0.7252615804
0.7248122815
0.7243577823
0.7238984065
0.7234343278
0.722965697
0.7224926131
0.7220152072
0.7215337191
0.7210479974
0.7205577414
0.7200627239
0.7195627651
0.7190577076
0.7185473974
0.7180316905
0.7175103994
0.716983323
0.716450244
0.7159109112
0.7153650586
0.7148124607
0.7142528963
0.7136861141
0.7131119032
0.7125299968
0.7119401737
0.7113421898
0.710735765
0.7101205957
0.7094963514
0.7088626305
0.7082211729
0.7075708802
0.7069104136
0.7062396621
0.7055584224
0.7048665029
0.7041636966
0.7034497439
0.7027244379
0.7019875958
0.7012390206
0.7004783936
0.6997053206
0.6989194598
0.698120466
0.6973080044
0.6964819912
0.6956422481
0.6947881619
0.6939193272
0.6930353925
0.6921359745
0.6912206479
0.6902891741
0.6893412274
0.6883765316
0.6873946221
0.6863952777
0.6853782269
0.6843431935
0.6832899908
0.682218265
0.6811275592
0.6800172304
0.6788868694
0.6777358961
0.6765639131
0.6753703558
0.6741608035
0.672930551
0.6716784117
0.6704037147
0.6691061255
0.667785429
0.6664411768
0.6650732124
0.6636811772
0.6622647123
0.6608221725
0.6593543797
0.6578612905
0.6563430039
0.6547996942
0.6532318046
0.6516402647
0.6500258111
0.6483886023
0.6467297039
0.6450520602
0.6433633511
0.6416595927
0.6399450138
0.6382253374
0.6365081905
0.6348035504
0.6331262479
0.631499521
0.6299538149
0.6284894399
0.6273515818
0.6261405646
0.6252701158
0.6241478067
0.6234263047
0.6222907053
0.6216502082
0.6204488117
0.6198618858
0.6185690544
0.6180328796
0.6166193839
0.6161113998
0.6145082018
0.6139521148
0.6119334441
0.6109421557
0.6074408383
0.6050461621
0.6001908456
0.5966313241
0.5907805551
0.5863224862
0.5796490529
0.5743318206
0.5668660676
0.5605235428
0.5519612267
0.5442962226
0.5343124138
0.5249758163
0.5132388953
0.5017763854
0.4880074483
0.4739835314
0.4580730485
0.4413827239
0.4240766645
0.4067619806
0.3913029555
0.3773409105
0.3694232698
0.3826143913
0.4113624852
0.4388126335
0.4622143593
0.4834886863
0.5047368046
0.5272581441
0.5517911965
0.5785846526
0.6077293055
0.6389746017
0.6718820444
0.7059921346
0.7405950456
0.7748284664
0.80815007
0.8397519013
0.8693151019
0.8963609928
0.9209198228
0.9430069797
0.962628023
0.979968934
0.9952705932
1.008816404
1.020723131
1.030949581
1.040102562
1.048313073
1.055651551
1.062266982
1.068308444
1.073813982
1.078945228
1.083702288
1.088026552
1.09187694
1.095267675
1.098244373
1.100859378
1.103161594
1.105193616
1.10699164
1.108586233
1.110003257
1.111264725
1.112389497
1.113393835
1.114291838
1.115095775
1.115816365
1.116462988
1.117043864
1.117566202
1.118036329
1.1184598
1.1188415
1.119185732
1.119496297
1.119776567
1.120029544
1.120257917
1.120464103
1.120650289
1.120818453
1.120970393
1.121107739
1.121231969
1.121344414
1.121446272
1.121538611
1.121622382
1.121698423
1.121767474
1.121830188
1.121887142
1.121938846
1.12198576
1.122028302
1.122066854
1.122101774
1.122133395
1.122162031
1.122187977
1.12221151
1.122232885
1.122252337
1.122270075
1.122286285
1.122301128
1.122314741
1.122327237
1.12233871
1.122349236
1.122358877
1.122367686
1.122375709
1.122382986
1.122389558
1.122395467
1.122400754
1.122405463
1.122409639
1.12241333
1.122416581
1.122419437
1.122421942
1.122424137
1.122426057
1.122427737
1.122429208
1.122430497
1.122431629
1.122432627
1.122433514
1.122434312
1.122435041
1.122435721
1.122436374
1.122437016
1.122437665
1.122438336
1.122439039
1.122439782
1.12244057
1.1224414
1.122442268
1.122443164
1.122444077
1.122444991
1.122445888
1.122446752
1.122447564
1.122448308
1.122448969
1.122449535
1.122449997
1.12245035
1.122450592
1.122450726
1.122450755
1.122450688
1.122450535
1.122450308
1.12245002
1.122449686
1.12244932
1.122448935
1.122448544
1.12244816
1.122447792
1.12244745
1.12244714
1.122446867
1.122446636
1.122446447
1.1224463
1.122446195
1.122446129
1.122446099
1.122446103
1.122446135
1.122446195
1.122446278
1.122446382
1.122446506
1.122446649
1.122446809
1.122446989
1.122447188
1.122447408
1.12244765
1.122447915
1.122448204
1.122448518
1.122448856
1.122449218
1.122449602
1.122450006
1.122450426
1.122450859
1.1224513
1.122451745
1.122452189
1.122452625
1.122453048
1.122453454
1.122453837
1.122454193
1.122454517
1.122454805
1.122455056
1.122455266
1.122455434
1.122455559
1.122455643
1.122455685
1.122455688
1.122455654
1.122455587
1.122455491
1.122455371
1.122455231
1.122455078
1.122454917
1.122454755
1.122454596
1.122454447
1.122454313
1.122454198
1.122454107
1.122454043
1.122454009
1.122454006
1.122454035
1.122454097
1.12245419
1.122454313
1.122454463
1.122454639
1.122454836
1.122455052
1.122455282
1.122455523
1.12245577
1.12245602
1.122456268
1.122456513
1.12245675
1.122456977
1.122457192
1.122457393
1.122457577
1.122457745
1.122457896
1.122458029
1.122458145
1.122458243
1.122458324
1.12245839
1.122458439
1.122458475
1.122458496
1.122458504
1.122458499
1.122458482
1.122458454
1.122458413
1.122458361
1.122458297
1.122458221
1.122458133
1.122458033
1.12245792
1.122457796
1.12245766
1.122457513
1.122457356
1.12245719
1.122457018
1.122456841
1.122456663
1.122456485
1.122456312
1.122456148
1.122455995
1.122455858
1.122455741
1.122455647
1.12245558
1.122455544
1.12245554
1.122455572
1.12245564
1.122455745
1.122455889
1.122456069
1.122456285
1.122456535
1.122456816
1.122457124
1.122457456
1.122457808
1.122458173
1.122458549
1.122458929
1.12245931
1.122459685
1.122460052
1.122460405
1.122460741
1.122461057
1.122461351
1.122461621
1.122461865
1.122462082
1.122462272
1.122462436
1.122462575
1.122462688
1.122462778
1.122462846
1.122462894
1.122462924
1.122462936
1.122462934
1.122462917
1.122462889
1.122462849
1.1224628
1.122462742
1.122462675
1.122462602
1.122462521
1.122462434
1.122462341
1.122462242
1.122462139
1.122462032
1.122461921
1.122461808
1.122461693
1.122461578
1.122461464
1.122461352
1.122461244
1.122461141
1.122461044
1.122460956
1.122460878
1.12246081
1.122460754
1.122460712
1.122460685
1.122460672
1.122460675
1.122460693
1.122460728
1.122460779
1.122460845
1.122460926
1.122461021
1.122461129
1.122461249
1.12246138
1.122461521
1.122461669
1.122461824
1.122461983
1.122462145
1.122462308
1.122462471
1.122462631
1.122462786
1.122462936
1.122463078
1.122463211
1.122463333
1.122463444
1.122463541
1.122463624
1.122463693
1.122463746
1.122463784
1.122463806
1.122463813
1.122463806
1.122463784
1.12246375
1.122463705
1.122463651
1.122463588
1.12246352
1.122463449
1.122463376
1.122463305
1.122463237
1.122463174
1.122463119
1.122463074
1.122463039
1.122463018
1.12246301
1.122463016
1.122463037
1.122463073
1.122463123
1.122463187
1.122463264
1.122463352
1.122463449
1.122463555
1.122463666
1.122463781
1.122463898
1.122464014
1.122464127
1.122464235
1.122464336
1.122464429
1.122464512
1.122464583
1.122464641
1.122464686
1.122464717
1.122464734
1.122464737
1.122464725
1.122464699
1.122464661
1.122464609
1.122464546
1.122464473
1.122464389
1.122464298
1.122464198
1.122464093
1.122463982
1.122463868
1.12246375
1.122463631
1.122463511
1.122463392
1.122463274
1.122463158
1.122463046
1.122462937
1.122462834
1.122462737
1.122462646
1.122462563
1.122462488
1.122462422
1.122462365
1.122462318
1.122462281
1.122462255
1.12246224
1.122462238
0.6241022351
0.6240426762
0.6239290751
0.6237667926
0.6235612669
0.6233177493
0.6230411512
0.6227359241
0.6224060575
0.6220550557
0.6216859829
0.6213014423
0.620903671
0.6204945401
0.6200756371
0.6196482376
0.6192134271
0.6187720455
0.6183247527
0.617872078
0.617414396
0.6169520106
0.6164851085
0.6160138104
0.6155382048
0.6150583436
0.6145759225
0.6140904282
0.6136005011
0.6131059822
0.6126067201
0.6121025756
0.6115934034
0.6110790515
0.6105593668
0.6100341821
0.6095032613
0.6089663362
0.6084231597
0.6078735255
0.6073172145
0.6067539929
0.6061836508
0.6056059543
0.6050206846
0.6044276253
0.6038265085
0.6032170449
0.6025989041
0.6019716863
0.6013347735
0.6006880696
0.6000315966
0.5993652422
0.5986888645
0.5980022845
0.5973052944
0.5965976604
0.5958791812
0.5951497082
0.5944093374
0.5936575619
0.5928939861
0.5921182583
0.5913300456
0.5905290251
0.5897176445
0.5888947032
0.5880581669
0.5872077608
0.5863432003
0.5854640994
0.5845693288
0.5836594981
0.5827343055
0.581793466
0.5808366502
0.5798636034
0.5788741032
0.5778679491
0.5768450089
0.5758053936
0.5747483926
0.5736733175
0.5725797848
0.5714673302
0.5703355436
0.5691838817
0.5680116564
0.5668238835
0.5656173012
0.5643900603
0.5631420798
0.5618731897
0.560583092
0.5592717324
0.5579392671
0.5565849383
0.5552084567
0.5538096023
0.5523882813
0.5509447191
0.5494791451
0.5479918367
0.546487025
0.5449660453
0.5434251348
0.5418659957
0.5402893303
0.5386967825
0.5370912597
0.5354749454
0.5338545713
0.5322363957
0.5306287448
0.5290429387
0.5274996368
0.5260141838
0.5246001238
0.5233056479
0.5220508363
0.5208928871
0.5197124068
0.5186106566
0.5174334416
0.5163321204
0.5151141703
0.5139766918
0.5126797492
0.5114791514
0.5100748811
0.5087612738
0.5071646151
0.5056209393
0.5036298653
0.5015361909
0.4986525081
0.4956048948
0.4917920249
0.4878803642
0.483269538
0.4786426988
0.473355961
0.4680426488
0.4620664481
0.4559860086
0.4491749943
0.4421551336
0.4343096924
0.4261700172
0.4171318153
0.4077177291
0.3973976967
0.386699429
0.3752743042
0.3637351087
0.3522047189
0.3415986197
0.3327808779
0.3265793303
0.324934094
0.331745229
0.3448001918
0.3591582503
0.3735967136
0.3885461564
0.4047388373
0.422776372
0.4431205815
0.4659987201
0.4914908203
0.5196345221
0.5502059267
0.5828997294
0.6172704129
0.6527051466
0.6885048144
0.7239342032
0.7583011407
0.7912034553
0.8219991139
0.8506547715
0.8769323253
0.9006703464
0.9222387316
0.9418503272
0.9595172185
0.9754406754
0.9899214112
1.003043594
1.015093615
1.026129544
1.036088645
1.045066915
1.05317121
1.060470239
1.06701237
1.072844192
1.078028224
1.082634495
1.086730834
1.090378351
1.093630628
1.096534258
1.099129699
1.101452123
1.103532234
1.105396957
1.107069971
1.108572161
1.109921982
1.111135779
1.112228031
1.113211577
1.114097802
1.114896808
1.115617556
1.116268008
1.116855242
1.117385562
1.117864596
1.118297384
1.118688449
1.119041863
1.119361304
1.119650097
1.119911254
1.120147499
1.120361298
1.120554877
1.120730236
1.120889174
1.121033296
1.121164037
1.121282673
1.121390343
1.121488059
1.121576731
1.121657176
1.121730134
1.12179628
1.121856236
1.121910572
1.121959818
1.122004465
1.122044966
1.122081736
1.122115154
1.122145562
1.122173264
1.122198532
1.1222216
1.122242672
1.122261924
1.122279507
1.12229555
1.122310169
1.122323465
1.122335529
1.122346449
1.122356306
1.122365181
1.12237315
1.12238029
1.122386675
1.122392375
1.122397459
1.12240199
1.122406026
1.12240962
1.122412823
1.122415677
1.122418223
1.122420497
1.122422532
1.122424362
1.122426015
1.12242752
1.122428906
1.122430197
1.122431419
1.122432593
1.122433739
1.122434873
1.122436006
1.122437145
1.122438293
1.122439448
1.122440604
1.122441751
1.122442877
1.122443966
1.122445003
1.122445973
1.12244686
1.122447652
1.122448338
1.122448911
1.122449366
1.122449702
1.122449923
1.122450034
1.122450044
1.122449962
1.122449801
1.122449576
1.122449299
1.122448986
1.122448651
1.122448305
1.122447963
1.122447633
1.122447324
1.122447044
1.122446798
1.12244659
1.12244642
1.12244629
1.122446198
1.122446142
1.12244612
1.122446129
1.122446166
1.122446227
1.12244631
1.122446413
1.122446535
1.122446674
1.122446831
1.122447006
1.1224472
1.122447415
1.122447651
1.12244791
1.122448193
1.1224485
1.122448833
1.122449189
1.122449567
1.122449965
1.12245038
1.122450808
1.122451244
1.122451685
1.122452123
1.122452556
1.122452976
1.122453378
1.122453758
1.122454111
1.122454433
1.12245472
1.12245497
1.122455179
1.122455348
1.122455474
1.122455559
1.122455603
1.122455609
1.122455578
1.122455515
1.122455424
1.122455309
1.122455175
1.122455028
1.122454873
1.122454717
1.122454566
1.122454424
1.122454296
1.122454189
1.122454104
1.122454047
1.122454019
1.122454022
1.122454056
1.122454122
1.122454219
1.122454346
1.122454499
1.122454677
1.122454876
1.122455093
1.122455323
1.122455564
1.12245581
1.122456058
1.122456305
1.122456547
1.122456781
1.122457005
1.122457216
1.122457413
1.122457593
1.122457757
1.122457904
1.122458032
1.122458143
1.122458237
1.122458314
1.122458375
1.122458421
1.122458453
1.122458471
1.122458476
1.122458468
1.122458449
1.122458419
1.122458377
1.122458324
1.122458259
1.122458184
1.122458096
1.122457997
1.122457886
1.122457763
1.122457629
1.122457484
1.12245733
1.122457167
1.122456998
1.122456824
1.122456649
1.122456475
1.122456305
1.122456144
1.122455994
1.12245586
1.122455745
1.122455653
1.122455588
1.122455553
1.122455551
1.122455583
1.122455652
1.122455757
1.1224559
1.12245608
1.122456296
1.122456544
1.122456824
1.12245713
1.122457461
1.12245781
1.122458174
1.122458547
1.122458926
1.122459304
1.122459678
1.122460043
1.122460394
1.122460729
1.122461044
1.122461337
1.122461606
1.122461849
1.122462066
1.122462256
1.12246242
1.122462558
1.122462672
1.122462762
1.122462831
1.122462879
1.122462909
1.122462922
1.12246292
1.122462904
1.122462875
1.122462836
1.122462787
1.122462729
1.122462663
1.122462589
1.122462508
1.122462421
1.122462328
1.122462229
1.122462126
1.122462019
1.122461908
1.122461795
1.12246168
1.122461565
1.122461451
1.122461339
1.122461232
1.122461129
1.122461033
1.122460945
1.122460867
1.1224608
1.122460746
1.122460705
1.122460678
1.122460666
1.12246067
1.12246069
1.122460726
1.122460777
1.122460845
1.122460927
1.122461023
1.122461132
1.122461254
1.122461386
1.122461527
1.122461676
1.122461832
1.122461992
1.122462154
1.122462318
1.122462481
1.122462641
1.122462797
1.122462947
1.122463089
1.122463222
1.122463344
1.122463454
1.12246355
1.122463633
1.122463701
1.122463753
1.12246379
1.122463811
1.122463817
1.122463809
1.122463786
1.122463751
1.122463705
1.122463649
1.122463585
1.122463516
1.122463443
1.122463369
1.122463297
1.122463228
1.122463164
1.122463108
1.122463062
1.122463027
1.122463005
1.122462997
1.122463003
1.122463024
1.12246306
1.12246311
1.122463174
1.122463251
1.12246334
1.122463438
1.122463545
1.122463657
1.122463773
1.122463891
1.122464009
1.122464123
1.122464233
1.122464336
1.12246443
1.122464514
1.122464587
1.122464647
1.122464693
1.122464726
1.122464744
1.122464748
1.122464737
1.122464713
1.122464675
1.122464624
1.122464562
1.122464489
1.122464406
1.122464314
1.122464215
1.122464109
1.122463999
1.122463884
1.122463766
1.122463646
1.122463525
1.122463405
1.122463286
1.122463169
1.122463056
1.122462947
1.122462842
1.122462744
1.122462652
1.122462568
1.122462492
1.122462425
1.122462367
1.12246232
1.122462282
1.122462256
1.12246224
1.122462238
0.5533255842
0.5532663948
0.553154274
0.5529949896
0.5527940588
0.5525566671
0.5522875954
0.55199116
0.5516712044
0.5513311013
0.5509737798
0.5506017483
0.5502171442
0.5498217652
0.5494171214
0.5490044596
0.5485848082
0.5481589723
0.5477275749
0.5472911148
0.5468499596
0.5464043803
0.5459545692
0.5455006214
0.5450425859
0.5445804397
0.5441157026
0.5436479103
0.5431758523
0.5426994436
0.5422185631
0.5417330781
0.5412428493
0.5407477367
0.5402476211
0.5397424788
0.5392319485
0.5387157412
0.5381936431
0.5376654632
0.5371309969
0.5365900302
0.5360423615
0.5354877849
0.5349260936
0.5343570992
0.533780571
0.5331962374
0.5326038144
0.5320030122
0.5313935498
0.5307752314
0.5301476868
0.5295104227
0.5288638078
0.5282076567
0.5275417647
0.5268658994
0.5261798267
0.5254833103
0.5247799084
0.5240662205
0.5233416053
0.5226056658
0.5218581004
0.5210986098
0.5203267893
0.5195424256
0.5187453787
0.5179354278
0.5171123354
0.5162758716
0.5154258056
0.5145618259
0.5136836427
0.5127909803
0.5118835597
0.5109611357
0.5100234997
0.5090705576
0.5081020727
0.5071223032
0.5061274897
0.5051160422
0.5040876507
0.503041976
0.5019786671
0.5008973385
0.4997975783
0.4986788822
0.4975412493
0.4963847278
0.4952094725
0.494015413
0.49280199
0.4915698283
0.4903243337
0.4890588007
0.4877731392
0.4864673076
0.4851395325
0.4837916663
0.4824241341
0.4810372998
0.4796307722
0.4782048974
0.4767608175
0.4753082377
0.4738397876
0.4723573301
0.4708633143
0.4693610768
0.4678540409
0.4663467616
0.4648452119
0.4633568618
0.4618974698
0.4604719578
0.4590882432
0.4577546027
0.4564514858
0.4551811661
0.4539128764
0.4526544411
0.451370172
0.4500825301
0.4487513016
0.4473992571
0.4459768187
0.4445172183
0.4429545578
0.441326872
0.4395487106
0.4376597827
0.4355235246
0.4331545813
0.4303984878
0.4273527524
0.4239223322
0.4202239423
0.4161794258
0.4119000674
0.4072889437
0.4024546641
0.3972703748
0.3918234513
0.3859908472
0.3798429071
0.3732598055
0.3663259435
0.3589352292
0.3511891353
0.3430248351
0.3345987869
0.3259518591
0.3173671612
0.3090968549
0.3016430893
0.2955220995
0.2913277221
0.2900260259
0.2927979104
0.298937845
0.3070238052
0.3164516438
0.3272823178
0.3397555964
0.3541770952
0.3707931519
0.3898256403
0.4113871118
0.4355244973
0.4621823545
0.4912887107
0.5225141506
0.5555116655
0.5898235408
0.6248531888
0.6599675281
0.6946113061
0.7282285085
0.7602514075
0.7908188415
0.8194700463
0.8463597148
0.8714175054
0.8945454155
0.9160294656
0.9358063333
0.9538369484
0.9702541783
0.985180622
0.9987016698
1.011021473
1.022186225
1.032254861
1.041315323
1.049454549
1.056758403
1.063311167
1.069191703
1.074470866
1.079211908
1.083471354
1.087299653
1.0907417
1.093837539
1.096622998
1.099130111
1.101387539
1.103420913
1.105253202
1.106904957
1.108394561
1.109738455
1.11095134
1.11204636
1.11303527
1.113928586
1.114735725
1.115465131
1.116124393
1.116720334
1.117259108
1.117746271
1.118186844
1.118585371
1.118945961
1.119272329
1.119567826
1.119835477
1.120077997
1.120297827
1.120497151
1.120677927
1.120841907
1.120990658
1.121125592
1.121247976
1.121358961
1.121459591
1.121550818
1.121633515
1.121708485
1.121776461
1.12183812
1.121894077
1.121944894
1.121991078
1.122033085
1.122071321
1.122106146
1.122137876
1.122166792
1.122193137
1.122217127
1.122238953
1.122258788
1.122276787
1.122293095
1.122307844
1.122321163
1.122333171
1.122343982
1.122353703
1.122362438
1.12237028
1.122377318
1.122383635
1.122389302
1.122394389
1.122398956
1.122403059
1.122406747
1.122410067
1.122413063
1.122415775
1.122418241
1.122420498
1.12242258
1.122424519
1.122426342
1.122428076
1.122429741
1.122431355
1.122432928
1.122434468
1.122435977
1.122437452
1.122438887
1.122440273
1.122441597
1.122442847
1.12244401
1.122445073
1.122446026
1.122446859
1.122447567
1.122448148
1.122448602
1.122448932
1.122449145
1.12244925
1.122449257
1.122449181
1.122449034
1.122448832
1.122448588
1.122448316
1.122448029
1.12244774
1.122447459
1.122447194
1.122446953
1.122446741
1.122446561
1.122446416
1.122446306
1.122446231
1.122446188
1.122446176
1.122446191
1.122446231
1.122446293
1.122446375
1.122446476
1.122446593
1.122446726
1.122446876
1.122447043
1.122447228
1.122447433
1.12244766
1.122447909
1.122448183
1.122448481
1.122448804
1.12244915
1.12244952
1.122449909
1.122450316
1.122450736
1.122451165
1.122451598
1.122452031
1.122452457
1.122452871
1.122453269
1.122453645
1.122453994
1.122454313
1.122454597
1.122454845
1.122455054
1.122455222
1.12245535
1.122455437
1.122455484
1.122455493
1.122455468
1.122455411
1.122455326
1.122455218
1.122455092
1.122454954
1.122454809
1.122454663
1.122454522
1.12245439
1.122454273
1.122454175
1.122454101
1.122454053
1.122454034
1.122454045
1.122454087
1.12245416
1.122454264
1.122454395
1.122454553
1.122454734
1.122454936
1.122455154
1.122455385
1.122455624
1.122455869
1.122456115
1.122456359
1.122456598
1.122456828
1.122457046
1.122457252
1.122457443
1.122457618
1.122457775
1.122457915
1.122458037
1.122458141
1.122458229
1.1224583
1.122458355
1.122458395
1.122458421
1.122458434
1.122458435
1.122458424
1.122458401
1.122458368
1.122458324
1.12245827
1.122458205
1.122458129
1.122458043
1.122457945
1.122457836
1.122457715
1.122457584
1.122457443
1.122457293
1.122457134
1.12245697
1.122456801
1.122456631
1.122456461
1.122456296
1.122456139
1.122455994
1.122455864
1.122455752
1.122455664
1.122455602
1.122455569
1.122455568
1.122455602
1.122455671
1.122455777
1.122455919
1.122456098
1.122456312
1.122456559
1.122456837
1.122457141
1.122457469
1.122457815
1.122458176
1.122458547
1.122458922
1.122459298
1.122459669
1.122460031
1.122460381
1.122460713
1.122461027
1.122461318
1.122461586
1.122461828
1.122462044
1.122462234
1.122462398
1.122462536
1.12246265
1.122462741
1.12246281
1.122462858
1.122462889
1.122462902
1.122462901
1.122462885
1.122462857
1.122462819
1.12246277
1.122462712
1.122462646
1.122462572
1.122462491
1.122462404
1.122462311
1.122462212
1.122462109
1.122462001
1.122461891
1.122461777
1.122461663
1.122461548
1.122461434
1.122461323
1.122461215
1.122461113
1.122461018
1.122460931
1.122460854
1.122460789
1.122460735
1.122460696
1.12246067
1.12246066
1.122460666
1.122460687
1.122460725
1.122460778
1.122460847
1.122460931
1.122461029
1.12246114
1.122461262
1.122461396
1.122461539
1.122461689
1.122461846
1.122462007
1.12246217
1.122462335
1.122462498
1.122462659
1.122462815
1.122462965
1.122463106
1.122463239
1.12246336
1.12246347
1.122463566
1.122463648
1.122463714
1.122463765
1.122463801
1.122463821
1.122463825
1.122463815
1.12246379
1.122463753
1.122463705
1.122463648
1.122463582
1.122463511
1.122463437
1.122463361
1.122463287
1.122463216
1.122463151
1.122463094
1.122463047
1.122463011
1.122462988
1.122462979
1.122462985
1.122463006
1.122463041
1.122463092
1.122463157
1.122463235
1.122463324
1.122463424
1.122463532
1.122463645
1.122463763
1.122463883
1.122464002
1.122464119
1.122464231
1.122464336
1.122464433
1.122464519
1.122464594
1.122464656
1.122464705
1.12246474
1.12246476
1.122464766
1.122464757
1.122464734
1.122464697
1.122464648
1.122464587
1.122464514
1.122464432
1.12246434
1.122464241
1.122464135
1.122464024
1.122463908
1.122463789
1.122463669
1.122463547
1.122463425
1.122463305
1.122463187