/*--------------------------------*- C++ -*----------------------------------*\
| =========                 |                                                 |
| \\      /  F ield         | OpenFOAM: The Open Source CFD Toolbox           |
|  \\    /   O peration     | Version:  v2006                                 |
|   \\  /    A nd           | Website:  www.openfoam.com                      |
|    \\/     M anipulation  |                                                 |
\*---------------------------------------------------------------------------*/
FoamFile
{
    version     2.0;
    format      ascii;
    class       volScalarField;
    location    "0.1";
    object      rho_0;
}
// * * * * * * * * * * * * * * * * * * * * * * * * * * * * * * * * * * * * * //

dimensions      [1 -3 0 0 0 0 0];


internalField   nonuniform List<scalar> 
72000
(
0.9187816981
0.9187388865
0.9186551622
0.9185340283
0.918379381
0.9181950895
0.9179848962
0.9177521579
0.9174999267
0.917230844
0.9169472926
0.9166512377
0.9163443679
0.9160281332
0.9157037173
0.9153721099
0.91503415
0.9146904503
0.9143415204
0.9139877803
0.9136294936
0.9132668934
0.9129001365
0.9125293349
0.9121545419
0.9117758619
0.9113933484
0.911006892
0.9106163601
0.9102215719
0.9098223699
0.9094186039
0.9090101356
0.908596865
0.9081786068
0.9077551677
0.9073263667
0.9068920252
0.9064518918
0.906005757
0.9055534198
0.9050946579
0.9046292791
0.9041570361
0.9036777147
0.9031910818
0.9026969175
0.9021949502
0.9016849608
0.9011667328
0.9006404735
0.9001057876
0.899562134
0.8990092632
0.8984469178
0.897874878
0.8972929431
0.8967008461
0.8960983711
0.895485327
0.8948614713
0.8942265189
0.8935800946
0.8929218962
0.8922516369
0.8915694741
0.890878425
0.8901745545
0.8894573593
0.8887263933
0.8879812953
0.8872216094
0.8864469696
0.8856569994
0.8848513067
0.8840295583
0.883191191
0.8823359576
0.8814634769
0.8805733725
0.8796653725
0.8787389195
0.8777935645
0.8768287058
0.8758438133
0.8748383238
0.8738118163
0.8727639273
0.8716956492
0.8706056123
0.8694929768
0.8683570231
0.8671971449
0.8660129974
0.8648038686
0.8635694117
0.8623090034
0.8610221086
0.8597080353
0.8583662654
0.8569964498
0.8555982893
0.8541716337
0.8527165122
0.8512330176
0.8497214282
0.8481820317
0.8466156553
0.8450239094
0.8434098295
0.8417744172
0.8401211638
0.8384553404
0.8367847502
0.8351239986
0.8334926206
0.8318994157
0.8304360201
0.8288685115
0.8281854076
0.8267921722
0.8266019371
0.8251409138
0.825313548
0.8236563846
0.8241299805
0.8222100279
0.822989132
0.820774536
0.8218983367
0.8193410436
0.8208564407
0.8178821148
0.8198413539
0.8161946059
0.8185007393
0.8122558843
0.8129428427
0.804838925
0.8041818019
0.7947341343
0.793022798
0.7823994091
0.7797137945
0.7678086358
0.7639229203
0.7503403836
0.7444633976
0.7284412935
0.7199651296
0.7004647352
0.6886048556
0.6643739865
0.6474995894
0.6176288375
0.5943377272
0.5570411695
0.5236217137
0.4920557808
0.461691929
0.4135352322
0.4368516581
0.5148924272
0.5835062969
0.6327575867
0.6692251635
0.7003408236
0.7299619758
0.7595013196
0.7893418979
0.81950639
0.8492931468
0.8784677298
0.906159274
0.9322187042
0.9560996909
0.9775463683
0.9965081275
1.013193368
1.027663406
1.040099297
1.050731552
1.059815318
1.067566917
1.074201205
1.079887888
1.08475466
1.088931907
1.09257217
1.095755312
1.098477434
1.100719745
1.102739889
1.104537267
1.106084885
1.107585816
1.10933405
1.110937301
1.112336762
1.113543795
1.114584046
1.115483237
1.116263679
1.116943891
1.117539064
1.11806168
1.118522068
1.118928845
1.119289252
1.119609408
1.119894506
1.120148959
1.120376527
1.120580414
1.120763353
1.120927683
1.121075411
1.121208279
1.121327804
1.121435327
1.121532046
1.121619045
1.121697308
1.12176774
1.121831167
1.121888346
1.121939963
1.121986634
1.122028906
1.122067256
1.122102098
1.122133784
1.122162613
1.12218884
1.122212681
1.122234327
1.12225395
1.122271709
1.122287757
1.122302246
1.122315324
1.122327139
1.122337835
1.122347549
1.122356409
1.12236453
1.122372013
1.12237894
1.122385376
1.122391369
1.122396952
1.122402143
1.122406953
1.122411384
1.122415436
1.122419109
1.122422406
1.122425332
1.122427901
1.122430129
1.122432038
1.122433657
1.122435013
1.122436137
1.12243706
1.12243781
1.122438414
1.122438897
1.122439279
1.122439578
1.122439811
1.122439992
1.122440136
1.122440255
1.122440364
1.122440477
1.122440607
1.122440768
1.122440974
1.122441235
1.122441561
1.122441957
1.122442426
1.122442966
1.12244357
1.12244423
1.122444931
1.122445657
1.12244639
1.12244711
1.122447796
1.122448432
1.122449001
1.122449487
1.122449883
1.122450179
1.122450374
1.122450468
1.122450466
1.122450375
1.122450205
1.122449968
1.122449678
1.122449348
1.122448992
1.122448625
1.122448259
1.122447905
1.122447575
1.122447275
1.122447013
1.122446792
1.122446615
1.122446483
1.122446395
1.122446349
1.122446341
1.122446368
1.122446425
1.122446507
1.12244661
1.122446731
1.122446867
1.122447014
1.122447172
1.122447338
1.122447513
1.122447699
1.122447897
1.122448108
1.122448335
1.122448578
1.122448839
1.122449119
1.122449417
1.122449733
1.122450065
1.12245041
1.122450767
1.12245113
1.122451496
1.12245186
1.122452217
1.122452563
1.122452893
1.122453202
1.122453487
1.122453743
1.122453968
1.12245416
1.122454316
1.122454436
1.12245452
1.122454567
1.122454581
1.122454562
1.122454514
1.12245444
1.122454344
1.122454232
1.122454107
1.122453976
1.122453843
1.122453715
1.122453596
1.122453492
1.122453406
1.122453344
1.122453308
1.1224533
1.122453323
1.122453377
1.122453463
1.122453579
1.122453724
1.122453896
1.122454091
1.122454307
1.122454539
1.122454784
1.122455038
1.122455296
1.122455555
1.122455811
1.12245606
1.122456301
1.12245653
1.122456745
1.122456944
1.122457128
1.122457294
1.122457444
1.122457577
1.122457693
1.122457794
1.122457881
1.122457955
1.122458017
1.122458068
1.12245811
1.122458143
1.122458168
1.122458185
1.122458195
1.122458198
1.122458193
1.122458179
1.122458157
1.122458125
1.122458081
1.122458026
1.122457957
1.122457875
1.122457778
1.122457667
1.122457541
1.122457402
1.122457249
1.122457086
1.122456914
1.122456737
1.122456556
1.122456376
1.122456202
1.122456036
1.122455884
1.122455749
1.122455637
1.122455551
1.122455495
1.122455472
1.122455484
1.122455534
1.122455624
1.122455752
1.12245592
1.122456125
1.122456366
1.12245664
1.122456944
1.122457274
1.122457626
1.122457994
1.122458375
1.122458762
1.122459151
1.122459536
1.122459914
1.12246028
1.122460631
1.122460962
1.122461271
1.122461557
1.122461816
1.122462049
1.122462254
1.122462432
1.122462583
1.122462708
1.122462807
1.122462882
1.122462935
1.122462967
1.12246298
1.122462975
1.122462954
1.122462919
1.12246287
1.12246281
1.122462739
1.122462659
1.122462571
1.122462476
1.122462375
1.122462268
1.122462158
1.122462045
1.12246193
1.122461814
1.122461699
1.122461585
1.122461474
1.122461368
1.122461267
1.122461172
1.122461085
1.122461007
1.122460938
1.12246088
1.122460834
1.122460799
1.122460776
1.122460766
1.122460767
1.122460781
1.122460807
1.122460844
1.122460892
1.12246095
1.122461018
1.122461094
1.122461178
1.122461269
1.122461366
1.122461468
1.122461575
1.122461685
1.122461798
1.122461913
1.122462029
1.122462145
1.12246226
1.122462375
1.122462487
1.122462596
1.122462701
1.122462801
1.122462896
1.122462984
1.122463066
1.122463139
1.122463204
1.12246326
1.122463306
1.122463343
1.12246337
1.122463387
1.122463395
1.122463393
1.122463383
1.122463366
1.122463341
1.122463312
1.122463279
1.122463243
1.122463206
1.122463169
1.122463135
1.122463104
1.122463078
1.122463059
1.122463048
1.122463045
1.122463052
1.122463068
1.122463096
1.122463134
1.122463182
1.122463241
1.122463308
1.122463385
1.122463469
1.12246356
1.122463656
1.122463755
1.122463857
1.12246396
1.122464062
1.122464161
1.122464257
1.122464349
1.122464433
1.122464511
1.12246458
1.122464639
1.122464689
1.122464727
1.122464755
1.12246477
1.122464774
1.122464765
1.122464744
1.122464711
1.122464667
1.122464611
1.122464543
1.122464466
1.122464378
1.122464281
1.122464176
1.122464063
1.122463944
1.12246382
1.122463692
1.122463561
1.122463429
1.122463297
1.122463167
1.122463039
1.122462916
1.1224628
1.12246269
1.12246259
1.1224625
1.122462421
1.122462355
1.122462302
1.122462264
1.12246224
1.122462233
0.7309607348
0.7309038226
0.7307940381
0.7306361578
0.7304353515
0.7301967039
0.729925072
0.7296248192
0.7292999106
0.728953797
0.7285895525
0.7282097337
0.7278165573
0.7274118862
0.7269972897
0.7265740286
0.7261431956
0.7257056042
0.725261917
0.7248126714
0.7243582195
0.7238988826
0.7234348339
0.7229662237
0.7224931507
0.7220157466
0.7215342507
0.7210485119
0.7205582326
0.7200631866
0.7195631958
0.7190581058
0.7185477649
0.7180320321
0.7175107222
0.716983636
0.7164505583
0.7159112393
0.7153654141
0.7148128562
0.7142533442
0.7136866249
0.7131124851
0.712530656
0.7119409114
0.7113430021
0.7107366454
0.7101215323
0.7094973274
0.7088636251
0.7082221642
0.7075718384
0.7069113109
0.7062404703
0.7055591133
0.7048670519
0.7041640822
0.7034499488
0.7027244516
0.701987415
0.7012386512
0.7004778444
0.6997046107
0.6989186157
0.6981195247
0.6973070023
0.6964809703
0.69564125
0.6947872349
0.693918512
0.6930347274
0.6921354885
0.6912203734
0.6902891259
0.6893414092
0.6883769385
0.6873952432
0.6863960845
0.6853791851
0.6843442599
0.6832911163
0.6822193949
0.6811286376
0.6800182015
0.6788876803
0.6777365044
0.6765642809
0.6753704565
0.6741606239
0.6729300937
0.6716776904
0.6704027622
0.6691049853
0.6677841604
0.6664398458
0.6650718961
0.6636799553
0.6622636694
0.6608213875
0.659353922
0.6578612213
0.6563433701
0.6548005245
0.6532331082
0.6516420254
0.6500279944
0.6483911535
0.6467325486
0.6450551049
0.6433664837
0.6416627007
0.639947982
0.6382280428
0.6365105197
0.6348054055
0.6331275441
0.6315001954
0.6299538121
0.6284887425
0.6273501784
0.6261384781
0.6252673807
0.6241444874
0.6234224684
0.6222864716
0.6216456903
0.6204441507
0.6198572503
0.6185646124
0.6180288275
0.616615943
0.6161087697
0.6145065867
0.6139516805
0.6119343391
0.6109444178
0.6074444672
0.6050509606
0.6001965938
0.5966376129
0.5907869881
0.5863285476
0.5796543303
0.574335946
0.56686888
0.5605250448
0.5519617135
0.5442960184
0.5343128724
0.5249853268
0.5132362428
0.5017611056
0.4879845927
0.4739493525
0.4580122838
0.4412934592
0.42401162
0.4067190285
0.391286333
0.3773890457
0.3694247185
0.3825921954
0.4113327307
0.4387797787
0.4621849563
0.4834651034
0.5047192278
0.5272458535
0.5517831662
0.5785799699
0.6077272765
0.6389748215
0.671884186
0.7059960862
0.7406006817
0.7748355557
0.8081582759
0.8397606757
0.8693238377
0.8963689895
0.9209263861
0.9430115031
0.9626300116
0.979968077
0.9952667902
1.008809794
1.020714077
1.030938696
1.040090641
1.048301034
1.055640357
1.062257545
1.068301538
1.073810163
1.078944782
1.08370521
1.088032547
1.091885468
1.095278004
1.098255669
1.100870784
1.103172316
1.10520299
1.106999181
1.108591664
1.110006512
1.11126593
1.112388938
1.113391911
1.114289002
1.115092487
1.115813042
1.116459968
1.11704138
1.117564374
1.118035168
1.118459226
1.118841365
1.119185851
1.119496479
1.119776642
1.120029384
1.120257452
1.120463324
1.120649241
1.12081723
1.120969117
1.121106543
1.121230978
1.12134373
1.121445958
1.121538691
1.121622833
1.121699187
1.121768464
1.1218313
1.121888269
1.121939893
1.121986655
1.122029
1.122067346
1.122102082
1.12213357
1.122162148
1.122188121
1.122211769
1.122233338
1.122253045
1.122271077
1.122287592
1.122302722
1.122316579
1.122329253
1.122340823
1.122351355
1.122360913
1.122369553
1.122377333
1.12238431
1.122390542
1.122396091
1.122401016
1.122405376
1.122409231
1.122412634
1.122415639
1.122418291
1.122420634
1.122422706
1.12242454
1.122426167
1.122427614
1.122428907
1.12243007
1.122431126
1.122432098
1.122433007
1.122433876
1.122434724
1.122435567
1.12243642
1.122437295
1.122438197
1.12243913
1.122440091
1.122441073
1.122442067
1.122443058
1.122444031
1.122444969
1.122445854
1.122446669
1.122447402
1.122448038
1.122448569
1.122448991
1.1224493
1.122449498
1.122449592
1.122449589
1.1224495
1.122449337
1.122449114
1.122448846
1.122448547
1.122448231
1.122447912
1.122447601
1.122447308
1.122447043
1.122446811
1.122446617
1.122446464
1.122446353
1.122446283
1.122446251
1.122446256
1.122446293
1.122446358
1.122446447
1.122446556
1.122446681
1.122446819
1.122446967
1.122447125
1.122447293
1.12244747
1.122447657
1.122447856
1.122448068
1.122448295
1.122448538
1.122448799
1.122449078
1.122449375
1.12244969
1.122450021
1.122450366
1.122450721
1.122451083
1.122451448
1.122451812
1.122452169
1.122452514
1.122452844
1.122453153
1.122453438
1.122453695
1.12245392
1.122454112
1.12245427
1.122454391
1.122454476
1.122454526
1.122454541
1.122454525
1.122454479
1.122454408
1.122454316
1.122454207
1.122454086
1.122453958
1.122453829
1.122453705
1.12245359
1.122453489
1.122453407
1.122453348
1.122453316
1.122453311
1.122453337
1.122453394
1.122453482
1.1224536
1.122453747
1.12245392
1.122454116
1.122454332
1.122454565
1.12245481
1.122455063
1.12245532
1.122455578
1.122455833
1.122456081
1.12245632
1.122456547
1.12245676
1.122456957
1.122457138
1.122457303
1.12245745
1.12245758
1.122457695
1.122457794
1.122457878
1.12245795
1.12245801
1.122458059
1.122458099
1.12245813
1.122458154
1.12245817
1.122458179
1.122458181
1.122458176
1.122458162
1.12245814
1.122458108
1.122458065
1.12245801
1.122457942
1.122457861
1.122457765
1.122457655
1.122457531
1.122457393
1.122457243
1.122457081
1.122456911
1.122456735
1.122456556
1.122456378
1.122456204
1.12245604
1.122455889
1.122455755
1.122455644
1.122455558
1.122455502
1.122455479
1.122455492
1.122455542
1.122455631
1.122455758
1.122455925
1.12245613
1.12245637
1.122456643
1.122456946
1.122457275
1.122457625
1.122457992
1.122458371
1.122458757
1.122459145
1.122459529
1.122459906
1.122460272
1.122460621
1.122460952
1.122461261
1.122461545
1.122461805
1.122462037
1.122462242
1.12246242
1.122462571
1.122462696
1.122462795
1.122462871
1.122462924
1.122462956
1.122462969
1.122462964
1.122462943
1.122462908
1.12246286
1.1224628
1.122462729
1.122462649
1.122462561
1.122462466
1.122462365
1.122462258
1.122462148
1.122462035
1.12246192
1.122461805
1.122461689
1.122461576
1.122461465
1.122461359
1.122461258
1.122461164
1.122461077
1.122461
1.122460932
1.122460875
1.122460828
1.122460794
1.122460772
1.122460762
1.122460765
1.122460779
1.122460806
1.122460844
1.122460892
1.122460951
1.122461019
1.122461096
1.122461181
1.122461272
1.12246137
1.122461473
1.12246158
1.12246169
1.122461804
1.122461919
1.122462035
1.122462151
1.122462267
1.122462381
1.122462493
1.122462602
1.122462707
1.122462807
1.122462902
1.12246299
1.12246307
1.122463143
1.122463208
1.122463263
1.122463309
1.122463345
1.122463371
1.122463387
1.122463394
1.122463392
1.122463381
1.122463363
1.122463338
1.122463308
1.122463274
1.122463237
1.122463199
1.122463162
1.122463127
1.122463096
1.12246307
1.122463051
1.122463039
1.122463036
1.122463043
1.12246306
1.122463087
1.122463125
1.122463174
1.122463233
1.122463301
1.122463378
1.122463463
1.122463554
1.122463651
1.122463751
1.122463854
1.122463957
1.12246406
1.12246416
1.122464257
1.122464349
1.122464435
1.122464513
1.122464582
1.122464643
1.122464693
1.122464732
1.12246476
1.122464776
1.12246478
1.122464771
1.122464751
1.122464718
1.122464674
1.122464617
1.12246455
1.122464472
1.122464384
1.122464287
1.122464182
1.122464069
1.12246395
1.122463825
1.122463697
1.122463566
1.122463433
1.1224633
1.12246317
1.122463042
1.122462918
1.122462801
1.122462691
1.122462591
1.1224625
1.122462421
1.122462355
1.122462302
1.122462263
1.12246224
1.122462234
0.6241018852
0.6240423395
0.6239287577
0.623766496
0.6235609938
0.6233175006
0.6230409288
0.6227357301
0.6224058943
0.6220549261
0.6216858903
0.6213013892
0.6209036602
0.6204945742
0.6200757173
0.6196483659
0.6192136033
0.6187722682
0.61832502
0.6178723865
0.6174147409
0.6169523863
0.6164855074
0.6160142258
0.615538629
0.615058769
0.6145763421
0.6140908346
0.6136008891
0.6131063476
0.6126070602
0.6121028899
0.6115936934
0.6110793208
0.6105596206
0.6100344275
0.6095035073
0.6089665919
0.6084234359
0.6078738319
0.607317561
0.6067543876
0.6061841001
0.6056064627
0.6050212528
0.6044282514
0.6038271864
0.603217766
0.6025996548
0.6019724509
0.6013355337
0.6006888045
0.6000322843
0.5993658609
0.5986893927
0.598002703
0.5973055868
0.5965978137
0.5958791873
0.5951495645
0.5944090469
0.5936571332
0.5928934337
0.592117603
0.5913293135
0.590528245
0.5897168479
0.5888939243
0.5880574401
0.5872071185
0.5863426712
0.5854637087
0.5845690961
0.5836594368
0.5827344194
0.581793752
0.5808370982
0.5798641923
0.5788748069
0.5778687357
0.5768458406
0.5758062279
0.5747491886
0.5736740325
0.5725803805
0.5714677719
0.5703358045
0.5691839425
0.5680115079
0.5668235271
0.5656167488
0.5643893363
0.5631412187
0.561872236
0.5605820968
0.5592707536
0.5579383654
0.5565841767
0.5552078941
0.5538092915
0.5523882674
0.5509450368
0.5494798145
0.5479928628
0.5464883979
0.5449677363
0.5434271001
0.5418681765
0.5402916542
0.538699168
0.5370936191
0.5354771891
0.5338566085
0.5322381416
0.5306301236
0.5290438861
0.5275001031
0.526014131
0.5245995333
0.523304518
0.5220491815
0.5208907387
0.5197098133
0.518607681
0.517430167
0.516328643
0.515110601
0.5139731585
0.5126763889
0.51147611
0.5100723194
0.5087593454
0.5071634637
0.5056206852
0.5036305969
0.5015379359
0.4986552334
0.49560848
0.491796278
0.4878850109
0.4832742704
0.478647185
0.4733598952
0.4680458002
0.4620687014
0.4559873986
0.449175704
0.4421554728
0.4343100288
0.4261703248
0.4171306891
0.4077132692
0.3973880135
0.3866818557
0.3752448219
0.3636990406
0.3521654029
0.341563291
0.3327514031
0.3265465508
0.3249050542
0.3317169073
0.3447701223
0.3591318934
0.373574447
0.388528658
0.4047257689
0.4227671012
0.4431143767
0.46599494
0.4914889574
0.5196342765
0.5502071192
0.582902262
0.6172742373
0.6527101559
0.6885108137
0.7239408572
0.7583080211
0.7912100096
0.8220047473
0.8506589449
0.8769345204
0.9006702099
0.9222360941
0.9418452013
0.9595098496
0.9754315354
0.9899111578
1.003033031
1.015083601
1.026120925
1.036082162
1.045063125
1.053170428
1.06047251
1.067017469
1.072851657
1.07803741
1.082644651
1.086741176
1.090388143
1.093639246
1.096541244
1.099134782
1.101455228
1.103533468
1.105396576
1.107068339
1.108569696
1.10991911
1.111132883
1.112225423
1.113209468
1.114096299
1.114895911
1.115617182
1.116268008
1.116855435
1.117385762
1.117864641
1.118297154
1.118687879
1.119040952
1.119360106
1.119648712
1.11990981
1.120146135
1.120360146
1.120554041
1.120729788
1.120889139
1.121033657
1.121164738
1.121283628
1.121391448
1.121489207
1.121577823
1.121658135
1.121730912
1.12179686
1.121856634
1.121910834
1.121960012
1.122004672
1.122045268
1.122082209
1.122115858
1.122146536
1.122174521
1.122200056
1.122223351
1.122244589
1.122263931
1.122281518
1.122297481
1.122311937
1.122325001
1.122336778
1.122347374
1.122356887
1.122365417
1.122373054
1.122379887
1.122385999
1.122391465
1.122396355
1.122400731
1.122404649
1.122408161
1.122411312
1.122414143
1.122416691
1.122418994
1.122421085
1.122422995
1.122424756
1.122426397
1.122427943
1.122429421
1.122430848
1.122432243
1.122433616
1.122434975
1.122436321
1.122437652
1.122438962
1.122440239
1.122441471
1.122442643
1.122443742
1.122444752
1.122445662
1.12244646
1.122447141
1.122447698
1.122448133
1.122448448
1.122448649
1.122448745
1.122448748
1.12244867
1.122448526
1.12244833
1.122448097
1.122447842
1.122447578
1.122447317
1.12244707
1.122446844
1.122446647
1.122446484
1.122446357
1.122446268
1.122446216
1.1224462
1.122446217
1.122446263
1.122446335
1.122446429
1.12244654
1.122446666
1.122446804
1.122446951
1.122447108
1.122447272
1.122447446
1.122447629
1.122447823
1.12244803
1.122448252
1.122448491
1.122448747
1.122449021
1.122449314
1.122449625
1.122449952
1.122450293
1.122450645
1.122451005
1.122451367
1.122451728
1.122452083
1.122452427
1.122452755
1.122453063
1.122453347
1.122453604
1.12245383
1.122454023
1.122454182
1.122454305
1.122454393
1.122454446
1.122454465
1.122454454
1.122454413
1.122454348
1.122454261
1.122454159
1.122454044
1.122453924
1.122453803
1.122453685
1.122453578
1.122453485
1.12245341
1.122453358
1.122453332
1.122453334
1.122453365
1.122453427
1.12245352
1.122453642
1.122453792
1.122453968
1.122454166
1.122454383
1.122454616
1.122454861
1.122455113
1.122455369
1.122455625
1.122455878
1.122456123
1.122456358
1.122456581
1.122456791
1.122456984
1.122457161
1.12245732
1.122457463
1.122457589
1.122457698
1.122457793
1.122457873
1.122457941
1.122457997
1.122458042
1.122458079
1.122458107
1.122458128
1.122458142
1.122458149
1.12245815
1.122458143
1.122458129
1.122458107
1.122458075
1.122458033
1.12245798
1.122457914
1.122457834
1.122457741
1.122457634
1.122457512
1.122457378
1.12245723
1.122457072
1.122456905
1.122456732
1.122456557
1.122456381
1.122456211
1.122456049
1.1224559
1.122455768
1.122455658
1.122455574
1.122455519
1.122455496
1.122455509
1.122455558
1.122455646
1.122455773
1.122455938
1.122456141
1.122456379
1.12245665
1.122456951
1.122457277
1.122457625
1.12245799
1.122458366
1.12245875
1.122459135
1.122459518
1.122459893
1.122460257
1.122460605
1.122460934
1.122461241
1.122461525
1.122461784
1.122462016
1.122462221
1.122462398
1.122462549
1.122462674
1.122462774
1.12246285
1.122462903
1.122462936
1.122462949
1.122462945
1.122462924
1.122462889
1.122462841
1.122462781
1.122462711
1.122462631
1.122462543
1.122462448
1.122462347
1.122462241
1.122462131
1.122462018
1.122461903
1.122461788
1.122461673
1.12246156
1.12246145
1.122461344
1.122461244
1.122461151
1.122461065
1.122460988
1.122460921
1.122460865
1.12246082
1.122460787
1.122460766
1.122460758
1.122460762
1.122460778
1.122460806
1.122460845
1.122460895
1.122460955
1.122461025
1.122461103
1.122461189
1.122461282
1.122461381
1.122461484
1.122461592
1.122461704
1.122461818
1.122461933
1.12246205
1.122462167
1.122462282
1.122462397
1.122462509
1.122462617
1.122462722
1.122462821
1.122462915
1.122463002
1.122463082
1.122463154
1.122463217
1.122463271
1.122463316
1.122463351
1.122463375
1.12246339
1.122463395
1.122463391
1.122463379
1.122463359
1.122463333
1.122463302
1.122463266
1.122463228
1.122463189
1.122463151
1.122463115
1.122463083
1.122463057
1.122463037
1.122463024
1.122463021
1.122463028
1.122463045
1.122463073
1.122463111
1.12246316
1.12246322
1.122463289
1.122463367
1.122463453
1.122463545
1.122463643
1.122463744
1.122463848
1.122463953
1.122464057
1.12246416
1.122464258
1.122464351
1.122464439
1.122464518
1.122464589
1.122464651
1.122464702
1.122464742
1.122464771
1.122464788
1.122464793
1.122464785
1.122464765
1.122464733
1.122464688
1.122464632
1.122464565
1.122464487
1.122464399
1.122464301
1.122464195
1.122464082
1.122463962
1.122463836
1.122463707
1.122463575
1.122463441
1.122463308
1.122463176
1.122463047
1.122462923
1.122462805
1.122462694
1.122462593
1.122462501
1.122462422
1.122462355
1.122462302
1.122462263
1.122462239
1.122462232
0.5533252828
0.553266106
0.5531540018
0.5529947355
0.5527938244
0.5525564537
0.5522874045
0.5519909936
0.5516710645
0.5513309904
0.5509737003
0.5506017027
0.5502171346
0.5498217936
0.549417189
0.5490045674
0.5485849561
0.5481591591
0.5477277987
0.5472913727
0.5468502477
0.5464046939
0.5459549022
0.545500968
0.5450429399
0.5445807947
0.5441160531
0.5436482502
0.5431761772
0.54269975
0.5422188489
0.5417333428
0.541243094
0.5407479643
0.5402478359
0.5397426865
0.5392321562
0.5387159566
0.5381938746
0.5376657187
0.5371312844
0.5365903562
0.5360427313
0.5354882017
0.534926558
0.5343576097
0.5337811225
0.5331968228
0.532604423
0.5320036312
0.5313941643
0.5307758247
0.5301482412
0.5295109207
0.5288642322
0.5282079921
0.5275419978
0.5268660199
0.5261798283
0.5254831907
0.52477967
0.5240658704
0.5233411554
0.5226051325
0.5218575044
0.5210979745
0.5203261404
0.5195417902
0.5187447838
0.5179348994
0.5171118969
0.5162755429
0.5154256022
0.5145617579
0.5136837137
0.5127911878
0.5118838948
0.5109615827
0.5100240376
0.5090711605
0.5081027105
0.5071229443
0.5061280997
0.5051165883
0.5040881022
0.5030423062
0.5019788549
0.5008973694
0.4997974455
0.4986785876
0.4975408037
0.4963841509
0.4952087924
0.4940146652
0.4928012159
0.4915690731
0.4903236469
0.4890582314
0.4877727338
0.4864671078
0.4851395733
0.4837919737
0.4824247229
0.4810381726
0.4796319186
0.4782062939
0.4767624301
0.475310016
0.4738416733
0.4723592573
0.4708652121
0.4693628722
0.4678556616
0.4663481394
0.4648462855
0.4633575794
0.4618977913
0.4604718534
0.4590876983
0.4577536168
0.4564500724
0.4551793528
0.4539107049
0.4526519669
0.4513674643
0.4500796674
0.4487483811
0.4473963845
0.4459741085
0.4445147925
0.4429525409
0.4413253846
0.4395478614
0.4376596628
0.4355241926
0.4331560506
0.4304007216
0.427355655
0.4239257472
0.4202276625
0.4161832195
0.4119036814
0.4072921606
0.4024573115
0.3972723803
0.3918248389
0.3859917543
0.3798435334
0.3732603326
0.3663263279
0.3589349031
0.3511871281
0.3430197848
0.3345889046
0.3259356184
0.3173454923
0.3090716587
0.3016169033
0.2954960546
0.2913010848
0.2900003175
0.2927721165
0.29891421
0.3070031377
0.3164346358
0.3272690489
0.3397456897
0.3541700114
0.3707883417
0.389822634
0.4113855413
0.4355241126
0.4621830143
0.491290354
0.5225167457
0.5555151417
0.5898278187
0.6248580794
0.6599727555
0.694616482
0.7282331761
0.7602551227
0.7908211492
0.8194705821
0.8463582533
0.8714139563
0.8945398947
0.9160223088
0.9357980264
0.953828145
0.9702456165
0.9851730495
0.9986957636
1.011017763
1.022185045
1.032256311
1.041319261
1.049460617
1.056766069
1.06331979
1.069200599
1.074479382
1.07921948
1.08347756
1.087304236
1.090744576
1.093838789
1.096622842
1.099128865
1.101385573
1.103418603
1.10525089
1.106902915
1.108392971
1.109737401
1.110950811
1.112046266
1.113035462
1.113928887
1.114735956
1.11546514
1.116124069
1.116719625
1.117258022
1.117744871
1.118185239
1.118583698
1.118944367
1.119270952
1.11956678
1.119834838
1.120077799
1.120298057
1.120497757
1.120678826
1.120842994
1.120991826
1.121126738
1.121249019
1.121359844
1.121460289
1.12155134
1.121633897
1.121708785
1.121776753
1.12183848
1.121894577
1.121945593
1.121992013
1.12203427
1.122072745
1.122107774
1.122139654
1.122168649
1.122194996
1.122218908
1.122240582
1.122260199
1.12227793
1.122293935
1.122308365
1.122321363
1.122333062
1.122343587
1.122353055
1.122361572
1.122369234
1.122376129
1.122382336
1.122387926
1.122392964
1.122397508
1.122401612
1.122405326
1.122408697
1.122411768
1.122414582
1.122417177
1.122419589
1.12242185
1.122423987
1.122426023
1.122427977
1.122429861
1.122431683
1.122433443
1.122435141
1.12243677
1.12243832
1.122439781
1.122441142
1.122442391
1.122443519
1.122444517
1.12244538
1.122446107
1.122446697
1.122447156
1.122447491
1.122447711
1.122447829
1.122447858
1.122447813
1.122447709
1.12244756
1.122447383
1.122447189
1.122446991
1.1224468
1.122446625
1.122446472
1.122446348
1.122446254
1.122446192
1.122446163
1.122446166
1.122446197
1.122446253
1.122446332
1.12244643
1.122446543
1.122446669
1.122446805
1.122446948
1.1224471
1.122447258
1.122447424
1.1224476
1.122447787
1.122447986
1.1224482
1.122448431
1.122448679
1.122448946
1.122449232
1.122449536
1.122449857
1.122450192
1.122450539
1.122450893
1.122451251
1.122451608
1.12245196
1.122452301
1.122452627
1.122452933
1.122453217
1.122453473
1.1224537
1.122453894
1.122454055
1.122454181
1.122454273
1.12245433
1.122454355
1.12245435
1.122454317
1.122454259
1.122454182
1.122454088
1.122453984
1.122453874
1.122453763
1.122453657
1.12245356
1.122453478
1.122453414
1.122453372
1.122453356
1.122453367
1.122453407
1.122453477
1.122453576
1.122453704
1.122453859
1.122454038
1.122454239
1.122454459
1.122454692
1.122454937
1.122455188
1.122455442
1.122455696
1.122455944
1.122456185
1.122456416
1.122456634
1.122456837
1.122457024
1.122457194
1.122457347
1.122457483
1.122457602
1.122457705
1.122457793
1.122457867
1.122457928
1.122457978
1.122458018
1.122458049
1.122458073
1.12245809
1.122458101
1.122458105
1.122458104
1.122458096
1.122458082
1.122458059
1.122458028
1.122457988
1.122457936
1.122457873
1.122457796
1.122457707
1.122457604
1.122457486
1.122457356
1.122457214
1.12245706
1.122456898
1.12245673
1.122456559
1.122456388
1.122456222
1.122456064
1.122455918
1.122455789
1.122455682
1.122455599
1.122455545
1.122455523
1.122455536
1.122455585
1.122455671
1.122455797
1.12245596
1.12245616
1.122456395
1.122456663
1.12245696
1.122457283
1.122457627
1.122457988
1.122458361
1.122458741
1.122459124
1.122459503
1.122459875
1.122460236
1.122460582
1.122460909
1.122461215
1.122461498
1.122461755
1.122461986
1.122462191
1.122462368
1.122462519
1.122462644
1.122462744
1.12246282
1.122462874
1.122462907
1.122462921
1.122462918
1.122462898
1.122462863
1.122462816
1.122462756
1.122462686
1.122462607
1.122462519
1.122462424
1.122462323
1.122462217
1.122462108
1.122461995
1.122461881
1.122461766
1.122461651
1.122461539
1.122461429
1.122461325
1.122461225
1.122461133
1.122461048
1.122460973
1.122460908
1.122460853
1.12246081
1.122460779
1.12246076
1.122460754
1.12246076
1.122460778
1.122460808
1.12246085
1.122460902
1.122460964
1.122461036
1.122461116
1.122461204
1.122461298
1.122461399
1.122461504
1.122461613
1.122461726
1.122461841
1.122461957
1.122462074
1.122462191
1.122462307
1.122462422
1.122462533
1.122462641
1.122462745
1.122462844
1.122462937
1.122463023
1.122463101
1.122463172
1.122463233
1.122463285
1.122463328
1.122463361
1.122463383
1.122463396
1.122463399
1.122463393
1.122463378
1.122463356
1.122463328
1.122463294
1.122463257
1.122463217
1.122463176
1.122463136
1.122463099
1.122463066
1.122463038
1.122463017
1.122463004
1.122463001
1.122463007
1.122463024
1.122463052
1.122463091
1.122463141
1.122463202
1.122463272
1.122463351
1.122463439
1.122463533
1.122463633
1.122463736
1.122463842
1.122463949
1.122464056
1.12246416
1.122464261
1.122464356
1.122464446
1.122464527
1.122464601
1.122464664
1.122464717
1.122464759
1.122464789
1.122464808
1.122464813
1.122464807
1.122464787
1.122464756
1.122464712
1.122464656
1.122464588
1.12246451
1.122464421
1.122464323
1.122464216
1.122464102
1.12246398
1.122463854
1.122463723
1.12246359
1.122463454
1.12246332
1.122463186
1.122463056
1.12246293