/*--------------------------------*- C++ -*----------------------------------*\
| =========                 |                                                 |
| \\      /  F ield         | OpenFOAM: The Open Source CFD Toolbox           |
|  \\    /   O peration     | Version:  v2006                                 |
|   \\  /    A nd           | Website:  www.openfoam.com                      |
|    \\/     M anipulation  |                                                 |
\*---------------------------------------------------------------------------*/
FoamFile
{
    version     2.0;
    format      ascii;
    class       volScalarField;
    location    "0.1";
    object      T;
}
// * * * * * * * * * * * * * * * * * * * * * * * * * * * * * * * * * * * * * //

dimensions      [0 0 0 1 0 0 0];


internalField   nonuniform List<scalar> 
72000
(
366.2943509
366.311486
366.3449338
366.3933049
366.4550573
366.5286601
366.6126338
366.7056521
366.8065079
366.9141573
367.0276586
367.1462345
367.2692177
367.3960348
367.5262176
367.6593751
367.7951758
367.9333785
368.0737828
368.2162248
368.3606028
368.5068269
368.6548391
368.804599
368.9560907
369.1092772
369.2641425
369.4207363
369.5791189
369.7393689
369.9015562
370.0657483
370.2320074
370.4003807
370.5709489
370.743796
370.9190015
371.0966444
371.2768322
371.4596556
371.6452026
371.8335696
372.0248419
372.219128
372.4165219
372.6171268
372.8210448
373.0283973
373.2392864
373.4538142
373.6719096
373.8937499
374.1195777
374.3495149
374.5836877
374.8222084
375.0651818
375.3127411
375.5649988
375.8220573
376.0840415
376.3510911
376.6233871
376.9010784
377.1843089
377.4730304
377.7659841
378.0648526
378.3698767
378.6812617
378.9991865
379.3238673
379.6554934
379.9942491
380.3403353
380.6939288
381.0553125
381.424632
381.8020984
382.1879236
382.5822798
382.9854669
383.3977403
383.8194297
384.250835
384.6922802
385.1440233
385.6063038
386.0787633
386.5620883
387.0567332
387.563106
388.081563
388.6123495
389.155875
389.7123899
390.2822696
390.8658556
391.4635641
392.0757377
392.7026493
393.3445533
394.0016438
394.6740371
395.3618261
396.0650261
396.7836549
397.5174833
398.2659133
399.0276741
399.80245
400.5887393
401.3841675
402.18512
402.9846568
403.7733442
404.5468954
405.2605379
406.0279302
406.3672595
407.0547797
407.1553419
407.8796728
407.8031884
408.6273224
408.4031472
409.3606347
408.985716
410.0933063
409.5474736
410.830204
410.0894089
411.5858104
410.623258
412.463588
411.3254119
414.4858898
414.1538633
418.3172009
418.673973
423.6422353
424.5700871
430.3254053
431.8214023
438.5075838
440.7531481
448.723278
452.2805098
462.2175726
467.580754
480.6710259
489.0222756
506.7269724
519.6840976
544.9920664
566.5833505
604.1317977
642.6281093
683.8801384
727.2745867
813.5815577
762.6854699
641.5718826
565.3410727
521.9675312
494.4134214
473.3319655
454.9430427
437.9863045
422.0826563
407.1202787
393.3381766
380.7002052
369.4264969
359.4024613
350.6782704
343.1946982
336.8385714
331.4360618
326.8891481
323.0804817
319.8945496
317.2225575
314.9780145
313.0824789
311.476103
310.1147916
308.9562018
307.9537408
307.0827249
306.3424442
305.736622
305.1931913
304.7119489
304.2999067
303.9013239
303.4361679
303.011104
302.641474
302.323715
302.0505818
301.8149469
301.6106973
301.4328081
301.2771964
301.1405411
301.0201231
300.9136963
300.8193895
300.7356308
300.6610898
300.5946325
300.5352872
300.4822165
300.4346955
300.3920941
300.3538626
300.3195196
300.2886426
300.2608596
300.2358422
300.2133002
300.1929761
300.1746413
300.1580925
300.1431487
300.1296481
300.1174465
300.1064147
300.0964372
300.0874102
300.0792407
300.0718454
300.065149
300.0590842
300.0535901
300.0486121
300.0441007
300.0400116
300.0363047
300.0329436
300.0298958
300.0271316
300.0246244
300.02235
300.0202866
300.0184145
300.0167157
300.0151741
300.0137751
300.0125054
300.0113529
300.0103068
300.0093572
300.0084951
300.0077126
300.0070021
300.0063571
300.0057714
300.0052397
300.004757
300.0043186
300.0039206
300.0035592
300.0032311
300.0029331
300.0026626
300.0024169
300.0021939
300.0019914
300.0018075
300.0016405
300.0014889
300.0013512
300.0012262
300.0011128
300.0010098
300.0009162
300.0008313
300.0007542
300.0006843
300.0006208
300.0005631
300.0005108
300.0004633
300.0004201
300.000381
300.0003455
300.0003133
300.000284
300.0002575
300.0002334
300.0002116
300.0001918
300.0001738
300.0001575
300.0001427
300.0001293
300.0001171
300.0001061
300.0000961
300.000087
300.0000788
300.0000713
300.0000646
300.0000584
300.0000529
300.0000479
300.0000433
300.0000392
300.0000354
300.000032
300.000029
300.0000262
300.0000237
300.0000214
300.0000193
300.0000175
300.0000158
300.0000143
300.0000129
300.0000116
300.0000105
300.0000095
300.0000085
300.0000077
300.0000069
300.0000063
300.0000056
300.0000051
300.0000046
300.0000041
300.0000037
300.0000033
300.000003
300.0000027
300.0000024
300.0000022
300.000002
300.0000018
300.0000016
300.0000014
300.0000013
300.0000012
300.000001
300.0000009
300.0000008
300.0000007
300.0000007
300.0000006
300.0000005
300.0000005
300.0000004
300.0000004
300.0000003
300.0000003
300.0000003
300.0000002
300.0000002
300.0000002
300.0000002
300.0000002
300.0000001
300.0000001
300.0000001
300.0000001
300.0000001
300.0000001
300.0000001
300.0000001
300.0000001
300
300
300
300
300
300
300
300
300
300
300
300
300
300
300
300
300
300
300
300
300
300
300
300
300
300
300
300
300
300
300
300
300
300
300
300
300
300
300
300
300
300
300
300
300
300
300
300
300
300
300
300
300
300
300
300
300
300
300
300
300
300
300
300
300
300
300
300
300
300
300
300
300
300
300
300
300
300
300
300
300
300
300
300
300
300
300
300
300
300
300
300
300
300
300
300
300
300
300
300
300
300
300
300
300
300
300
300
300
300
300
300
300
300
300
300
300
300
300
300
300
300
300
300
300
300
300
300
300
300
300
300
300
300
300
300
300
300
300
300
300
300
300
300
300
300
300
300
300
300
300
300
300
300
300
300
300
300
300
300
300
300
300
300
300
300
300
300
300
300
300
300
300
300
300
300
300
300
300
300
300
300
300
300
300
300
300
300
300
300
300
300
300
300
300
300
300
300
300
300
300
300
300
300
300
300
300
300
300
300
300
300
300
300
300
300
300
300
300
300
300
300
300
300
300
300
300
300
300
460.3560249
460.391897
460.4610466
460.560492
460.6870174
460.8374605
461.0088055
461.1983441
461.4036143
461.6224747
461.8530176
462.0936554
462.3430124
462.5999323
462.86344
463.1327556
463.4072004
463.6862723
463.9695637
464.2567463
464.547608
464.8419558
465.1396923
465.4407346
465.7450324
466.0525148
466.3630405
466.6767198
466.9937603
467.314323
467.6385381
467.966522
468.298389
468.6342471
468.9742332
469.3184933
469.6671854
470.02049
470.378599
470.7416789
471.1098948
471.4834334
471.8624568
472.2471661
472.6377343
473.0343525
473.4372379
473.8466266
474.2627759
474.6859942
475.115163
475.5510524
475.9945986
476.4459207
476.9052014
477.3726175
477.8483573
478.3326458
478.8256739
479.3276162
479.838658
480.3590689
480.8891724
481.4292572
481.9796171
482.5405426
483.1121528
483.6946328
484.2884753
484.8940339
485.5116305
486.1416154
486.7843764
487.4401733
488.1093347
488.7921619
489.4890973
490.2004173
490.9264412
491.6674976
492.4238572
493.1959168
493.9841545
494.7891915
495.6114869
496.4516312
497.3100883
498.1874513
499.079793
499.9907313
500.9213272
501.8722728
502.8440174
503.836928
504.8515544
505.8882356
506.9474724
508.0297782
509.1367055
510.2678627
511.4235615
512.6040152
513.8093885
515.0396458
516.2943737
517.5733112
518.8766612
520.2039076
521.5530176
522.9180919
524.3025808
525.7033005
527.1157665
528.5338284
529.9492622
531.3496101
532.7150575
534.0195102
535.2613349
536.2328754
537.2691522
538.0202401
538.9873525
539.6159718
540.6002116
541.16336
542.2102998
542.7312399
543.8642009
544.3450105
545.5907925
546.051272
547.4730054
547.9813566
549.7843103
550.6890163
553.8481862
556.0446798
560.5183114
563.860279
569.4122577
573.7345965
580.298655
585.6591218
593.3191032
600.0168827
609.2559918
617.8025264
629.245422
640.3728428
654.8641098
669.7147533
688.3563723
708.5320123
732.7051314
760.0204703
790.1356222
822.8359399
854.2041528
884.2403968
900.0445658
864.7752212
801.9419889
751.6538914
714.4785564
684.2120353
656.6049736
629.6818437
602.6988694
575.6823065
548.8493271
522.6747132
497.6370358
474.0646026
452.3057004
432.6435396
415.0682932
399.6634438
386.2476435
374.7372171
364.8620589
356.4139818
349.2304152
343.1183932
337.899954
333.4107794
329.5621508
326.3272971
323.4851213
320.9771746
318.7681852
316.8026689
315.0287951
313.4297257
311.9541133
310.5988304
309.3775471
308.2986549
307.3552078
306.5320673
305.8128494
305.1826378
304.6286516
304.1401653
303.7082196
303.325313
302.9851282
302.6823089
302.4122849
302.1711343
301.9554736
301.7623698
301.5892702
301.4339453
301.2944411
301.1690407
301.0562312
300.9546765
300.8631944
300.7807362
300.7063708
300.6392697
300.5786945
300.5239868
300.474558
300.429882
300.3894877
300.3529528
300.3198986
300.289985
300.2629067
300.2383888
300.2161842
300.1960705
300.177847
300.1613333
300.1463662
300.1327987
300.1204983
300.1093449
300.0992303
300.0900567
300.0817356
300.074187
300.0673386
300.0611247
300.0554863
300.0503695
300.0457258
300.0415113
300.0376859
300.0342136
300.0310616
300.0282003
300.0256028
300.0232445
300.0211035
300.0191597
300.0173948
300.0157924
300.0143374
300.0130163
300.0118168
300.0107276
300.0097386
300.0088406
300.0080252
300.0072847
300.0066124
300.006002
300.0054477
300.0049445
300.0044875
300.0040726
300.0036959
300.0033539
300.0030434
300.0027615
300.0025056
300.0022733
300.0020624
300.0018709
300.0016971
300.0015394
300.0013962
300.0012663
300.0011483
300.0010413
300.0009442
300.0008561
300.0007761
300.0007035
300.0006377
300.000578
300.0005238
300.0004746
300.0004301
300.0003896
300.000353
300.0003197
300.0002896
300.0002622
300.0002374
300.000215
300.0001946
300.0001761
300.0001594
300.0001442
300.0001305
300.0001181
300.0001068
300.0000966
300.0000873
300.000079
300.0000714
300.0000645
300.0000583
300.0000527
300.0000476
300.000043
300.0000388
300.000035
300.0000316
300.0000285
300.0000257
300.0000232
300.0000209
300.0000189
300.000017
300.0000153
300.0000138
300.0000124
300.0000112
300.0000101
300.0000091
300.0000082
300.0000073
300.0000066
300.0000059
300.0000053
300.0000048
300.0000043
300.0000039
300.0000035
300.0000031
300.0000028
300.0000025
300.0000022
300.000002
300.0000018
300.0000016
300.0000014
300.0000013
300.0000012
300.000001
300.0000009
300.0000008
300.0000007
300.0000007
300.0000006
300.0000005
300.0000005
300.0000004
300.0000004
300.0000003
300.0000003
300.0000003
300.0000002
300.0000002
300.0000002
300.0000002
300.0000001
300.0000001
300.0000001
300.0000001
300.0000001
300.0000001
300.0000001
300.0000001
300.0000001
300
300
300
300
300
300
300
300
300
300
300
300
300
300
300
300
300
300
300
300
300
300
300
300
300
300
300
300
300
300
300
300
300
300
300
300
300
300
300
300
300
300
300
300
300
300
300
300
300
300
300
300
300
300
300
300
300
300
300
300
300
300
300
300
300
300
300
300
300
300
300
300
300
300
300
300
300
300
300
300
300
300
300
300
300
300
300
300
300
300
300
300
300
300
300
300
300
300
300
300
300
300
300
300
300
300
300
300
300
300
300
300
300
300
300
300
300
300
300
300
300
300
300
300
300
300
300
300
300
300
300
300
300
300
300
300
300
300
300
300
300
300
300
300
300
300
300
300
300
300
300
300
300
300
300
300
300
300
300
300
300
300
300
300
300
300
300
300
300
300
300
300
300
300
300
300
300
300
300
300
300
300
300
300
300
300
300
300
300
300
300
300
300
300
300
300
300
300
300
300
300
300
300
300
300
300
300
300
300
300
300
300
300
300
300
300
300
300
300
300
539.127563
539.1789918
539.2770463
539.417151
539.5946744
539.8051506
540.0444067
540.3086629
540.594532
540.8990396
541.2195841
541.5539558
541.900255
542.2568935
542.622524
542.9960658
543.3765995
543.7634168
544.1559644
544.5538012
544.9566204
545.3641766
545.7763263
546.1929841
546.6140926
547.0396267
547.4681031
547.8999918
548.3365185
548.7778466
549.2241329
549.6755244
550.132174
550.5942411
551.0618872
551.5352869
552.014679
552.5003329
552.9925007
553.4913996
553.9972605
554.5103303
555.0308371
555.5590335
556.0951618
556.6394654
557.1922386
557.7537997
558.32451
558.9048007
559.4953142
560.096204
560.7075129
561.3294133
561.9621067
562.6058326
563.2608602
563.9274855
564.6059765
565.2965524
565.9992016
566.7144871
567.4428706
568.1847756
568.9406122
569.710786
570.4930368
571.2886063
572.0995597
572.9262773
573.7691562
574.6287044
575.5061978
576.4011516
577.3140151
578.2452302
579.1952934
580.1646367
581.1536697
582.1627881
583.1923267
584.2423784
585.3138807
586.4077633
587.5246567
588.6652851
589.8303272
591.0206113
592.2371299
593.4749422
594.7376882
596.0275833
597.3450141
598.6904695
600.0645862
601.4677524
602.9001374
604.3629139
605.8567684
607.3823344
608.9401268
610.5303176
612.1530877
613.8085776
615.4925104
617.2037839
618.9470511
620.7208442
622.5248152
624.3575225
626.2160453
628.0983099
629.9966482
631.9038747
633.8101725
635.7019067
637.5539056
639.3468649
641.0632821
642.6432012
644.1822629
645.6096497
647.0710617
648.4415414
649.9116618
651.2936253
652.8278141
654.267992
655.9166948
657.4511716
659.2535862
660.9495493
663.0208597
665.0367781
667.6525537
670.4258116
674.2796491
678.4011488
683.6254678
689.0694495
695.5952092
702.2692375
710.049371
718.0435428
727.246858
736.8557385
747.9142658
759.6599399
773.2139747
787.7861031
804.5982853
822.8685579
843.8252289
866.6661689
892.3609597
919.7871836
948.6656835
976.5745291
1000.488189
1016.951179
1018.944089
995.1454852
955.9771413
917.7217212
883.1102388
850.4142846
817.8240113
784.3616502
749.6865287
714.0730839
678.0689821
642.2148345
607.2597376
573.8052571
542.3556797
513.3238552
486.9703129
463.4130738
442.6346693
424.4102285
408.659079
395.0147493
383.2785747
373.26011
364.6001776
357.066984
350.5421752
344.8618741
339.8534487
335.438729
331.4842524
327.9434473
324.8126214
322.0412191
319.5802509
317.396197
315.4642657
313.7622008
312.2648832
310.9466656
309.7839172
308.756017
307.8453192
307.0367928
306.3176255
305.6768675
305.1051132
304.594241
304.1372105
303.7278948
303.360944
303.0316696
302.7359531
302.4701678
302.2311126
302.0159565
301.8221909
301.6475895
301.4901735
301.3481813
301.2200427
301.1043566
300.9998711
300.9054666
300.8201406
300.742995
300.6732242
300.6101053
300.5529888
300.501291
300.4544868
300.4121038
300.3737164
300.3389413
300.3074328
300.2788793
300.2529997
300.2295399
300.2082709
300.1889855
300.1714966
300.1556352
300.1412481
300.1281972
300.1163571
300.1056147
300.0958675
300.0870225
300.0789958
300.0717111
300.0650995
300.0590984
300.0536513
300.0487068
300.0442182
300.0401435
300.0364443
300.0330859
300.0300369
300.0272687
300.0247554
300.0224734
300.0204015
300.0185203
300.0168123
300.0152614
300.0138533
300.0125747
300.0114139
300.0103598
300.0094028
300.0085339
300.007745
300.0070288
300.0063785
300.0057881
300.0052521
300.0047655
300.0043238
300.0039228
300.0035588
300.0032283
300.0029284
300.0026562
300.0024091
300.0021849
300.0019814
300.0017967
300.0016291
300.001477
300.001339
300.0012138
300.0011002
300.0009972
300.0009037
300.0008189
300.000742
300.0006722
300.000609
300.0005516
300.0004996
300.0004524
300.0004096
300.0003709
300.0003357
300.0003039
300.000275
300.0002489
300.0002252
300.0002037
300.0001843
300.0001666
300.0001507
300.0001362
300.0001231
300.0001113
300.0001006
300.0000909
300.0000821
300.0000741
300.0000669
300.0000604
300.0000545
300.0000492
300.0000444
300.0000401
300.0000361
300.0000326
300.0000294
300.0000265
300.0000238
300.0000215
300.0000193
300.0000174
300.0000157
300.0000141
300.0000127
300.0000114
300.0000103
300.0000092
300.0000083
300.0000074
300.0000067
300.000006
300.0000054
300.0000048
300.0000043
300.0000039
300.0000035
300.0000031
300.0000028
300.0000025
300.0000022
300.000002
300.0000018
300.0000016
300.0000014
300.0000013
300.0000011
300.000001
300.0000009
300.0000008
300.0000007
300.0000006
300.0000006
300.0000005
300.0000004
300.0000004
300.0000004
300.0000003
300.0000003
300.0000002
300.0000002
300.0000002
300.0000002
300.0000002
300.0000001
300.0000001
300.0000001
300.0000001
300.0000001
300.0000001
300.0000001
300.0000001
300
300
300
300
300
300
300
300
300
300
300
300
300
300
300
300
300
300
300
300
300
300
300
300
300
300
300
300
300
300
300
300
300
300
300
300
300
300
300
300
300
300
300
300
300
300
300
300
300
300
300
300
300
300
300
300
300
300
300
300
300
300
300
300
300
300
300
300
300
300
300
300
300
300
300
300
300
300
300
300
300
300
300
300
300
300
300
300
300
300
300
300
300
300
300
300
300
300
300
300
300
300
300
300
300
300
300
300
300
300
300
300
300
300
300
300
300
300
300
300
300
300
300
300
300
300
300
300
300
300
300
300
300
300
300
300
300
300
300
300
300
300
300
300
300
300
300
300
300
300
300
300
300
300
300
300
300
300
300
300
300
300
300
300
300
300
300
300
300
300
300
300
300
300
300
300
300
300
300
300
300
300
300
300
300
300
300
300
300
300
300
300
300
300
300
300
300
300
300
300
300
300
300
300
300
300
300
300
300
300
300
300
300
300
300
300
608.0343395
608.0993137
608.2223603
608.3972194
608.6179197
608.8788592
609.1748788
609.5013241
609.8540517
610.2294259
610.6242894
611.0359378
611.4620667
611.9007382
612.350325
612.8094846
613.2771116
613.7523437
614.2345183
614.7231082
615.2177311
615.7181113
616.2240604
616.7354986
617.252398
617.7748117
618.301046
618.8316463
619.3680101
619.9102624
620.4585702
621.0131144
621.5740844
622.1416712
622.7160431
623.2972588
623.8857688
624.4819442
625.0860698
625.698407
626.3192358
626.9488506
627.5875346
628.2355801
628.8932837
629.5609247
630.2388368
630.9274064
631.6270405
632.3381583
633.0611731
633.7963992
634.5443756
635.3058032
636.080298
636.8681751
637.6697763
638.4854807
639.3156727
640.1607433
641.0164702
641.8870741
642.7734455
643.6761852
644.5957834
645.5327338
646.4876685
647.4609891
648.4530132
649.4641653
650.4948999
651.5456704
652.6169408
653.7092904
654.8232824
655.9594733
657.1184366
658.3007146
659.5068144
660.7371066
661.9921553
663.2666747
664.565794
665.8918725
667.2456202
668.6277974
670.0391932
671.4806569
672.9530878
674.4575254
675.9943444
677.5638599
679.1662426
680.8019793
682.47225
684.1766129
685.9079443
687.6759749
689.4813069
691.3244936
693.2087071
695.1317475
697.0935413
699.0941178
701.1346284
703.2151714
705.3346775
707.4793423
709.6605361
711.8760316
714.122661
716.3958235
718.690678
721.0005132
723.3162437
725.6262156
727.9054726
730.1455801
732.3331566
734.45413
736.5385008
738.5817731
740.632891
742.6792063
744.7788493
746.8956939
749.0963682
751.3444529
753.7236113
756.1802934
758.8279898
761.6053868
764.6621577
767.9357971
771.6711643
775.8554292
780.7798434
786.2943158
792.5973626
799.5051525
807.1958106
815.4936897
824.6236397
834.4128563
845.1666504
856.7601707
869.5220042
883.377791
898.6929885
915.3852381
933.8402052
953.955249
976.0540069
999.8771516
1025.43546
1051.948466
1078.525847
1103.233421
1123.727566
1137.173459
1139.430617
1126.291261
1101.814687
1072.526343
1041.126424
1007.775996
972.2074016
934.2175759
893.9881209
851.9106061
808.6799406
765.0822179
721.9685727
680.0165989
640.0463262
602.5707995
567.9615511
536.4853815
508.2390419
483.1329828
461.0292019
441.7734657
424.8332226
410.0923166
397.1574388
385.816536
375.9087074
367.1497912
359.4396641
352.6870546
346.7555456
341.5332026
336.9366238
332.8549125
329.2405863
326.0480505
323.2279551
320.7361679
318.5328828
316.5820167
314.8517127
313.3145292
311.9468486
310.728255
309.6410653
308.6699591
307.8016062
307.0243533
306.3279976
305.7035836
305.1432378
304.6400116
304.1877694
303.7810829
303.4151419
303.0856777
302.7888962
302.521422
302.280248
302.0626924
301.866361
301.6891143
301.5290386
301.3844207
301.2537254
301.1355765
301.0287388
300.9321032
300.8446732
300.765553
300.6939365
300.6290982
300.5703849
300.5172079
300.4690366
300.4253925
300.3858439
300.3500011
300.3175125
300.2880602
300.2613572
300.2371441
300.2151863
300.1952718
300.1772086
300.1608233
300.1459587
300.1324727
300.1202364
300.1091335
300.0990582
300.0899149
300.081617
300.0740859
300.0672504
300.0610462
300.0554145
300.0503026
300.0456621
300.0414497
300.0376256
300.034154
300.0310023
300.0281412
300.0255436
300.0231854
300.0210445
300.0191008
300.0173361
300.0157341
300.0142797
300.0129593
300.0117605
300.0106723
300.0096843
300.0087875
300.0079733
300.0072343
300.0065634
300.0059544
300.0054017
300.0049
300.0044446
300.0040313
300.0036562
300.0033157
300.0030068
300.0027265
300.0024721
300.0022413
300.0020318
300.0018418
300.0016694
300.001513
300.0013712
300.0012425
300.0011258
300.00102
300.000924
300.0008369
300.000758
300.0006864
300.0006216
300.0005628
300.0005094
300.0004611
300.0004173
300.0003777
300.0003417
300.0003091
300.0002796
300.0002529
300.0002287
300.0002068
300.0001869
300.0001689
300.0001527
300.0001379
300.0001246
300.0001125
300.0001016
300.0000917
300.0000828
300.0000747
300.0000674
300.0000608
300.0000549
300.0000495
300.0000446
300.0000402
300.0000362
300.0000326
300.0000294
300.0000265
300.0000238
300.0000214
300.0000193
300.0000173
300.0000156
300.000014
300.0000126
300.0000113
300.0000102
300.0000091
300.0000082
300.0000073
300.0000066
300.0000059
300.0000053
300.0000047
300.0000042
300.0000038
300.0000034
300.000003
300.0000027
300.0000024
300.0000022
300.0000019
300.0000017
300.0000015
300.0000014
300.0000012
300.0000011
300.000001
300.0000009
300.0000008
300.0000007
300.0000006
300.0000005
300.0000005
300.0000004
300.0000004
300.0000003
300.0000003
300.0000003
300.0000002
300.0000002
300.0000002
300.0000002
300.0000001
300.0000001
300.0000001
300.0000001
300.0000001
300.0000001
300.0000001
300.0000001
300
300
300
300
300
300
300
300
300
300
300
300
300
300
300
300
300
300
300
300
300
300
300
300
300
300
300
300
300
300
300
300
300
300
300
300
300
300
300
300
300
300
300
300
300
300
300
300
300
300
300
300
300
300
300
300
300
300
300
300
300
300
300
300
300
300
300
300
300
300
300
300
300
300
300
300
300
300
300
300
300
300
300
300
300
300
300
300
300
300
300
300
300
300
300
300
300
300
300
300
300
300
300
300
300
300
300
300
300
300
300
300
300
300
300
300
300
300
300
300
300
300
300
300
300
300
300
300
300
300
300
300
300
300
300
300
300
300
300
300
300
300
300
300
300
300
300
300
300
300
300
300
300
300
300
300
300
300
300
300
300
300
300
300
300
300
300
300
300
300
300
300
300
300
300
300
300
300
300
300
300
300
300
300
300
300
300
300
300
300
300
300
300
300
300
300
300
300
300
300
300
300
300
300
300
300
300
300
300
300
300
300
300
670.0779676
670.1550163
670.3002787
670.5058679
670.7645164
671.069558
671.4149454
671.7952633
672.2057206
672.6421294
673.1008653
673.5788235
674.0733622
674.5822621
675.1036643
675.6360167
676.1779815
676.7286341
677.2872381
677.853201
678.4260788
679.0055574
679.5914373
680.1836335
680.7821297
681.3869839
681.9983823
682.6164231
683.2411576
683.8727299
684.5113311
685.1571767
685.8104967
686.4715301
687.1405326
687.8138177
688.4953739
689.1865781
689.8871704
690.597261
691.3171707
692.0472358
692.7877876
693.5391647
694.3016955
695.0756458
695.8612953
696.6592039
697.4698236
698.2935826
699.1308977
699.9821448
700.8476634
701.7277887
702.6229069
703.5333874
704.4596209
705.4020772
706.3612539
707.3376956
708.3320991
709.3421232
710.3669516
711.4107376
712.473933
713.556976
714.6601639
715.7841462
716.9295434
718.0968889
719.2867037
720.4995059
721.7358416
722.9963501
724.2816833
725.5924887
726.9294211
728.2931411
729.6843307
731.0993854
732.5386561
734.0074698
735.5065897
737.0366641
738.5984505
740.1927436
741.8203917
743.4822706
745.1792723
746.9122685
748.6819946
750.4905772
752.3337778
754.2086562
756.1231749
758.0784459
760.0757043
762.1152431
764.1976275
766.3234317
768.4930704
770.7067923
772.9623507
775.2515176
777.5861818
779.9663264
782.3916276
784.8616956
787.3745278
789.9275394
792.5183657
795.1304265
797.7688783
800.4335377
803.1171575
805.8081944
808.4970346
811.1736726
813.8245547
816.4405519
819.0464437
821.6532495
824.2854367
826.9556139
829.6918665
832.5032746
835.4085031
838.424773
841.5888311
844.9104717
848.4402971
852.1881667
856.2252246
860.6202531
865.4773223
870.8486131
876.8467096
883.5065193
890.8898266
898.9556547
907.7769799
917.3135373
927.6620034
938.8103567
950.8767251
963.9035439
978.0511634
993.3607712
1009.992909
1027.997722
1047.517828
1068.556756
1091.119238
1115.046403
1140.070882
1165.564489
1190.686731
1214.12473
1234.301224
1249.303417
1256.575125
1253.588694
1241.003341
1220.883065
1194.825638
1163.512414
1127.422608
1087.088044
1043.040371
996.2239076
947.4950151
897.7188874
847.8395937
798.7323222
751.2403062
706.034456
663.6399691
624.4792702
588.7554574
556.4738602
527.5470072
501.7139041
478.6651701
458.1506152
440.0779994
424.0595545
410.0189026
397.6065595
386.67001
377.0606186
368.5720553
361.0320143
354.3795233
348.5030867
343.3030376
338.6996255
334.6089665
330.9549183
327.7098645
324.8251878
322.2573454
319.9690376
317.9279596
316.1056756
314.4771765
313.0206156
311.7168308
310.5488988
309.5019049
308.5626756
307.7195949
306.9623455
306.2817888
305.6698171
305.1192275
304.6236158
304.1772775
303.7751315
303.4126459
303.0857757
302.790907
302.5248082
302.2845884
302.0676588
301.8716993
301.69463
301.5345844
301.3898869
301.2590323
301.1406676
301.0335761
300.9366631
300.8489432
300.7695288
300.6976203
300.6324969
300.5735086
300.5200692
300.4716495
300.4277719
300.3880051
300.3519594
300.319283
300.2896575
300.2627953
300.2384364
300.2163453
300.1963093
300.1781357
300.1616501
300.1466948
300.1331267
300.1208164
300.1096467
300.0995114
300.0903142
300.081968
300.0743937
300.0675196
300.0612809
300.0556185
300.0504792
300.0458145
300.0415806
300.0377374
300.034249
300.0310826
300.0282084
300.0255994
300.0232312
300.0210815
300.0191302
300.0173589
300.0157512
300.0142918
300.0129672
300.0117648
300.0106735
300.009683
300.0087839
300.007968
300.0072275
300.0065554
300.0059455
300.005392
300.0048897
300.0044339
300.0040204
300.0036451
300.0033047
300.0029958
300.0027156
300.0024613
300.0022307
300.0020216
300.0018318
300.0016598
300.0015037
300.0013622
300.0012339
300.0011175
300.001012
300.0009164
300.0008297
300.0007511
300.0006799
300.0006153
300.0005569
300.0005039
300.0004558
300.0004123
300.0003729
300.0003373
300.0003049
300.0002757
300.0002492
300.0002252
300.0002035
300.0001838
300.000166
300.0001499
300.0001354
300.0001222
300.0001103
300.0000995
300.0000898
300.000081
300.000073
300.0000659
300.0000594
300.0000535
300.0000482
300.0000434
300.0000391
300.0000352
300.0000317
300.0000285
300.0000256
300.0000231
300.0000207
300.0000186
300.0000167
300.000015
300.0000135
300.0000121
300.0000109
300.0000097
300.0000087
300.0000078
300.000007
300.0000063
300.0000056
300.000005
300.0000045
300.000004
300.0000036
300.0000032
300.0000029
300.0000026
300.0000023
300.000002
300.0000018
300.0000016
300.0000014
300.0000013
300.0000011
300.000001
300.0000009
300.0000008
300.0000007
300.0000006
300.0000006
300.0000005
300.0000004
300.0000004
300.0000003
300.0000003
300.0000003
300.0000002
300.0000002
300.0000002
300.0000002
300.0000001
300.0000001
300.0000001
300.0000001
300.0000001
300.0000001
300.0000001
300.0000001
300.0000001
300
300
300
300
300
300
300
300
300
300
300
300
300
300
300
300
300
300
300
300
300
300
300
300
300
300
300
300
300
300
300
300
300
300
300
300
300
300
300
300
300
300
300
300
300
300
300
300
300
300
300
300
300
300
300
300
300
300
300
300
300
300
300
300
300
300
300
300
300
300
300
300
300
300
300
300
300
300
300
300
300
300
300
300
300
300
300
300
300
300
300
300
300
300
300
300
300
300
300
300
300
300
300
300
300
300
300
300
300
300
300
300
300
300
300
300
300
300
300
300
300
300
300
300
300
300
300
300
300
300
300
300
300
300
300
300
300
300
300
300
300
300
300
300
300
300
300
300
300
300
300
300
300
300
300
300
300
300
300
300
300
300
300
300
300
300
300
300
300
300
300
300
300
300
300
300
300
300
300
300
300
300
300
300
300
300
300
300
300
300
300
300
300
300
300
300
300
300
300
300
300
300
300
300
300
300
300
300
300
726.9394391
727.0278617
727.1940498
727.4285408
727.7227827
728.0690609
728.4604641
728.8908562
729.3548433
729.8477316
730.3654814
730.9046251
731.46222
732.0358006
732.6233169
733.2230816
733.8305557
734.447049
735.0723854
735.7058943
736.3470777
736.9955862
737.6512005
738.3143394
738.9849876
739.6626776
740.3475101
741.0396279
741.7391941
742.446404
743.1614838
743.8846846
744.6162739
745.3565215
746.1056565
746.86428
747.6326075
748.4109102
749.1995265
749.9988084
750.8091161
751.6308228
752.4643087
753.3099656
754.168199
755.0380897
755.9172997
756.8102603
757.71738
758.6390925
759.5758465
760.5280711
761.4961783
762.4805754
763.4816722
764.4998526
765.535406
766.5890114
767.6612427
768.7526695
769.8638844
770.9955107
772.1480813
773.3219517
774.5175869
775.7355015
776.9704699
778.2267125
779.5068205
780.8113561
782.1408884
783.495953
784.8769854
786.2848739
787.720362
789.1841661
790.6770068
792.1996354
793.7528838
795.3377192
796.9550016
798.5956412
800.2693883
801.9774397
803.7226054
805.5041684
807.3227148
809.1791568
811.0744216
813.0094839
814.9852897
817.0027753
819.0551571
821.1462823
823.281387
825.4615763
827.6877851
829.9608001
832.2813739
834.6502521
837.0681536
839.5276456
842.0300087
844.5834338
847.1878797
849.8432823
852.5493776
855.3055441
858.1125741
860.9533924
863.8381353
866.7657949
869.7324534
872.7333206
875.7628451
878.8102262
881.8609534
884.9241283
887.997555
891.0836278
894.1915585
897.3347273
900.5196183
903.7757019
907.1240902
910.5827691
914.1762639
917.9097322
921.8162808
925.9301692
930.300741
934.9521355
939.9253242
945.2987238
951.1507143
957.5204668
964.5166085
972.1646634
980.4936814
989.5493897
999.3385141
1009.890081
1021.261628
1033.458915
1046.575606
1060.670893
1075.82896
1092.113519
1109.617926
1128.39268
1148.492684
1169.866236
1192.488719
1216.143255
1240.558879
1265.247492
1289.539558
1312.697911
1333.78875
1351.636097
1364.588574
1370.945937
1369.55946
1360.168275
1342.673917
1317.206418
1284.305334
1244.78519
1199.698838