/*--------------------------------*- C++ -*----------------------------------*\
| =========                 |                                                 |
| \\      /  F ield         | OpenFOAM: The Open Source CFD Toolbox           |
|  \\    /   O peration     | Version:  v2006                                 |
|   \\  /    A nd           | Website:  www.openfoam.com                      |
|    \\/     M anipulation  |                                                 |
\*---------------------------------------------------------------------------*/
FoamFile
{
    version     2.0;
    format      ascii;
    class       volScalarField;
    location    "0.1";
    object      theta1;
}
// * * * * * * * * * * * * * * * * * * * * * * * * * * * * * * * * * * * * * //

dimensions      [0 0 0 0 0 0 0];


internalField   nonuniform List<scalar> 
72000
(
100.9704646
100.9704578
100.9704449
100.9704269
100.9704044
100.9703781
100.9703485
100.970316
100.970281
100.9702437
100.9702045
100.9701636
100.9701211
100.9700772
100.9700321
100.9699858
100.9699384
100.96989
100.9698406
100.9697904
100.9697393
100.9696871
100.969634
100.9695802
100.9695257
100.9694706
100.9694148
100.9693583
100.9693013
100.9692436
100.9691853
100.9691264
100.9690669
100.9690068
100.9689461
100.9688848
100.9688229
100.9687605
100.9686975
100.968634
100.9685699
100.9685053
100.9684402
100.9683745
100.9683083
100.9682418
100.9681749
100.9681078
100.9680408
100.9679744
100.9679013
100.9678246
100.9677482
100.9676717
100.9675949
100.9675176
100.9674396
100.967361
100.9672817
100.9672017
100.9671208
100.9670392
100.966957
100.966874
100.9667903
100.9667046
100.966607
100.9665084
100.9664088
100.9663081
100.9662065
100.9661041
100.9660011
100.9658972
100.9657923
100.9656863
100.9655793
100.9654712
100.9653619
100.9652515
100.9651398
100.9650267
100.9649121
100.9647963
100.9646791
100.9645607
100.9644409
100.9643198
100.9641956
100.9640691
100.963941
100.963811
100.9636789
100.9635447
100.9634082
100.9632693
100.9631277
100.9629836
100.9628381
100.96269
100.962539
100.9623848
100.9622273
100.962066
100.9619009
100.9617317
100.961558
100.9613796
100.9611959
100.9610065
100.9608107
100.9606083
100.9603984
100.9601757
100.9599473
100.9592558
100.9615552
100.9483061
100.988813
100.911373
100.9894469
100.8702151
100.9900841
100.8252007
100.9907425
100.7777636
100.9915832
100.7263436
100.9922217
100.6680862
100.9930969
100.6005553
100.9941309
100.5151793
100.9961291
100.3577617
100.9974236
100.3297271
100.9992619
100.3255249
101
100.3235628
101
100.322852
101
100.3240048
101
100.330037
101
100.2882935
101
100.3008738
101
100.2107222
101
100.3083313
101
101
101
99.77459976
100.9291615
64.32595121
30.545172
17.79121078
12.44319335
9.700468025
7.993227481
6.778286486
5.838194901
5.07627916
4.442176535
3.908462639
3.4566355
3.073828687
2.750003858
2.477234899
2.248407925
2.057205168
1.897861557
1.765427953
1.655290888
1.563625376
1.487109456
1.423021059
1.369064932
1.323434174
1.284828284
1.252006075
1.223624123
1.198997846
1.178090652
1.160993261
1.145672005
1.132114912
1.120502508
1.10927456
1.096197151
1.084258247
1.073884454
1.064972668
1.057317244
1.050716527
1.044997841
1.040019409
1.03566615
1.031844536
1.028478051
1.025503541
1.022868427
1.020528567
1.018446623
1.016590793
1.014933833
1.013452279
1.012125827
1.010936836
1.009869919
1.00891161
1.008050092
1.007274962
1.006577042
1.005948218
1.005381295
1.004869891
1.004408325
1.00399154
1.003615024
1.003274746
1.002967102
1.002688865
1.002437143
1.002209339
1.002003126
1.001816407
1.0016473
1.001494111
1.001355311
1.001229527
1.001115517
1.001012162
1.000918452
1.000833476
1.000756409
1.000686508
1.000623097
1.00056557
1.000513376
1.000466015
1.000423036
1.000384032
1.000348633
1.000316503
1.000287338
1.000260864
1.000236832
1.000215015
1.000195208
1.000177225
1.000160899
1.000146075
1.000132616
1.000120396
1.0001093
1.000099225
1.000090077
1.000081771
1.000074229
1.00006738
1.000061162
1.000055516
1.000050389
1.000045734
1.000041507
1.00003767
1.000034186
1.000031022
1.00002815
1.000025543
1.000023176
1.000021027
1.000019076
1.000017305
1.000015698
1.000014239
1.000012915
1.000011713
1.000010622
1.000009632
1.000008734
1.000007918
1.000007179
1.000006508
1.000005899
1.000005346
1.000004845
1.00000439
1.000003978
1.000003604
1.000003265
1.000002957
1.000002678
1.000002426
1.000002196
1.000001989
1.0000018
1.000001629
1.000001475
1.000001334
1.000001207
1.000001092
1.000000988
1.000000893
1.000000808
1.00000073
1.00000066
1.000000597
1.000000539
1.000000487
1.00000044
1.000000397
1.000000359
1.000000324
1.000000292
1.000000264
1.000000238
1.000000215
1.000000194
1.000000175
1.000000157
1.000000142
1.000000128
1.000000115
1.000000104
1.000000093
1.000000084
1.000000076
1.000000068
1.000000061
1.000000055
1.000000049
1.000000044
1.00000004
1.000000036
1.000000032
1.000000029
1.000000026
1.000000023
1.000000021
1.000000019
1.000000017
1.000000015
1.000000013
1.000000012
1.000000011
1.00000001
1.000000009
1.000000008
1.000000007
1.000000006
1.000000005
1.000000005
1.000000004
1.000000004
1.000000003
1.000000003
1.000000003
1.000000002
1.000000002
1.000000002
1.000000002
1.000000001
1.000000001
1.000000001
1.000000001
1.000000001
1.000000001
1.000000001
1.000000001
1.000000001
1
1
1
1
1
1
1
1
1
1
1
1
1
1
1
1
1
1
1
1
1
1
1
1
1
1
1
1
1
1
1
1
1
1
1
1
1
1
1
1
1
1
1
1
1
1
1
1
1
1
1
1
1
1
1
1
1
1
1
1
1
1
1
1
1
1
1
1
1
1
1
1
1
1
1
1
1
1
1
1
1
1
1
1
1
1
1
1
1
1
1
1
1
1
1
1
1
1
1
1
1
1
1
1
1
1
1
1
1
1
1
1
1
1
1
1
1
1
1
1
1
1
1
1
1
1
1
1
1
1
1
1
1
1
1
1
1
1
1
1
1
1
1
1
1
1
1
1
1
1
1
1
1
1
1
1
1
1
1
1
1
1
1
1
1
1
1
1
1
1
1
1
1
1
1
1
1
1
1
1
1
1
1
1
1
1
1
1
1
1
1
1
1
1
1
1
1
1
1
1
1
1
1
1
1
1
1
1
1
1
1
1
1
1
1
1
1
1
1
1
1
99.87172141
99.87107114
99.86983578
99.86808082
99.86586797
99.86325282
99.8602856
99.85700973
99.8534633
99.84967883
99.84568475
99.84150454
99.83715802
99.83266201
99.82803042
99.82327483
99.81840512
99.81342849
99.80835088
99.80317732
99.79791164
99.79255731
99.78711725
99.78159364
99.7759876
99.77030016
99.76453179
99.75868199
99.75275004
99.74673487
99.74063526
99.73444978
99.72817684
99.72181483
99.7153615
99.70881521
99.70217547
99.69544179
99.68861205
99.68168344
99.67465341
99.66751965
99.66028036
99.65293387
99.6454795
99.63791777
99.63025181
99.62248885
99.61464325
99.60674087
99.59882513
99.5908788
99.58285927
99.57474026
99.56650155
99.55812956
99.54961535
99.54095205
99.53213403
99.52315608
99.51401334
99.50470249
99.49521946
99.48556059
99.47572286
99.46570692
99.45551537
99.44512099
99.43452125
99.42371085
99.41268597
99.40144872
99.39001275
99.37834802
99.36644124
99.35428396
99.34186718
99.3291842
99.31622587
99.30297987
99.28943082
99.27556071
99.26136304
99.24683221
99.23196123
99.21673912
99.20115613
99.18520214
99.16887846
99.15214519
99.13497907
99.11735784
99.09925552
99.08064725
99.06150711
99.04181059
99.02153055
99.00064887
98.97915292
98.95701505
98.93420943
98.91069577
98.88643141
98.86137924
98.83550469
98.80877226
98.78114052
98.75256539
98.72299707
98.69239397
98.66070434
98.62789959
98.59391379
98.5587414
98.52249513
98.48522608
98.44650869
98.40748976
98.36360192
98.32904393
98.27979638
98.24677781
98.19042311
98.15752784
98.09248612
98.05887953
97.98405306
97.94962188
97.86433802
97.8286982
97.73121768
97.69441419
97.58336704
97.54601754
97.41903505
97.3822428
97.22142526
97.16321596
96.97262386
96.8906233
96.66405726
96.55397525
96.27232022
96.13197295
95.77106212
95.61770136
95.1884494
94.95298091
94.38405016
94.03477071
93.23967016
92.72578407
91.55775396
90.78024045
88.95631784
87.58596328
84.42068405
81.57587929
78.17642101
73.55887925
63.55954497
47.32862856
33.12353115
24.85134026
19.99129005
16.83325657
14.55004062
12.7563663
11.26482069
9.981048291
8.854042152
7.854285274
6.964259137
6.172842886
5.472854444
4.858084922
4.32266444
3.860340495
3.464382189
3.126893797
2.840320669
2.597286323
2.391149398
2.216104933
2.066798455
1.939108889
1.830356303
1.73904621
1.65891074
1.588269064
1.526087972
1.470745568
1.42084828
1.375906449
1.334469151
1.296438704
1.26218995
1.231951954
1.205524407
1.182478307
1.162350842
1.144721302
1.129229608
1.115573866
1.103502108
1.092803531
1.083300725
1.074843365
1.067303269
1.060570493
1.054550235
1.049160347
1.04432937
1.039994906
1.036102295
1.032603519
1.029456278
1.026623228
1.024071326
1.021771279
1.019697072
1.017825567
1.016136148
1.014610425
1.013231973
1.011986104
1.010859669
1.009840883
1.008919179
1.008085069
1.00733003
1.006646397
1.006027277
1.005466462
1.00495836
1.004497931
1.004080631
1.003702359
1.003359414
1.003048453
1.002766457
1.002510697
1.002278706
1.002068253
1.001877321
1.001704083
1.001546886
1.001404235
1.001274774
1.001157275
1.001050628
1.000953824
1.000865951
1.000786181
1.000713765
1.000648021
1.000588332
1.000534141
1.000484939
1.000440265
1.000399703
1.000362873
1.000329432
1.000299067
1.000271495
1.00024646
1.000223727
1.000203086
1.000184343
1.000167325
1.000151873
1.000137843
1.000125104
1.000113537
1.000103035
1.000093501
1.000084845
1.000076986
1.000069851
1.000063374
1.000057495
1.000052157
1.000047313
1.000042915
1.000038924
1.000035301
1.000032014
1.00002903
1.000026322
1.000023865
1.000021636
1.000019613
1.000017778
1.000016113
1.000014602
1.000013232
1.000011989
1.000010862
1.00000984
1.000008913
1.000008072
1.00000731
1.000006619
1.000005993
1.000005425
1.00000491
1.000004444
1.000004021
1.000003638
1.000003291
1.000002977
1.000002692
1.000002435
1.000002201
1.00000199
1.000001798
1.000001625
1.000001468
1.000001326
1.000001198
1.000001081
1.000000976
1.000000881
1.000000795
1.000000717
1.000000647
1.000000584
1.000000526
1.000000474
1.000000427
1.000000385
1.000000347
1.000000312
1.000000281
1.000000253
1.000000228
1.000000205
1.000000184
1.000000166
1.000000149
1.000000134
1.00000012
1.000000108
1.000000097
1.000000087
1.000000078
1.00000007
1.000000063
1.000000056
1.00000005
1.000000045
1.00000004
1.000000036
1.000000032
1.000000029
1.000000026
1.000000023
1.00000002
1.000000018
1.000000016
1.000000015
1.000000013
1.000000012
1.00000001
1.000000009
1.000000008
1.000000007
1.000000006
1.000000006
1.000000005
1.000000004
1.000000004
1.000000004
1.000000003
1.000000003
1.000000002
1.000000002
1.000000002
1.000000002
1.000000001
1.000000001
1.000000001
1.000000001
1.000000001
1.000000001
1.000000001
1.000000001
1.000000001
1
1
1
1
1
1
1
1
1
1
1
1
1
1
1
1
1
1
1
1
1
1
1
1
1
1
1
1
1
1
1
1
1
1
1
1
1
1
1
1
1
1
1
1
1
1
1
1
1
1
1
1
1
1
1
1
1
1
1
1
1
1
1
1
1
1
1
1
1
1
1
1
1
1
1
1
1
1
1
1
1
1
1
1
1
1
1
1
1
1
1
1
1
1
1
1
1
1
1
1
1
1
1
1
1
1
1
1
1
1
1
1
1
1
1
1
1
1
1
1
1
1
1
1
1
1
1
1
1
1
1
1
1
1
1
1
1
1
1
1
1
1
1
1
1
1
1
1
1
1
1
1
1
1
1
1
1
1
1
1
1
1
1
1
1
1
1
1
1
1
1
1
1
1
1
1
1
1
1
1
1
1
1
1
1
1
1
1
1
1
1
1
1
1
1
1
1
1
1
1
1
1
1
1
1
1
1
1
1
1
1
1
99.61359525
99.61274559
99.61113851
99.60886049
99.60599139
99.60260331
99.5987604
99.59451896
99.58992801
99.58502981
99.57986055
99.57445072
99.56882601
99.56300796
99.55701468
99.55086117
99.54455982
99.53812017
99.53154973
99.52485467
99.51804004
99.5111102
99.50406872
99.49691832
99.48966065
99.48229667
99.47482812
99.46725411
99.45957239
99.45178146
99.44387973
99.4358654
99.42773625
99.4194896
99.41112225
99.40263152
99.39401731
99.38527931
99.37641427
99.3674181
99.35828704
99.34901784
99.33960774
99.33005428
99.32035566
99.31051134
99.30052337
99.29039837
99.28014997
99.26980686
99.25943787
99.24901302
99.23847585
99.22780182
99.21696071
99.20593615
99.19471737
99.18329623
99.17166573
99.15981862
99.14774536
99.13544384
99.12290934
99.11013538
99.0971154
99.08384361
99.07031519
99.05651859
99.04244304
99.02807874
99.01341601
98.99844532
98.98315762
98.96754258
98.95159048
98.9352915
98.91863522
98.90161101
98.88420741
98.86641008
98.84819576
98.82951936
98.81038453
98.79079022
98.77072537
98.75017408
98.72911948
98.70754504
98.68543747
98.66276741
98.63950444
98.61561579
98.59106329
98.56581094
98.53982785
98.51307536
98.48550116
98.45709133
98.42780194
98.39762008
98.36653353
98.33446954
98.30136567
98.26716977
98.23184044
98.19533152
98.15758941
98.11856041
98.07815889
98.03630372
97.99293672
97.94799727
97.90142316
97.8531668
97.80319089
97.75144391
97.69787201
97.64244137
97.58511292
97.52645615
97.46503345
97.4020736
97.33520149
97.26650412
97.19275999
97.11692541
97.03486341
96.9506062
96.8589782
96.76496569
96.66218034
96.5566198
96.44030241
96.32023737
96.1862893
96.04585183
95.88476429
95.71388993
95.51841405
95.30995983
95.07102301
94.8145316
94.51833806
94.19997352
93.82830615
93.43247282
92.96001157
92.4388081
91.80688563
91.09562244
90.21917439
89.21555675
87.94916868
86.46828837
84.54163395
82.22455076
79.14953416
75.45372302
70.77207277
64.51763492
55.97937384
45.90244165
37.04082482
30.66662904
26.1599449
22.82207442
20.19496452
18.01277263
16.12634481
14.45205411
12.9425969
11.57068642
10.32051605
9.18500447
8.159772682
7.241739903
6.427946534
5.713511591
5.091798453
4.554504464
4.092490438
3.696433826
3.357292609
3.068305095
2.820831311
2.606464689
2.420984021
2.259454524
2.117178185
1.991958725
1.880919555
1.781569616
1.693776549
1.61610421
1.547166042
1.48601228
1.431940417
1.38432089
1.342445013
1.305590366
1.273092046
1.244370318
1.218929478
1.196347568
1.176265158
1.158375239
1.142414242
1.128154689
1.115399472
1.103977124
1.093737978
1.08455091
1.076300773
1.068886193
1.062217714
1.056216241
1.050811702
1.045941921
1.041551637
1.037591667
1.03401818
1.030792064
1.027878379
1.025245879
1.022866593
1.020715459
1.018770004
1.017010056
1.015417499
1.01397605
1.012671064
1.011489361
1.010419074
1.009449512
1.008571035
1.007774952
1.00705342
1.006399361
1.005806383
1.005268711
1.004781129
1.004338919
1.003937818
1.003573967
1.003243877
1.00294439
1.002672647
1.002426059
1.002202282
1.001999194
1.001814871
1.00164757
1.001495712
1.001357865
1.001232731
1.001119133
1.001016006
1.00092238
1.000837378
1.000760205
1.000690137
1.00062652
1.000568759
1.000516315
1.000468697
1.000425461
1.000386205
1.000350561
1.000318198
1.000288814
1.000262134
1.00023791
1.000215917
1.000195949
1.00017782
1.000161361
1.000146419
1.000132854
1.000120539
1.00010936
1.000099212
1.00009
1.000081639
1.00007405
1.000067162
1.00006091
1.000055237
1.000050088
1.000045416
1.000041176
1.000037329
1.000033838
1.000030672
1.000027799
1.000025193
1.000022829
1.000020685
1.00001874
1.000016976
1.000015377
1.000013927
1.000012612
1.00001142
1.000010339
1.00000936
1.000008472
1.000007667
1.000006938
1.000006277
1.000005679
1.000005137
1.000004645
1.000004201
1.000003798
1.000003433
1.000003103
1.000002804
1.000002533
1.000002288
1.000002067
1.000001866
1.000001685
1.000001521
1.000001372
1.000001238
1.000001117
1.000001007
1.000000908
1.000000819
1.000000738
1.000000665
1.000000599
1.000000539
1.000000485
1.000000437
1.000000393
1.000000354
1.000000318
1.000000286
1.000000257
1.000000231
1.000000207
1.000000186
1.000000167
1.00000015
1.000000134
1.000000121
1.000000108
1.000000097
1.000000087
1.000000078
1.00000007
1.000000062
1.000000056
1.00000005
1.000000044
1.00000004
1.000000035
1.000000032
1.000000028
1.000000025
1.000000022
1.00000002
1.000000018
1.000000016
1.000000014
1.000000012
1.000000011
1.00000001
1.000000009
1.000000008
1.000000007
1.000000006
1.000000005
1.000000005
1.000000004
1.000000004
1.000000003
1.000000003
1.000000003
1.000000002
1.000000002
1.000000002
1.000000002
1.000000001
1.000000001
1.000000001
1.000000001
1.000000001
1.000000001
1.000000001
1.000000001
1
1
1
1
1
1
1
1
1
1
1
1
1
1
1
1
1
1
1
1
1
1
1
1
1
1
1
1
1
1
1
1
1
1
1
1
1
1
1
1
1
1
1
1
1
1
1
1
1
1
1
1
1
1
1
1
1
1
1
1
1
1
1
1
1
1
1
1
1
1
1
1
1
1
1
1
1
1
1
1
1
1
1
1
1
1
1
1
1
1
1
1
1
1
1
1
1
1
1
1
1
1
1
1
1
1
1
1
1
1
1
1
1
1
1
1
1
1
1
1
1
1
1
1
1
1
1
1
1
1
1
1
1
1
1
1
1
1
1
1
1
1
1
1
1
1
1
1
1
1
1
1
1
1
1
1
1
1
1
1
1
1
1
1
1
1
1
1
1
1
1
1
1
1
1
1
1
1
1
1
1
1
1
1
1
1
1
1
1
1
1
1
1
1
1
1
1
1
1
1
1
1
1
1
1
1
1
1
99.4235375
99.42256679
99.42073655
99.41814804
99.41489292
99.41105312
99.40670107
99.40190023
99.39670573
99.39116512
99.38531898
99.37920145
99.37284111
99.36626196
99.35948421
99.35252489
99.34539805
99.33811401
99.33068079
99.32310506
99.31539239
99.30754761
99.29957495
99.29147777
99.2832576
99.2749143
99.26644735
99.2578562
99.24914018
99.24029819
99.23132865
99.22222955
99.21299835
99.20363185
99.19412553
99.18447127
99.17467391
99.16473811
99.15465687
99.1444236
99.1340337
99.12348336
99.11276922
99.10188814
99.09083715
99.07961384
99.06821806
99.056654
99.04492853
99.03305127
99.02103036
99.00885514
98.99650452
98.98395962
98.97120389
98.9582243
98.94501044
98.93155409
98.91784808
98.90388558
98.88966061
98.87516733
98.86039838
98.84534336
98.82999282
98.81433769
98.79837219
98.78208571
98.7654653
98.74849914
98.73117399
98.71347326
98.69537588
98.67688105
98.65798045
98.63866313
98.61891691
98.59872927
98.57808832
98.55698595
98.53540509
98.51332159
98.49071574
98.46756871
98.44386203
98.41957415
98.39468239
98.36916385
98.34299524
98.31615082
98.28859965
98.26031058
98.23122379
98.20128558
98.1704812
98.13877989
98.1061457
98.07253534
98.03790261
98.00220229
97.96538569
97.92738667
97.88813023
97.84753903
97.80559189
97.76223551
97.71740389
97.67102175
97.62300584
97.57326796
97.52171733
97.46825129
97.41281237
97.35533496
97.29573699
97.2339213
97.16980124
97.10329398
97.03429792
96.96276873
96.8882651
96.81074634
96.72949964
96.64459369
96.5551296
96.46130284
96.36197594
96.25748168
96.1464516
96.0293547
95.90445369
95.77210386
95.62999029
95.47843998
95.31416937
95.13681915
94.94182831
94.72965418
94.49554488
94.23943791
93.95547347
93.64291123
93.29411368
92.90774511
92.47307108
91.98824241
91.43521051
90.80705102
90.07883801
89.23813671
88.24906604
87.0895721
85.7008366
84.04297501
82.01790599
79.55819739
76.51280171
72.79232822
68.18469658
62.46429969
55.62032717
48.31525366
41.69854647
36.33203431
32.08402233
28.65394319
25.78769811
23.30863936
21.10260188
19.09925107
17.25684029
15.55096964
13.97021938
12.51068132
11.17213763
9.955853151
8.861177006
7.885405631
7.023544767
6.268267495
5.610611256
5.041972413
4.548171144
4.119333068
3.746215495
3.420692543
3.13659862
2.886893009
2.668528075
2.477396794
2.309594054
2.161920778
2.031993656
1.91748965
1.816412608
1.727158549
1.648339226
1.578714196
1.517165218
1.462679326
1.414362775
1.371446137
1.33326756
1.299255224
1.26891408
1.241815408
1.217586319
1.195900939
1.176474042
1.159055336
1.143424824
1.129388393
1.116774667
1.105432061
1.095226267
1.086038113
1.077761692
1.070302793
1.063577492
1.057510954
1.052036376
1.047094061
1.042630622
1.038598262
1.034954162
1.031659929
1.028681112
1.02598678
1.023549138
1.0213432
1.01934649
1.017538775
1.015901838
1.014419264
1.013076256
1.011859473
1.010756876
1.009757601
1.00885184
1.008030734
1.007286278
1.00661124
1.005999081
1.005443885
1.004940306
1.004483504
1.004069098
1.003693126
1.003351997
1.003042462
1.002761577
1.002506676
1.002275343
1.002065388
1.001874827
1.001701862
1.001544861
1.001402348
1.00127298
1.001155543
1.001048934
1.000952152
1.00086429
1.000784525
1.00071211
1.000646367
1.000586682
1.000532495
1.0004833
1.000438638
1.000398091
1.00036128
1.000327862
1.000297524
1.000269982
1.000244979
1.000222282
1.000201678
1.000182976
1.000165999
1.000150589
1.000136602
1.000123906
1.000112384
1.000101927
1.000092437
1.000083824
1.000076009
1.000068917
1.000062482
1.000056644
1.000051346
1.000046541
1.000042181
1.000038226
1.000034639
1.000031386
1.000028435
1.000025759
1.000023332
1.000021132
1.000019137
1.000017328
1.000015689
1.000014203
1.000012856
1.000011635
1.000010529
1.000009526
1.000008618
1.000007795
1.00000705
1.000006375
1.000005764
1.00000521
1.000004709
1.000004256
1.000003845
1.000003474
1.000003137
1.000002833
1.000002558
1.000002309
1.000002084
1.00000188
1.000001696
1.00000153
1.000001379
1.000001243
1.000001121
1.00000101
1.00000091
1.000000819
1.000000738
1.000000664
1.000000597
1.000000537
1.000000483
1.000000435
1.000000391
1.000000351
1.000000315
1.000000283
1.000000254
1.000000228
1.000000205
1.000000183
1.000000164
1.000000147
1.000000132
1.000000118
1.000000106
1.000000095
1.000000085
1.000000076
1.000000068
1.00000006
1.000000054
1.000000048
1.000000043
1.000000038
1.000000034
1.00000003
1.000000027
1.000000024
1.000000021
1.000000019
1.000000017
1.000000015
1.000000013
1.000000012
1.00000001
1.000000009
1.000000008
1.000000007
1.000000006
1.000000006
1.000000005
1.000000004
1.000000004
1.000000003
1.000000003
1.000000003
1.000000002
1.000000002
1.000000002
1.000000002
1.000000001
1.000000001
1.000000001
1.000000001
1.000000001
1.000000001
1.000000001
1.000000001
1
1
1
1
1
1
1
1
1
1
1
1
1
1
1
1
1
1
1
1
1
1
1
1
1
1
1
1
1
1
1
1
1
1
1
1
1
1
1
1
1
1
1
1
1
1
1
1
1
1
1
1
1
1
1
1
1
1
1
1
1
1
1
1
1
1
1
1
1
1
1
1
1
1
1
1
1
1
1
1
1
1
1
1
1
1
1
1
1
1
1
1
1
1
1
1
1
1
1
1
1
1
1
1
1
1
1
1
1
1
1
1
1
1
1
1
1
1
1
1
1
1
1
1
1
1
1
1
1
1
1
1
1
1
1
1
1
1
1
1
1
1
1
1
1
1
1
1
1
1
1
1
1
1
1
1
1
1
1
1
1
1
1
1
1
1
1
1
1
1
1
1
1
1
1
1
1
1
1
1
1
1
1
1
1
1
1
1
1
1
1
1
1
1
1
1
1
1
1
1
1
1
1
1
1
99.27448361
99.27341268
99.27139805
99.26855384
99.26498201
99.26077288
99.25600588
99.25075032
99.24506635
99.23900588
99.23261326
99.22592537
99.21897284
99.21178143
99.20437292
99.19676609
99.18897874
99.18101989
99.17289709
99.16461727
99.15618633
99.14760943
99.13889147
99.13003831
99.12105145
99.11192816
99.10266649
99.09326615
99.08372733
99.07404915
99.06423005
99.0542679
99.04416009
99.03390357
99.0234951
99.01293224
99.00221181
98.99133104
98.9802851
98.96906912
98.95767874
98.94610995
98.93435905
98.92242241
98.91029595
98.89797318
98.88544808
98.87272789
98.85981486
98.84671002
98.83341146
98.81990942
98.80618674
98.79222605
98.77801995
98.76355769
98.74882889
98.73382605
98.71854212
98.70297016
98.6871045
98.67093522
98.6544527
98.63764684
98.62050643
98.60301744
98.5851567
98.5669219
98.54830847
98.52930504
98.5098975
98.4900699
98.46980663
98.44909719
98.42793033
98.40629305
98.38417105
98.36154942
98.33841277
98.31474471
98.29053018
98.26576144
98.2404116
98.21445356
98.18787046
98.16063169
98.13270875
98.10407401
98.0746996
98.04455656
98.01361242
97.98183013
97.94915773
97.91555723
97.8809963
97.84544103
97.80885866
97.77118913
97.73237742
97.69236479
97.65107638
97.60844852
97.564424
97.51896034
97.47199758
97.42346233
97.37327177
97.32133295
97.26756575
97.21186037
97.15412859
97.09427934
97.03221316
96.96782389
96.90098984
96.83156965
96.75942148
96.68445506
96.60653224
96.52546542
96.44094033
96.35268931
96.26027814
96.16342284
96.06162505
95.9545751
95.84167597
95.72247069
95.59620352
95.46241096
95.32014411
95.16866926
95.00663399
94.83309811
94.64607177
94.44385771
94.22395169
93.984534
93.72271549
93.43629519
93.12153997
92.77523397
92.39229668
91.96777139
91.49449467
90.96535826
90.36882528
89.69320815
88.9215535
88.03624915
87.01238041
85.82224478
84.42613477
82.78049063
80.8233132
78.48632106
75.67816943
72.30629517
68.25184087
63.4487906
58.00451394
52.32031203
46.96016959
42.25741369
38.22976408
34.76104328
31.72040405
28.99890466
26.51611822
24.21853683
22.07170246
20.0550887
18.16012419
16.38645985
14.73824207
13.21942178
11.83282573
10.57923856
9.456256432
8.458745531
7.577891791
6.799568854
6.112801744
5.508667189
4.978616883
4.514662399
4.108328198
3.752218659
3.439710665
3.165252586
2.923722197
2.710811979
2.523017875
2.357173388
2.210451504
2.080590779
1.965563284
1.863549051
1.772967327
1.692456176
1.620796527
1.556944517
1.499996425
1.449157091
1.403727418
1.363096878
1.326730107
1.294154388
1.264953201
1.238758711
1.215246619
1.194128925
1.175150568
1.158085272
1.142732046
1.128912194
1.116466552
1.105253373
1.095146228
1.086032282
1.077810728
1.070391434
1.063693769
1.057645526
1.052182009
1.047245207
1.042783072
1.038748878
1.03510065
1.031800659
1.02881498
1.026113088
1.023667506
1.021453486
1.019448733
1.017633149
1.015988612
1.014498776
1.013148889
1.011925632
1.010816982
1.009812076
1.0089011
1.008075182
1.007326303
1.006647211
1.006031346
1.005472773
1.004966121
1.004506529
1.004089597
1.003711341
1.00336815
1.003056758
1.002774203
1.002517802
1.002285123
1.002073964
1.001882327
1.001708401
1.001550545
1.00140727
1.001277227
1.001159191
1.001052051
1.000954801
1.000866527
1.000786399
1.000713665
1.000647643
1.000587713
1.000533314
1.000483935
1.000439114
1.000398429
1.000361501
1.000327981
1.000297557
1.000269943
1.00024488
1.000222133
1.000201489
1.000182752
1.000165749
1.000150319
1.000136316
1.00012361
1.000112081
1.00010162
1.000092128
1.000083517
1.000075705
1.000068618
1.000062189
1.000056357
1.000051068
1.000046271
1.000041921
1.000037975
1.000034398
1.000031154
1.000028213
1.000025547
1.00002313
1.00002094
1.000018954
1.000017155
1.000015524
1.000014047
1.000012708
1.000011495
1.000010397
1.000009402
1.000008501
1.000007685
1.000006947
1.000006278
1.000005672
1.000005125
1.000004629
1.00000418
1.000003774
1.000003407
1.000003075
1.000002775
1.000002504
1.000002258
1.000002036
1.000001836
1.000001655
1.000001491
1.000001344
1.00000121
1.00000109
1.000000981
1.000000883
1.000000794
1.000000715
1.000000643
1.000000578
1.000000519
1.000000466
1.000000419
1.000000376
1.000000338
1.000000303
1.000000272
1.000000244
1.000000218
1.000000196
1.000000175
1.000000157
1.00000014
1.000000126
1.000000112
1.0000001
1.00000009
1.00000008
1.000000071
1.000000064
1.000000057
1.000000051
1.000000045
1.00000004
1.000000036
1.000000032
1.000000028
1.000000025
1.000000022
1.00000002
1.000000018
1.000000016
1.000000014
1.000000012
1.000000011
1.00000001
1.000000008
1.000000007
1.000000007
1.000000006
1.000000005
1.000000005
1.000000004
1.000000004
1.000000003
1.000000003
1.000000002
1.000000002
1.000000002
1.000000002
1.000000001
1.000000001
1.000000001
1.000000001
1.000000001
1.000000001
1.000000001
1.000000001
1
1
1
1
1
1
1
1
1
1
1
1
1
1
1
1
1
1
1
1
1
1
1
1
1
1
1
1
1
1
1
1
1
1
1
1
1
1
1
1
1
1
1
1
1
1
1
1
1
1
1
1
1
1
1
1
1
1
1
1
1
1
1
1
1
1
1
1
1
1
1
1
1
1
1
1
1
1
1
1
1
1
1
1
1
1
1
1
1
1
1
1
1
1
1
1
1
1
1
1
1
1
1
1
1
1
1
1
1
1
1
1
1
1
1
1
1
1
1
1
1
1
1
1
1
1
1
1
1
1
1
1
1
1
1
1
1
1
1
1
1
1
1
1
1
1
1
1
1
1
1
1
1
1
1
1
1
1
1
1
1
1
1
1
1
1
1
1
1
1
1
1
1
1
1
1
1
1
1
1
1
1
1
1
1
1
1
1
1
1
1
1
1
1
1
1
1
1
1
1
1
1
99.15033018
99.14917155
99.14699577
99.14392861
99.1400814
99.13555209
99.13042633
99.12477855
99.11867323
99.11216619
99.10530658
99.09813292
99.09067662
99.0829647
99.07501982
99.0668607
99.05850254
99.04995741
99.04123491
99.03234264
99.02328672
99.01407221
99.0047035
98.99518458
98.98551726
98.97570104
98.96573506
98.9556194
98.94535397
98.93493786
98.92436942
98.9136464
98.9027661
98.89172531
98.88052015
98.86915215
98.85761306
98.84589395
98.83399203
98.82190398
98.80962559
98.79715271
98.78448145
98.77160822
98.75852992
98.74524398
98.73174799
98.71803846
98.70411146
98.68996334
98.67558923
98.66098053
98.64612553
98.63101191
98.6156283
98.59996232
98.58399782
98.56773295
98.55116101
98.53427379
98.51706243
98.49951692
98.48162748
98.46338507
98.44477858
98.42579635
98.40642953
98.38666739
98.36649656
98.34590267
98.32487031
98.3033812
98.28141105
98.2589554
98.23600179
98.21253519
98.18853909
98.16399706
98.13889236
98.11319859
98.08689718
98.05997536
98.03240935
98.00417014
97.97522258
97.94554987
97.9151261
97.88392063
97.85190252
97.81904285
97.78530911
97.75066238
97.71507667
97.6785142
97.64090653
97.60221629
97.56239509
97.52139211
97.47915276
97.43561945
97.39073203
97.34442447
97.29662821
97.24731064
97.1963901
97.14377767
97.08937774
97.03309036
96.97480234
96.9144084
96.8518267
96.78696059
96.71968678
96.6498635
96.57732897
96.50193674
96.42357798
96.34209729
96.25731418
96.16899523
96.07679358
95.98042658
95.87955361
95.77378324
95.66265227
95.54567993
95.42239596
95.29224637
95.15453629
95.00850329
94.85334678
94.68818724
94.5118603
94.32305743
94.12021462
93.90158772
93.66514735
93.4087385
93.12992347
92.8260917
92.49405012
92.13024938
91.73027054
91.28903536
90.80013223
90.25635921
89.64851596
88.96554413
88.19396577
87.31821046
86.31858238
85.17129023
83.84669584
82.31019171
80.51856929
78.41990831
75.9515501
73.05820598
69.68605229
65.81431832
61.52226812
57.02480388
52.60960937
48.48786514
44.72454023
41.29618014
38.15446064
35.24752603
32.52869455
29.96624753
27.53731396
25.22771933
23.03317585
20.9568967
19.00417483
17.18026854
15.49318501
13.94748311
12.54482701
11.28029368
10.141265
9.119273032
8.20943235
7.402886244
6.689410377
6.059075919
5.501898901
5.009352441
4.573381953
4.187109571
3.844615298
3.54055608
3.270395713
3.030226109
2.816416593
2.626043399
2.456495561
2.305354181
2.170437607
2.050018316
1.942461221
1.846318439
1.760324381
1.683375074
1.614473533
1.552745948
1.497425112
1.44782053
1.403319596
1.363376148
1.327509284
1.295286998
1.266325563
1.24028335
1.216855985
1.195772291
1.176789836
1.159692474
1.144287103
1.130401185
1.11788042
1.1065867
1.096396446
1.087198943
1.078894965
1.071395537
1.064620821
1.058499162
1.052966201
1.047964108
1.0434409
1.039349822
1.035648812
1.032300003
1.029269297
1.026525975
1.024042355
1.021793481
1.019756846
1.017912142
1.016241046
1.014727016
1.013355114
1.012111849
1.01098503
1.00996364
1.00903772
1.008198265
1.007437133
1.006746956
1.006121069
1.00555344
1.005038611
1.004571639
1.004148049
1.003763788
1.003415187
1.003098921
1.002811977
1.002551626
1.002315394
1.00210104
1.001906531
1.001730025
1.001569852
1.001424498
1.001292588
1.001172879
1.001064239
1.000965645
1.000876167
1.000794962
1.000721264
1.00065438
1.000593681
1.000538594
1.000488601
1.000443232
1.000402059
1.000364695
1.000330789
1.00030002
1.0002721
1.000246765
1.000223777
1.000202918
1.000183993
1.000166822
1.000151243
1.00013711
1.000124289
1.000112658
1.000102108
1.000092539
1.000083859
1.000075987
1.000068848
1.000062374
1.000056503
1.00005118
1.000046354
1.000041979
1.000038012
1.000034416
1.000031157
1.000028204
1.000025527
1.000023101
1.000020903
1.000018912
1.000017108
1.000015474
1.000013994
1.000012654
1.00001144
1.000010341
1.000009346
1.000008446
1.000007631
1.000006893
1.000006226
1.000005622
1.000005076
1.000004582
1.000004135
1.000003731
1.000003365
1.000003035
1.000002737
1.000002467