/*--------------------------------*- C++ -*----------------------------------*\
| =========                 |                                                 |
| \\      /  F ield         | OpenFOAM: The Open Source CFD Toolbox           |
|  \\    /   O peration     | Version:  v2006                                 |
|   \\  /    A nd           | Website:  www.openfoam.com                      |
|    \\/     M anipulation  |                                                 |
\*---------------------------------------------------------------------------*/
FoamFile
{
    version     2.0;
    format      ascii;
    class       volScalarField;
    location    "0.1";
    object      theta1_0;
}
// * * * * * * * * * * * * * * * * * * * * * * * * * * * * * * * * * * * * * //

dimensions      [0 0 0 0 0 0 0];


internalField   nonuniform List<scalar> 
72000
(
100.9704646
100.9704578
100.9704449
100.9704268
100.9704044
100.9703781
100.9703484
100.9703159
100.9702809
100.9702436
100.9702044
100.9701635
100.970121
100.9700771
100.9700319
100.9699856
100.9699382
100.9698898
100.9698405
100.9697903
100.9697392
100.969687
100.9696339
100.9695801
100.9695257
100.9694705
100.9694147
100.9693583
100.9693012
100.9692435
100.9691852
100.9691264
100.9690669
100.9690068
100.968946
100.9688847
100.9688229
100.9687604
100.9686975
100.9686339
100.9685699
100.9685053
100.9684401
100.9683745
100.9683083
100.9682417
100.9681748
100.9681077
100.9680408
100.9679744
100.9679012
100.9678245
100.9677481
100.9676717
100.9675948
100.9675175
100.9674396
100.967361
100.9672817
100.9672017
100.9671209
100.9670394
100.9669571
100.9668742
100.9667904
100.9667047
100.966607
100.9665083
100.9664086
100.9663079
100.9662064
100.966104
100.9660011
100.9658972
100.9657923
100.9656863
100.9655793
100.9654712
100.9653619
100.9652515
100.9651398
100.9650267
100.9649121
100.9647962
100.9646791
100.9645606
100.9644409
100.9643198
100.9641956
100.9640691
100.963941
100.963811
100.9636789
100.9635447
100.9634083
100.9632693
100.9631278
100.9629836
100.9628381
100.96269
100.962539
100.9623849
100.9622273
100.9620661
100.9619009
100.9617317
100.961558
100.9613795
100.9611958
100.9610064
100.9608106
100.9606082
100.9603982
100.9601755
100.959947
100.9592556
100.9615549
100.9483065
100.9888161
100.9113731
100.9894472
100.8702163
100.9900844
100.8252017
100.990743
100.777763
100.9915795
100.7263416
100.9922222
100.6680838
100.993097
100.600553
100.9941303
100.515177
100.9961223
100.3577583
100.9974215
100.3297342
100.9992602
100.3255428
101
100.3235856
101
100.3228718
101
100.3240083
101
100.3289495
101
100.336705
101
100.2663982
101
100.2852203
101
100.2109235
101
101
101
100.1637153
100.9181796
64.31052289
30.53937224
17.78990001
12.44283706
9.70035096
7.993186024
6.778276452
5.838200313
5.076292247
4.442192845
3.908478872
3.456651203
3.073842841
2.750015534
2.477243921
2.248414305
2.057209149
1.897863468
1.765428215
1.65528994
1.563623611
1.487107233
1.423018661
1.369062579
1.32343203
1.284826455
1.252004611
1.223623049
1.198997153
1.178090301
1.160993203
1.145672184
1.132115255
1.120502962
1.109275114
1.096197738
1.084258776
1.073884896
1.064973017
1.057317504
1.050716709
1.044997957
1.040019473
1.035666174
1.031844534
1.028478031
1.025503512
1.022868394
1.020528534
1.018446593
1.016590766
1.014933811
1.013452261
1.012125813
1.010936824
1.009869909
1.008911602
1.008050085
1.007274957
1.006577039
1.005948215
1.005381294
1.00486989
1.004408325
1.003991541
1.003615026
1.003274748
1.002967105
1.002688868
1.002437145
1.002209342
1.002003128
1.001816409
1.001647302
1.001494112
1.001355313
1.001229528
1.001115517
1.001012162
1.000918453
1.000833476
1.00075641
1.000686508
1.000623098
1.000565571
1.000513376
1.000466015
1.000423037
1.000384033
1.000348633
1.000316503
1.000287338
1.000260865
1.000236832
1.000215015
1.000195208
1.000177225
1.000160899
1.000146075
1.000132616
1.000120396
1.0001093
1.000099225
1.000090077
1.000081771
1.000074229
1.00006738
1.000061162
1.000055516
1.000050389
1.000045734
1.000041507
1.00003767
1.000034186
1.000031022
1.00002815
1.000025543
1.000023176
1.000021027
1.000019076
1.000017305
1.000015698
1.000014239
1.000012915
1.000011713
1.000010622
1.000009632
1.000008734
1.000007918
1.000007179
1.000006508
1.000005899
1.000005346
1.000004845
1.00000439
1.000003978
1.000003604
1.000003265
1.000002957
1.000002678
1.000002426
1.000002196
1.000001989
1.0000018
1.000001629
1.000001475
1.000001334
1.000001207
1.000001092
1.000000988
1.000000893
1.000000808
1.00000073
1.00000066
1.000000597
1.000000539
1.000000487
1.00000044
1.000000397
1.000000359
1.000000324
1.000000292
1.000000264
1.000000238
1.000000215
1.000000194
1.000000175
1.000000157
1.000000142
1.000000128
1.000000115
1.000000104
1.000000093
1.000000084
1.000000076
1.000000068
1.000000061
1.000000055
1.000000049
1.000000044
1.00000004
1.000000036
1.000000032
1.000000029
1.000000026
1.000000023
1.000000021
1.000000019
1.000000017
1.000000015
1.000000013
1.000000012
1.000000011
1.00000001
1.000000009
1.000000008
1.000000007
1.000000006
1.000000005
1.000000005
1.000000004
1.000000004
1.000000003
1.000000003
1.000000003
1.000000002
1.000000002
1.000000002
1.000000002
1.000000001
1.000000001
1.000000001
1.000000001
1.000000001
1.000000001
1.000000001
1.000000001
1.000000001
1
1
1
1
1
1
1
1
1
1
1
1
1
1
1
1
1
1
1
1
1
1
1
1
1
1
1
1
1
1
1
1
1
1
1
1
1
1
1
1
1
1
1
1
1
1
1
1
1
1
1
1
1
1
1
1
1
1
1
1
1
1
1
1
1
1
1
1
1
1
1
1
1
1
1
1
1
1
1
1
1
1
1
1
1
1
1
1
1
1
1
1
1
1
1
1
1
1
1
1
1
1
1
1
1
1
1
1
1
1
1
1
1
1
1
1
1
1
1
1
1
1
1
1
1
1
1
1
1
1
1
1
1
1
1
1
1
1
1
1
1
1
1
1
1
1
1
1
1
1
1
1
1
1
1
1
1
1
1
1
1
1
1
1
1
1
1
1
1
1
1
1
1
1
1
1
1
1
1
1
1
1
1
1
1
1
1
1
1
1
1
1
1
1
1
1
1
1
1
1
1
1
1
1
1
1
1
1
1
1
1
1
1
1
1
1
1
1
1
1
1
99.87172219
99.87107177
99.86983635
99.86808135
99.86586846
99.86325327
99.86028602
99.85701012
99.85346365
99.84967913
99.84568501
99.84150475
99.83715817
99.83266212
99.82803046
99.82327481
99.81840501
99.81342829
99.8083506
99.80317697
99.79791122
99.79255682
99.78711671
99.78159304
99.77598696
99.77029948
99.76453109
99.75868128
99.75274933
99.74673418
99.74063457
99.7344491
99.72817616
99.72181415
99.71536082
99.70881452
99.70217474
99.69544101
99.6886112
99.6816825
99.67465237
99.66751849
99.66027907
99.65293248
99.64547799
99.63791611
99.63025004
99.62248699
99.61464132
99.60673891
99.5988232
99.59087692
99.58285749
99.57473864
99.56650013
99.55812838
99.54961447
99.54095148
99.5321338
99.52315616
99.51401371
99.50470311
99.49522032
99.48556166
99.47572411
99.46570831
99.45551686
99.44512249
99.43452276
99.42371219
99.41268706
99.40144941
99.39001313
99.37834799
99.36644075
99.35428296
99.34186578
99.3291824
99.31622373
99.30297747
99.28942825
99.27555811
99.26136051
99.24682987
99.23195917
99.21673752
99.20115504
99.18520163
99.16887859
99.15214599
99.13498049
99.11735986
99.09925803
99.08065013
99.06151017
99.0418137
99.02153346
99.00065139
98.97915483
98.95701611
98.93420945
98.91069459
98.8864289
98.86137535
98.83549935
98.80876549
98.78113249
98.75255631
98.72298713
98.6923834
98.66069355
98.62788905
98.59390383
98.55873238
98.5224875
98.48522018
98.44650502
98.4074881
98.3636019
98.32904756
98.27980305
98.24678677
98.19043544
98.15754155
98.09250313
98.05889719
97.98407326
97.94964127
97.86435843
97.8287157
97.73123478
97.69442679
97.58337624
97.54602084
97.41903255
97.38223405
97.22140718
97.16319335
96.97259055
96.89058818
96.66401336
96.55393351
96.27227443
96.13193259
95.77102108
95.61766599
95.18840781
94.95299211
94.38397575
94.03199814
93.23971846
92.72768514
91.55820077
90.77727664
88.95703659
87.59026021
84.42053974
81.57480038
78.17256089
73.52690859
63.54691686
47.32330494
33.12122611
24.85048697
19.99088348
16.83303675
14.5499235
12.75631361
11.26481034
9.981064591
8.8540736
7.854322934
6.964299175
6.172881018
5.472887371
4.858111329
4.322683694
3.860353067
3.464388687
3.126895332
2.840318508
2.597281541
2.391143104
2.216097977
2.066791513
1.939102487
1.830350817
1.739041806
1.658907491
1.588266965
1.526086937
1.470745455
1.420848897
1.375907599
1.334470638
1.296440327
1.262191547
1.231953409
1.205525654
1.182479321
1.162351621
1.144721864
1.129229984
1.115574087
1.10350221
1.092803547
1.083300684
1.074843291
1.067303179
1.060570401
1.054550147
1.04916027
1.044329303
1.03999485
1.03610225
1.032603482
1.029456248
1.026623204
1.024071306
1.021771263
1.019697061
1.017825559
1.016136143
1.014610423
1.013231975
1.011986108
1.010859674
1.00984089
1.008919187
1.008085078
1.007330038
1.006646405
1.006027284
1.005466468
1.004958365
1.004497936
1.004080635
1.003702362
1.003359416
1.003048455
1.002766458
1.002510698
1.002278707
1.002068254
1.001877322
1.001704084
1.001546888
1.001404236
1.001274775
1.001157276
1.001050629
1.000953825
1.000865952
1.000786182
1.000713765
1.000648021
1.000588333
1.000534141
1.000484939
1.000440265
1.000399703
1.000362873
1.000329431
1.000299066
1.000271495
1.000246459
1.000223727
1.000203086
1.000184343
1.000167325
1.000151873
1.000137843
1.000125103
1.000113537
1.000103035
1.000093501
1.000084845
1.000076986
1.000069851
1.000063374
1.000057495
1.000052157
1.000047313
1.000042915
1.000038924
1.000035301
1.000032014
1.00002903
1.000026322
1.000023865
1.000021636
1.000019613
1.000017778
1.000016113
1.000014602
1.000013232
1.000011989
1.000010862
1.00000984
1.000008913
1.000008072
1.00000731
1.000006619
1.000005993
1.000005425
1.00000491
1.000004444
1.000004021
1.000003638
1.000003291
1.000002977
1.000002692
1.000002435
1.000002201
1.00000199
1.000001798
1.000001625
1.000001468
1.000001326
1.000001198
1.000001081
1.000000976
1.000000881
1.000000795
1.000000717
1.000000647
1.000000584
1.000000526
1.000000474
1.000000427
1.000000385
1.000000347
1.000000312
1.000000281
1.000000253
1.000000228
1.000000205
1.000000184
1.000000166
1.000000149
1.000000134
1.00000012
1.000000108
1.000000097
1.000000087
1.000000078
1.00000007
1.000000063
1.000000056
1.00000005
1.000000045
1.00000004
1.000000036
1.000000032
1.000000029
1.000000026
1.000000023
1.00000002
1.000000018
1.000000016
1.000000015
1.000000013
1.000000012
1.00000001
1.000000009
1.000000008
1.000000007
1.000000006
1.000000006
1.000000005
1.000000004
1.000000004
1.000000004
1.000000003
1.000000003
1.000000002
1.000000002
1.000000002
1.000000002
1.000000001
1.000000001
1.000000001
1.000000001
1.000000001
1.000000001
1.000000001
1.000000001
1.000000001
1
1
1
1
1
1
1
1
1
1
1
1
1
1
1
1
1
1
1
1
1
1
1
1
1
1
1
1
1
1
1
1
1
1
1
1
1
1
1
1
1
1
1
1
1
1
1
1
1
1
1
1
1
1
1
1
1
1
1
1
1
1
1
1
1
1
1
1
1
1
1
1
1
1
1
1
1
1
1
1
1
1
1
1
1
1
1
1
1
1
1
1
1
1
1
1
1
1
1
1
1
1
1
1
1
1
1
1
1
1
1
1
1
1
1
1
1
1
1
1
1
1
1
1
1
1
1
1
1
1
1
1
1
1
1
1
1
1
1
1
1
1
1
1
1
1
1
1
1
1
1
1
1
1
1
1
1
1
1
1
1
1
1
1
1
1
1
1
1
1
1
1
1
1
1
1
1
1
1
1
1
1
1
1
1
1
1
1
1
1
1
1
1
1
1
1
1
1
1
1
1
1
1
1
1
1
1
1
1
1
1
1
99.61359565
99.61274594
99.61113882
99.60886077
99.60599165
99.60260354
99.59876061
99.59451915
99.58992818
99.58502995
99.57986066
99.57445081
99.56882607
99.56300799
99.55701467
99.55086112
99.54455975
99.53812006
99.53154958
99.52485449
99.51803983
99.51110997
99.50406845
99.49691803
99.48966035
99.48229635
99.47482779
99.46725377
99.45957205
99.45178111
99.44387938
99.43586505
99.4277359
99.41948925
99.41112189
99.40263116
99.39401693
99.38527891
99.37641386
99.36741766
99.35828657
99.34901732
99.33960718
99.33005368
99.32035501
99.31051065
99.30052265
99.29039761
99.2801492
99.26980607
99.25943708
99.24901225
99.23847512
99.22780113
99.21696008
99.2059356
99.19471692
99.18329588
99.17166549
99.1598185
99.14774536
99.13544395
99.12290956
99.11013569
99.09711578
99.08384405
99.07031565
99.05651905
99.04244348
99.02807913
99.01341631
98.99844552
98.98315769
98.96754252
98.95159027
98.93529113
98.9186347
98.90161035
98.88420662
98.8664092
98.84819482
98.82951839
98.81038358
98.79078933
98.77072457
98.75017342
98.729119
98.70754476
98.68543741
98.66276759
98.63950485
98.61561642
98.59106411
98.56581192
98.53982892
98.51307647
98.48550223
98.45709228
98.4278027
98.39762055
98.36653363
98.33446921
98.30136486
98.26716842
98.23183853
98.19532905
98.1575864
98.11855691
98.07815497
98.03629946
97.99293226
97.94799275
97.90141872
97.85316259
97.80318709
97.75144068
97.69786952
97.64243972
97.58511234
97.52645661
97.4650351
97.40207652
97.33520563
97.26650954
97.19276651
97.11693306
97.03487187
96.95061543
96.85898772
96.76497529
96.66218947
96.55662808
96.44030924
96.32024214
96.1862917
96.04585097
95.88476033
95.71388189
95.51840268
95.30994433
95.07100479
94.81451018
94.51831516
94.19994866
93.82828052
93.43244493
92.95998034
92.43877041
91.80684147
91.09559
90.21915022
89.21554088
87.94924107
86.46857388
84.54189272
82.22495137
79.14986346
75.45388052
70.77205157
64.51528807
55.97821399
45.90081381
37.04024273
30.66611461
26.15960503
22.82184154
20.1948184
18.01269579
16.12632152
14.45206904
12.94263653
11.57073973
10.32057479
9.185062208
8.159824423
7.241782679
6.427978789
5.71353342
5.091810462
4.554508149
4.092487779
3.69642633
3.357282321
3.068293405
2.820819407
2.606453514
2.42097428
2.259446608
2.117172311
1.991954885
1.880917598
1.781569269
1.693777467
1.616106034
1.547168432
1.486014925
1.431943077
1.384323377
1.342447206
1.305592199
1.2730935
1.244371404
1.218930239
1.19634805
1.176265418
1.158375333
1.142414221
1.128154596
1.115399339
1.103976977
1.093737833
1.084550776
1.076300655
1.068886092
1.06221763
1.056216172
1.050811646
1.045941875
1.041551599
1.037591638
1.034018158
1.030792048
1.027878369
1.025245875
1.022866594
1.020715465
1.018770014
1.017010069
1.015417514
1.013976065
1.012671079
1.011489376
1.010419088
1.009449524
1.008571045
1.00777496
1.007053427
1.006399366
1.005806387
1.005268715
1.004781132
1.004338922
1.00393782
1.003573969
1.003243879
1.002944392
1.002672649
1.002426061
1.002202284
1.001999196
1.001814873
1.001647572
1.001495713
1.001357866
1.001232732
1.001119134
1.001016006
1.00092238
1.000837378
1.000760205
1.000690137
1.00062652
1.000568759
1.000516314
1.000468697
1.000425461
1.000386205
1.000350561
1.000318198
1.000288813
1.000262134
1.00023791
1.000215917
1.000195949
1.00017782
1.000161361
1.000146419
1.000132854
1.000120539
1.00010936
1.000099212
1.00009
1.000081639
1.00007405
1.000067162
1.00006091
1.000055237
1.000050088
1.000045416
1.000041176
1.000037329
1.000033838
1.000030672
1.000027799
1.000025193
1.000022829
1.000020685
1.00001874
1.000016976
1.000015377
1.000013927
1.000012612
1.00001142
1.000010339
1.00000936
1.000008472
1.000007667
1.000006938
1.000006277
1.000005679
1.000005137
1.000004645
1.000004201
1.000003798
1.000003433
1.000003103
1.000002804
1.000002533
1.000002288
1.000002067
1.000001866
1.000001685
1.000001521
1.000001372
1.000001238
1.000001117
1.000001007
1.000000908
1.000000819
1.000000738
1.000000665
1.000000599
1.000000539
1.000000485
1.000000437
1.000000393
1.000000354
1.000000318
1.000000286
1.000000257
1.000000231
1.000000207
1.000000186
1.000000167
1.00000015
1.000000134
1.000000121
1.000000108
1.000000097
1.000000087
1.000000078
1.00000007
1.000000062
1.000000056
1.00000005
1.000000044
1.00000004
1.000000035
1.000000032
1.000000028
1.000000025
1.000000022
1.00000002
1.000000018
1.000000016
1.000000014
1.000000012
1.000000011
1.00000001
1.000000009
1.000000008
1.000000007
1.000000006
1.000000005
1.000000005
1.000000004
1.000000004
1.000000003
1.000000003
1.000000003
1.000000002
1.000000002
1.000000002
1.000000002
1.000000001
1.000000001
1.000000001
1.000000001
1.000000001
1.000000001
1.000000001
1.000000001
1
1
1
1
1
1
1
1
1
1
1
1
1
1
1
1
1
1
1
1
1
1
1
1
1
1
1
1
1
1
1
1
1
1
1
1
1
1
1
1
1
1
1
1
1
1
1
1
1
1
1
1
1
1
1
1
1
1
1
1
1
1
1
1
1
1
1
1
1
1
1
1
1
1
1
1
1
1
1
1
1
1
1
1
1
1
1
1
1
1
1
1
1
1
1
1
1
1
1
1
1
1
1
1
1
1
1
1
1
1
1
1
1
1
1
1
1
1
1
1
1
1
1
1
1
1
1
1
1
1
1
1
1
1
1
1
1
1
1
1
1
1
1
1
1
1
1
1
1
1
1
1
1
1
1
1
1
1
1
1
1
1
1
1
1
1
1
1
1
1
1
1
1
1
1
1
1
1
1
1
1
1
1
1
1
1
1
1
1
1
1
1
1
1
1
1
1
1
1
1
1
1
1
1
1
1
1
1
99.42353789
99.42256714
99.42073687
99.41814833
99.41489319
99.41105336
99.40670129
99.40190043
99.3967059
99.39116526
99.3853191
99.37920154
99.37284117
99.36626198
99.3594842
99.35252485
99.34539797
99.3381139
99.33068065
99.32310488
99.31539218
99.30754738
99.29957469
99.29147748
99.28325729
99.27491398
99.26644702
99.25785586
99.24913984
99.24029784
99.2313283
99.22222919
99.21299799
99.20363148
99.19412515
99.18447088
99.17467351
99.16473769
99.15465642
99.14442312
99.13403319
99.12348282
99.11276864
99.10188752
99.09083649
99.07961314
99.06821733
99.05665324
99.04492775
99.03305049
99.02102958
99.00885437
98.99650379
98.98395894
98.97120327
98.95822375
98.94500997
98.93155372
98.91784782
98.90388542
98.88966057
98.87516738
98.86039853
98.8453436
98.82999312
98.81433804
98.79837257
98.78208609
98.76546566
98.74849945
98.73117422
98.7134734
98.6953759
98.67688094
98.6579802
98.63866275
98.61891639
98.59872863
98.57808756
98.55698512
98.5354042
98.51332068
98.49071484
98.46756787
98.44386128
98.41957353
98.39468193
98.36916357
98.34299517
98.31615097
98.2886
98.26031113
98.23122452
98.20128645
98.17048215
98.13878087
98.10614664
98.07253617
98.03790325
98.00220266
97.96538572
97.9273863
97.88812941
97.84753771
97.80559005
97.76223314
97.71740101
97.6710184
97.62300209
97.57326389
97.52171306
97.46824692
97.41280806
97.35533085
97.29573323
97.23391805
97.16979865
97.10329218
97.03429705
96.96276888
96.88826637
96.81074878
96.72950328
96.64459853
96.5551356
96.46130991
96.36198393
96.25749043
96.14646082
96.0293641
95.90446288
95.77211243
95.62999775
95.47844582
95.31417313
95.1368203
94.9418265
94.72964903
94.49553628
94.2394258
93.95545811
93.64289286
93.29409272
92.90772176
92.47304545
91.98821382
91.43517791
90.80701289
90.07879413
89.23809066
88.24902401
87.08954383
85.70084686
84.04306247
82.01805573
79.55844963
76.51311948
72.79268176
68.18495784
62.46408607
55.61994055
48.31512586
41.69828162
36.33176386
32.08376262
28.6537211
25.78753539
23.30854049
21.10256152
19.09925808
17.2568816
15.55103287
13.97029345
12.51075748
11.17220859
9.955914002
8.861224837
7.885439413
7.023564872
6.268275367
5.610609392
5.041962767
4.548156562
4.119315647
3.746197222
3.420675005
3.136583015
2.88688003
2.668518172
2.477390019
2.309590219
2.161919515
2.03199449
1.917492058
1.816416076
1.72716258
1.648343438
1.578718262
1.517168909
1.462682503
1.414365373
1.371448148
1.333269034
1.29925622
1.268914686
1.24181571
1.217586401
1.195900872
1.176473885
1.159055134
1.143424609
1.129388184
1.116774477
1.105431894
1.095226125
1.086037994
1.077761594
1.070302711
1.063577426
1.057510902
1.052036336
1.047094033
1.042630604
1.038598254
1.034954163
1.031659938
1.028681127
1.025986799
1.023549161
1.021343225
1.019346515
1.017538799
1.01590186
1.014419284
1.013076273
1.011859487
1.010756887
1.00975761
1.008851847
1.00803074
1.007286283
1.006611245
1.005999084
1.005443889
1.00494031
1.004483507
1.004069102
1.003693129
1.003352
1.003042465
1.00276158
1.002506679
1.002275345
1.00206539
1.001874828
1.001701863
1.001544862
1.001402348
1.00127298
1.001155543
1.001048934
1.000952152
1.00086429
1.000784525
1.00071211
1.000646367
1.000586681
1.000532494
1.0004833
1.000438638
1.000398091
1.00036128
1.000327862
1.000297523
1.000269982
1.000244979
1.000222282
1.000201678
1.000182976
1.000165999
1.000150589
1.000136602
1.000123906
1.000112384
1.000101927
1.000092437
1.000083824
1.000076009
1.000068917
1.000062482
1.000056644
1.000051346
1.000046541
1.000042181
1.000038226
1.000034639
1.000031386
1.000028435
1.000025759
1.000023332
1.000021132
1.000019137
1.000017328
1.000015689
1.000014203
1.000012856
1.000011635
1.000010529
1.000009526
1.000008618
1.000007795
1.00000705
1.000006375
1.000005764
1.00000521
1.000004709
1.000004256
1.000003845
1.000003474
1.000003137
1.000002833
1.000002558
1.000002309
1.000002084
1.00000188
1.000001696
1.00000153
1.000001379
1.000001243
1.000001121
1.00000101
1.00000091
1.000000819
1.000000738
1.000000664
1.000000597
1.000000537
1.000000483
1.000000435
1.000000391
1.000000351
1.000000315
1.000000283
1.000000254
1.000000228
1.000000205
1.000000183
1.000000164
1.000000147
1.000000132
1.000000118
1.000000106
1.000000095
1.000000085
1.000000076
1.000000068
1.00000006
1.000000054
1.000000048
1.000000043
1.000000038
1.000000034
1.00000003
1.000000027
1.000000024
1.000000021
1.000000019
1.000000017
1.000000015
1.000000013
1.000000012
1.00000001
1.000000009
1.000000008
1.000000007
1.000000006
1.000000006
1.000000005
1.000000004
1.000000004
1.000000003
1.000000003
1.000000003
1.000000002
1.000000002
1.000000002
1.000000002
1.000000001
1.000000001
1.000000001
1.000000001
1.000000001
1.000000001
1.000000001
1.000000001
1
1
1
1
1
1
1
1
1
1
1
1
1
1
1
1
1
1
1
1
1
1
1
1
1
1
1
1
1
1
1
1
1
1
1
1
1
1
1
1
1
1
1
1
1
1
1
1
1
1
1
1
1
1
1
1
1
1
1
1
1
1
1
1
1
1
1
1
1
1
1
1
1
1
1
1
1
1
1
1
1
1
1
1
1
1
1
1
1
1
1
1
1
1
1
1
1
1
1
1
1
1
1
1
1
1
1
1
1
1
1
1
1
1
1
1
1
1
1
1
1
1
1
1
1
1
1
1
1
1
1
1
1
1
1
1
1
1
1
1
1
1
1
1
1
1
1
1
1
1
1
1
1
1
1
1
1
1
1
1
1
1
1
1
1
1
1
1
1
1
1
1
1
1
1
1
1
1
1
1
1
1
1
1
1
1
1
1
1
1
1
1
1
1
1
1
1
1
1
1
1
1
1
1
1
99.27448399
99.27341303
99.27139837
99.26855414
99.26498228
99.26077313
99.25600611
99.25075052
99.24506653
99.23900603
99.23261338
99.22592546
99.21897291
99.21178147
99.20437292
99.19676605
99.18897868
99.18101979
99.17289696
99.16461711
99.15618614
99.14760921
99.13889122
99.13003804
99.12105116
99.11192785
99.10266616
99.09326581
99.08372698
99.07404879
99.06422968
99.05426753
99.04415971
99.03390318
99.0234947
99.01293184
99.00221139
98.9913306
98.98028463
98.96906862
98.95767821
98.94610939
98.93435846
98.92242178
98.91029528
98.89797247
98.88544735
98.87272713
98.85981408
98.84670924
98.83341068
98.81990867
98.80618601
98.79222537
98.77801933
98.76355713
98.74882841
98.73382566
98.71854182
98.70296997
98.68710441
98.67093522
98.65445279
98.63764701
98.62050666
98.60301772
98.58515701
98.5669222
98.54830876
98.52930529
98.50989768
98.49007
98.46980663
98.44909707
98.42793009
98.40629268
98.38417056
98.36154882
98.33841208
98.31474394
98.29052936
98.2657606
98.24041077
98.21445278
98.18786976
98.16063111
98.13270831
98.10407374
98.07469951
98.04455666
98.01361272
97.98183061
97.94915837
97.915558
97.88099715
97.8454419
97.80885949
97.77118987
97.73237798
97.69236511
97.6510764
97.60844817
97.56442323
97.51895911
97.47199586
97.42346012
97.37326909
97.32132982
97.26756223
97.21185654
97.15412453
97.09427516
97.032209
96.96781988
96.90098611
96.83156635
96.75941875
96.68445304
96.60653105
96.52546517
96.44094112
96.35269119
96.26028117
96.16342703
96.06163038
95.95458151
95.84168335
95.7224789
95.59621234
95.46242012
95.3201533
95.1686781
95.00664205
94.83310494
94.64607694
94.4438607
94.22395216
93.98453158
93.72270994
93.43628638
93.1215279
92.77521877
92.39227841
91.96775016
91.49447032
90.96533027
90.36879281
89.69317018
88.92150955
88.03620019
87.01232964
85.82219789
84.42610298
82.7804917
80.82336378
78.48644823
75.67837996
72.3065691
68.25220281
63.44927595
58.00485101
52.32044284
46.96016532
42.25728648
38.22956988
34.76083835
31.72023041
28.99878458
26.51605728
24.21852987
22.07173878
20.05515585
18.16020922
16.38655212
14.73833186
13.21950195
11.83289147
10.57928735
9.456287727
8.458760261
7.577892592
6.799557969
6.112782677
5.508643081
4.978590606
4.514636366
4.108304312
3.75219811
3.439694341
3.165240801
2.923714878
2.710808739
2.523018104
2.357176347
2.210456431
2.080596875
1.965569931
1.863555679
1.772973517
1.692461651
1.620801129
1.55694819
1.499999221
1.449159078
1.403728722
1.363097636
1.326730452
1.29415444
1.264953062
1.238758461
1.21524632
1.194128614
1.175150271
1.158085003
1.142731811
1.128911992
1.116466383
1.105253231
1.095146112
1.086032189
1.077810656
1.070391381
1.063693734
1.057645508
1.052182006
1.047245217
1.042783093
1.038748908
1.035100685
1.031800698
1.02881502
1.026113127
1.023667542
1.021453519
1.019448761
1.017633173
1.015988633
1.014498793
1.013148902
1.011925643
1.010816991
1.009812084
1.008901107
1.008075189
1.00732631
1.006647218
1.006031352
1.005472779
1.004966127
1.004506535
1.004089603
1.003711345
1.003368154
1.003056762
1.002774206
1.002517804
1.002285125
1.002073965
1.001882327
1.001708401
1.001550545
1.00140727
1.001277227
1.00115919
1.001052051
1.0009548
1.000866526
1.000786398
1.000713664
1.000647642
1.000587713
1.000533314
1.000483935
1.000439114
1.000398429
1.0003615
1.000327981
1.000297557
1.000269943
1.00024488
1.000222133
1.000201488
1.000182752
1.000165749
1.000150319
1.000136316
1.00012361
1.000112081
1.00010162
1.000092128
1.000083517
1.000075705
1.000068618
1.000062189
1.000056357
1.000051068
1.000046271
1.000041921
1.000037975
1.000034398
1.000031154
1.000028213
1.000025547
1.00002313
1.00002094
1.000018954
1.000017155
1.000015524
1.000014047
1.000012708
1.000011495
1.000010397
1.000009402
1.000008501
1.000007685
1.000006947
1.000006278
1.000005672
1.000005125
1.000004629
1.00000418
1.000003774
1.000003407
1.000003075
1.000002775
1.000002504
1.000002258
1.000002036
1.000001836
1.000001655
1.000001491
1.000001344
1.00000121
1.00000109
1.000000981
1.000000883
1.000000794
1.000000715
1.000000643
1.000000578
1.000000519
1.000000466
1.000000419
1.000000376
1.000000338
1.000000303
1.000000272
1.000000244
1.000000218
1.000000196
1.000000175
1.000000157
1.00000014
1.000000126
1.000000112
1.0000001
1.00000009
1.00000008
1.000000071
1.000000064
1.000000057
1.000000051
1.000000045
1.00000004
1.000000036
1.000000032
1.000000028
1.000000025
1.000000022
1.00000002
1.000000018
1.000000016
1.000000014
1.000000012
1.000000011
1.00000001
1.000000008
1.000000007
1.000000007
1.000000006
1.000000005
1.000000005
1.000000004
1.000000004
1.000000003
1.000000003
1.000000002
1.000000002
1.000000002
1.000000002
1.000000001
1.000000001
1.000000001
1.000000001
1.000000001
1.000000001
1.000000001
1.000000001
1
1
1
1
1
1
1
1
1
1
1
1
1
1
1
1
1
1
1
1
1
1
1
1
1
1
1
1
1
1
1
1
1
1
1
1
1
1
1
1
1
1
1
1
1
1
1
1
1
1
1
1
1
1
1
1
1
1
1
1
1
1
1
1
1
1
1
1
1
1
1
1
1
1
1
1
1
1
1
1
1
1
1
1
1
1
1
1
1
1
1
1
1
1
1
1
1
1
1
1
1
1
1
1
1
1
1
1
1
1
1
1
1
1
1
1
1
1
1
1
1
1
1
1
1
1
1
1
1
1
1
1
1
1
1
1
1
1
1
1
1
1
1
1
1
1
1
1
1
1
1
1
1
1
1
1
1
1
1
1
1
1
1
1
1
1
1
1
1
1
1
1
1
1
1
1
1
1
1
1
1
1
1
1
1
1
1
1
1
1
1
1
1
1
1
1
1
1
1
1
1
1
99.15033055
99.14917188
99.14699608
99.1439289
99.14008167
99.13555234
99.13042656
99.12477876
99.11867341
99.11216635
99.1053067
99.09813301
99.09067669
99.08296474
99.07501983
99.06686068
99.05850249
99.04995732
99.04123479
99.03234249
99.02328654
99.014072
99.00470326
98.99518431
98.98551698
98.97570074
98.96573474
98.95561906
98.94535362
98.93493751
98.92436906
98.91364603
98.90276572
98.89172492
98.88051974
98.86915173
98.85761262
98.8458935
98.83399155
98.82190348
98.80962506
98.79715214
98.78448085
98.77160758
98.75852925
98.74524328
98.73174726
98.71803771
98.70411069
98.68996257
98.67558847
98.66097979
98.64612481
98.63101123
98.61562768
98.59996175
98.58399733
98.56773255
98.55116069
98.53427356
98.51706229
98.49951687
98.48162751
98.46338517
98.44477874
98.42579656
98.40642976
98.38666763
98.36649678
98.34590286
98.32487044
98.30338126
98.28141103
98.25895527
98.23600155
98.21253485
98.18853864
98.16399651
98.13889173
98.11319789
98.08689643
98.05997459
98.0324086
98.00416943
97.97522194
97.94554933
97.91512569
97.88392038
97.85190243
97.81904293
97.78530936
97.75066279
97.71507723
97.67851486
97.64090727
97.60221706
97.56239582
97.52139276
97.47915326
97.43561974
97.39073203
97.34442414
97.2966275
97.24730951
97.19638853
97.14377565
97.08937527
97.03308747
96.97479908
96.91440483
96.8518229
96.78695666
96.71968282
96.64985964
96.57732533
96.50193346
96.42357519
96.34209511
96.25731274
96.16899464
96.07679393
95.98042795
95.87955605
95.77378678
95.6626569
95.54568563
95.42240264
95.29225394
95.15454456
95.00851205
94.85335576
94.68819611
94.51186871
94.32306499
94.12022092
93.9015923
93.66514987
93.40873858
93.12992084
92.82608613
92.49404149
92.13023766
91.73025556
91.2890171
90.80011039
90.25633331
89.64848528
88.9655078
88.19392315
87.31816144
86.31852802
85.17123313
83.84664182
82.31015226
80.5185619
78.41994458
75.95165602
73.05843438
69.68632156
65.81461933
61.52254649
57.02499913
52.60967512
48.48780244
44.72438761
41.2959913
38.15428037
35.24738724
32.52861173
29.96622221
27.53733935
25.2277842
23.03326634
20.957001
19.00428113
17.18036747
15.49326958
13.94754894
12.54487214
11.28031787
10.14127074
9.119262527
8.20940966
7.402855297
6.689374936
6.059039337
5.501864072
5.009321387
4.573356326
4.18709019
3.844602399
3.540549378
3.270394512
3.03022944
2.816423376
2.626052401
2.456505823
2.305364748
2.170447746
2.050027512
1.942469145
1.846324932
1.760329475
1.683378834
1.614476135
1.552747597
1.497426016
1.447820887
1.403319577
1.363375891
1.327508901
1.295286559
1.26632512
1.240282934
1.21685561
1.195771962
1.176789554
1.159692234
1.144286902
1.13040102
1.117880288
1.1065866
1.096396375
1.0871989
1.078894948
1.071395542
1.064620846
1.058499202
1.052966253
1.047964167
1.043440962
1.039349885
1.035648871
1.032300058
1.029269346
1.026526017
1.024042391
1.021793512
1.019756871
1.017912163
1.016241064
1.014727031
1.013355128
1.012111862
1.010985042
1.009963652
1.009037731
1.008198277
1.007437144
1.006746966
1.006121078
1.005553449
1.005038619
1.004571645
1.004148054
1.003763793
1.003415191
1.003098923
1.002811978
1.002551626
1.002315394
1.002101039
1.00190653
1.001730024
1.001569851
1.001424496
1.001292587
1.001172877
1.001064238
1.000965644
1.000876166
1.000794961
1.000721263
1.00065438
1.00059368
1.000538593
1.000488601
1.000443231
1.000402059
1.000364695
1.000330789
1.00030002
1.0002721
1.000246765
1.000223777
1.000202918
1.000183993
1.000166822
1.000151243
1.00013711
1.000124289
1.000112658
1.000102108
1.000092539
1.000083859
1.000075987
1.000068848
1.000062374
1.000056503
1.00005118
1.000046354
1.000041979
1.000038012
1.000034416
1.000031157
1.000028204
1.000025527
1.000023101
1.000020903
1.000018912
1.000017108
1.000015474
1.000013994
1.000012654
1.00001144
1.000010341
1.000009346
1.000008446
1.000007631
1.000006893
1.000006226
1.000005622
1.000005076
1.000004582
1.000004135
1.000003731
1.000003365
1.000003035
1.000002737