/*--------------------------------*- C++ -*----------------------------------*\
| =========                 |                                                 |
| \\      /  F ield         | OpenFOAM: The Open Source CFD Toolbox           |
|  \\    /   O peration     | Version:  v2006                                 |
|   \\  /    A nd           | Website:  www.openfoam.com                      |
|    \\/     M anipulation  |                                                 |
\*---------------------------------------------------------------------------*/
FoamFile
{
    version     2.0;
    format      ascii;
    class       volScalarField;
    location    "0.1";
    object      theta2_0;
}
// * * * * * * * * * * * * * * * * * * * * * * * * * * * * * * * * * * * * * //

dimensions      [0 0 0 0 0 0 0];


internalField   nonuniform List<scalar> 
72000
(
3.56085333
3.561528568
3.562846183
3.564751559
3.567183969
3.570083141
3.573390794
3.577054672
3.581027261
3.585267448
3.589738126
3.594408702
3.599252879
3.604248072
3.609375852
3.614620812
3.619969892
3.625413595
3.630944031
3.636554721
3.642241665
3.648001356
3.65383148
3.659730451
3.665697626
3.671731553
3.677831598
3.683999734
3.690238312
3.696550448
3.7029389
3.709406324
3.715955179
3.722587306
3.729305902
3.736114289
3.743015595
3.750012911
3.757110486
3.764311902
3.771620611
3.779040418
3.786574667
3.794227606
3.802002966
3.809904827
3.817937132
3.826104683
3.83441148
3.842861532
3.851452242
3.860190552
3.869085833
3.878142901
3.887366749
3.896761797
3.906332185
3.916083179
3.926019215
3.936144337
3.946463439
3.956982126
3.967707484
3.978645397
3.989801484
4.001180198
4.01278089
4.024615934
4.036694683
4.049025449
4.061615233
4.074472698
4.087605051
4.10101982
4.114724888
4.128727277
4.143038029
4.157663016
4.17261055
4.187889023
4.203505207
4.219470953
4.235796443
4.252494672
4.269577582
4.287057852
4.30494587
4.323251111
4.341959456
4.361098052
4.380684962
4.400736306
4.421266309
4.442284662
4.463807645
4.485845161
4.508412146
4.531522094
4.555191449
4.579433851
4.604260063
4.62968018
4.655701839
4.682329634
4.709567257
4.737415258
4.765874278
4.794935197
4.824574444
4.854741666
4.885424285
4.916562811
4.94806347
4.97978336
5.011507599
5.042929057
5.073601788
5.102655413
5.131188102
5.148545532
5.172006551
5.181993477
5.204789689
5.210079708
5.234498957
5.236409726
5.263629397
5.262280758
5.292745806
5.287707237
5.322019773
5.312859831
5.352031419
5.33866491
5.386853466
5.375068283
5.467241735
5.489960481
5.61956275
5.67143096
5.831359261
5.907958355
6.09801656
6.200300201
6.4261727
6.561141558
6.83588868
7.026586176
7.378228572
7.649801578
8.121187321
8.520679973
9.176386869
9.78332298
10.73842257
11.70982824
13.18222238
14.79324527
16.53878978
18.61499695
22.17132774
27.53658708
34.829644
42.56081038
49.65646016
55.85669306
61.25121913
65.98077096
70.15372456
73.83928857
77.08450263
79.92304329
82.38518168
84.50257108
86.30844518
87.8388373
89.12900048
90.21348478
91.12453114
91.89093244
92.53732518
93.08462052
93.55023778
93.94841637
94.29062527
94.58621748
94.84276276
95.06660913
95.26308721
95.43616202
95.58870007
95.72364036
95.84514032
95.95558184
96.05694099
96.15214622
96.24293741
96.32629066
96.40088277
96.46677944
96.52470321
96.57558518
96.62035025
96.65983233
96.69475221
96.72572185
96.75325809
96.77779778
96.79971169
96.81931611
96.83688242
96.85264475
96.86680609
96.87954326
96.89101088
96.90134473
96.91066436
96.9190754
96.92667136
96.93353529
96.93974105
96.94535448
96.95043434
96.95503321
96.95919814
96.96297135
96.96639071
96.96949027
96.97230065
96.97484941
96.97716141
96.97925904
96.98116251
96.98289008
96.98445822
96.98588184
96.98717442
96.98834814
96.98941405
96.99038214
96.99126145
96.99206018
96.99278578
96.99344497
96.99404386
96.994588
96.99508241
96.99553165
96.99593987
96.99631081
96.9966479
96.99695422
96.99723258
96.99748555
96.99771544
96.99792436
96.99811422
96.99828675
96.99844355
96.99858603
96.99871552
96.99883319
96.99894012
96.99903728
96.99912558
96.99920581
96.99927871
96.99934495
96.99940513
96.99945982
96.9995095
96.99955464
96.99959564
96.99963289
96.99966673
96.99969747
96.99972539
96.99975076
96.99977379
96.99979471
96.99981371
96.99983096
96.99984663
96.99986085
96.99987377
96.9998855
96.99989615
96.99990581
96.99991458
96.99992255
96.99992977
96.99993633
96.99994229
96.99994769
96.99995259
96.99995704
96.99996107
96.99996473
96.99996805
96.99997106
96.99997379
96.99997626
96.99997851
96.99998054
96.99998239
96.99998406
96.99998557
96.99998695
96.99998819
96.99998932
96.99999034
96.99999127
96.9999921
96.99999286
96.99999355
96.99999417
96.99999473
96.99999524
96.9999957
96.99999612
96.9999965
96.99999684
96.99999715
96.99999743
96.99999768
96.99999791
96.99999811
96.9999983
96.99999847
96.99999862
96.99999876
96.99999888
96.99999899
96.99999909
96.99999918
96.99999927
96.99999934
96.99999941
96.99999947
96.99999952
96.99999957
96.99999961
96.99999965
96.99999969
96.99999972
96.99999975
96.99999978
96.9999998
96.99999982
96.99999984
96.99999986
96.99999987
96.99999988
96.9999999
96.99999991
96.99999992
96.99999993
96.99999993
96.99999994
96.99999995
96.99999995
96.99999996
96.99999996
96.99999997
96.99999997
96.99999997
96.99999998
96.99999998
96.99999998
96.99999998
96.99999999
96.99999999
96.99999999
96.99999999
96.99999999
96.99999999
96.99999999
96.99999999
96.99999999
97
97
97
97
97
97
97
97
97
97
97
97
97
97
97
97
97
97
97
97
97
97
97
97
97
97
97
97
97
97
97
97
97
97
97
97
97
97
97
97
97
97
97
97
97
97
97
97
97
97
97
97
97
97
97
97
97
97
97
97
97
97
97
97
97
97
97
97
97
97
97
97
97
97
97
97
97
97
97
97
97
97
97
97
97
97
97
97
97
97
97
97
97
97
97
97
97
97
97
97
97
97
97
97
97
97
97
97
97
97
97
97
97
97
97
97
97
97
97
97
97
97
97
97
97
97
97
97
97
97
97
97
97
97
97
97
97
97
97
97
97
97
97
97
97
97
97
97
97
97
97
97
97
97
97
97
97
97
97
97
97
97
97
97
97
97
97
97
97
97
97
97
97
97
97
97
97
97
97
97
97
97
97
97
97
97
97
97
97
97
97
97
97
97
97
97
97
97
97
97
97
97
97
97
97
97
97
97
97
97
97
97
97
97
97
97
97
97
97
97
97
7.388480426
7.389990501
7.392899115
7.397080306
7.402398612
7.408721347
7.415922042
7.423887303
7.432514185
7.441713168
7.451404506
7.461521926
7.472007988
7.482814405
7.493900533
7.505233734
7.516785723
7.528535568
7.540466263
7.552564078
7.564820155
7.577226443
7.589778785
7.602473677
7.615309046
7.628281963
7.641386703
7.654627881
7.668014034
7.681551896
7.695246972
7.709104167
7.723128348
7.737324118
7.751697325
7.766254163
7.781001177
7.79594586
7.811096282
7.826459572
7.842042745
7.857853705
7.873899291
7.890187894
7.906726788
7.923523848
7.940587701
7.95792753
7.97555277
7.993474006
8.011701926
8.030244594
8.049110338
8.068306328
8.087841922
8.107725626
8.127966113
8.148573424
8.169556051
8.190921832
8.212678981
8.234839228
8.257416379
8.28042289
8.303871265
8.327773806
8.352135431
8.37696643
8.40228731
8.428113616
8.454459156
8.48133858
8.508766612
8.536757138
8.565325186
8.594484215
8.624253438
8.654645443
8.685674484
8.717355657
8.749701955
8.782731895
8.816466318
8.850931946
8.88614902
8.922143445
8.958936127
8.996553258
9.035010329
9.074305491
9.114468438
9.155530815
9.197514889
9.240439256
9.284330524
9.329206232
9.375091156
9.422009605
9.469989115
9.519053949
9.569222132
9.620507914
9.672923935
9.726474038
9.781146382
9.836935387
9.893855532
9.951891887
10.01102256
10.07119925
10.13232999
10.19428692
10.25689195
10.31989057
10.38292877
10.44548127
10.50676381
10.56556249
10.62229355
10.66672973
10.71548862
10.7505651
10.79726061
10.82723065
10.87566887
10.90301318
10.95522254
10.98087004
11.0380138
11.06226879
11.12574014
11.14931629
11.22189714
11.24762457
11.33835727
11.38092935
11.53344406
11.63356243
11.84611059
11.99808103
12.26286128
12.46163376
12.77823878
13.02667045
13.40423637
13.71473625
14.17391352
14.58009432
15.16161985
15.70360812
16.46484926
17.20834827
18.23447192
19.28333982
20.71429657
22.24581598
24.29774394
26.497406
28.85327569
31.58870591
35.48330642
40.3201905
46.31291935
52.60252544
58.51814076
63.8141658
68.47938925
72.57394978
76.16156434
79.29337663
82.0100565
84.34538507
86.33293903
88.00721451
89.4048647
90.56286104
91.51785814
92.3041574
92.95277285
93.48978351
93.93707638
94.31223096
94.62932788
94.89941207
95.1310906
95.331256
95.5053465
95.65769512
95.79182645
95.91050404
96.01595973
96.11036625
96.19589947
96.27409127
96.34617301
96.41322412
96.47550614
96.53211614
96.58269442
96.62746628
96.66695839
96.70178796
96.73255431
96.75979521
96.78397623
96.80549444
96.82468701
96.84184061
96.85719993
96.87097491
96.88334663
96.89447205
96.90448791
96.91351383
96.92165485
96.92900355
96.93564173
96.94164191
96.94706852
96.95197893
96.9564243
96.96045038
96.96409811
96.96740419
96.97040155
96.97311979
96.97558555
96.9778228
96.97985315
96.98169609
96.9833692
96.98488839
96.986268
96.98752103
96.98865923
96.98969321
96.99063263
96.99148619
96.99226181
96.99296665
96.9936072
96.99418937
96.99471849
96.99519943
96.99563658
96.99603394
96.99639515
96.9967235
96.99702198
96.99729331
96.99753997
96.9977642
96.99796804
96.99815335
96.9983218
96.99847493
96.99861414
96.99874068
96.99885571
96.99896027
96.99905531
96.9991417
96.99922023
96.9992916
96.99935648
96.99941543
96.99946902
96.99951772
96.99956197
96.99960219
96.99963873
96.99967194
96.99970212
96.99972953
96.99975444
96.99977707
96.99979763
96.9998163
96.99983327
96.99984868
96.99986267
96.99987538
96.99988693
96.99989741
96.99990693
96.99991557
96.99992342
96.99993054
96.99993701
96.99994288
96.99994821
96.99995305
96.99995744
96.99996142
96.99996503
96.99996831
96.99997129
96.99997399
96.99997644
96.99997866
96.99998067
96.9999825
96.99998415
96.99998565
96.99998701
96.99998825
96.99998936
96.99999038
96.9999913
96.99999213
96.99999288
96.99999356
96.99999418
96.99999474
96.99999525
96.9999957
96.99999612
96.9999965
96.99999684
96.99999714
96.99999742
96.99999767
96.9999979
96.99999811
96.99999829
96.99999846
96.99999861
96.99999875
96.99999887
96.99999898
96.99999909
96.99999918
96.99999926
96.99999933
96.9999994
96.99999946
96.99999952
96.99999956
96.99999961
96.99999965
96.99999968
96.99999972
96.99999975
96.99999977
96.9999998
96.99999982
96.99999984
96.99999985
96.99999987
96.99999988
96.99999989
96.99999991
96.99999992
96.99999992
96.99999993
96.99999994
96.99999995
96.99999995
96.99999996
96.99999996
96.99999997
96.99999997
96.99999997
96.99999998
96.99999998
96.99999998
96.99999998
96.99999999
96.99999999
96.99999999
96.99999999
96.99999999
96.99999999
96.99999999
96.99999999
96.99999999
97
97
97
97
97
97
97
97
97
97
97
97
97
97
97
97
97
97
97
97
97
97
97
97
97
97
97
97
97
97
97
97
97
97
97
97
97
97
97
97
97
97
97
97
97
97
97
97
97
97
97
97
97
97
97
97
97
97
97
97
97
97
97
97
97
97
97
97
97
97
97
97
97
97
97
97
97
97
97
97
97
97
97
97
97
97
97
97
97
97
97
97
97
97
97
97
97
97
97
97
97
97
97
97
97
97
97
97
97
97
97
97
97
97
97
97
97
97
97
97
97
97
97
97
97
97
97
97
97
97
97
97
97
97
97
97
97
97
97
97
97
97
97
97
97
97
97
97
97
97
97
97
97
97
97
97
97
97
97
97
97
97
97
97
97
97
97
97
97
97
97
97
97
97
97
97
97
97
97
97
97
97
97
97
97
97
97
97
97
97
97
97
97
97
97
97
97
97
97
97
97
97
97
97
97
97
97
97
97
97
97
97
97
97
97
97
97
97
97
97
97
97
97
97
10.64931727
10.65154297
10.65578428
10.66184239
10.66951674
10.67861462
10.6889562
10.70037884
10.71273697
10.72590281
10.73976468
10.7542278
10.76921071
10.78464532
10.8004739
10.81665003
10.83313436
10.84989656
10.86691293
10.88416456
10.90163828
10.91932348
10.93721394
10.95530586
10.97359676
10.9920856
11.01076891
11.02965196
11.04874318
11.06804966
11.08757827
11.10733544
11.12732792
11.14756281
11.16804732
11.18878921
11.20979856
11.23108683
11.25266501
11.27454283
11.29673046
11.31923878
11.34207775
11.36525834
11.38879108
11.41268632
11.43695632
11.46161374
11.4866723
11.51214682
11.53805631
11.56441082
11.5912189
11.61849085
11.64623889
11.67447522
11.7032127
11.732465
11.7622445
11.79256161
11.82341734
11.85483593
11.8868377
11.91944156
11.9526659
11.98652891
12.02104866
12.05624196
12.09212557
12.12871721
12.16603531
12.20409836
12.24292608
12.28253888
12.32295751
12.3642023
12.40629599
12.44925885
12.49311012
12.53786895
12.58355312
12.63017303
12.67776857
12.72638018
12.77603683
12.82677221
12.87861824
12.9316133
12.98580229
13.04120367
13.09783684
13.15572458
13.21488987
13.27535986
13.3371675
13.40033619
13.46488201
13.53085869
13.5983035
13.66724744
13.73771637
13.80972974
13.88330631
13.9584619
14.03521405
14.11356662
14.19350175
14.2749672
14.35796337
14.44244336
14.52827388
14.61529047
14.703278
14.79193824
14.88085824
14.96946248
15.05697974
15.14243327
15.22490922
15.30172955
15.37724052
15.44819772
15.52126037
15.59071222
15.66529354
15.73643041
15.81517506
15.89013243
15.97524436
16.05613419
16.1502868
16.24031625
16.34853794
16.45505745
16.59018715
16.7334618
16.92747299
17.13577427
17.39759637
17.67183258
17.99970627
18.33936574
18.73595745
19.14793698
19.62614015
20.12911677
20.71573217
21.34656462
22.08623992
22.89566111
23.85087444
24.91278973
26.17384216
27.5958565
29.29120975
31.21526783
33.47916136
35.97431848
38.71690314
41.85724936
45.66452582
50.08498857
55.05962819
60.1898141
65.09862144
69.58971473
73.60523042
77.15278008
80.2612479
82.96262821
85.28771538
87.26650887
88.93013661
90.31167556
91.44607213
92.36877115
93.11461023
93.7157124
94.20086462
94.59424678
94.91569275
95.18085984
95.40176477
95.58774358
95.74592241
95.88180485
95.9995392
96.10232324
96.19276553
96.27291886
96.3444453
96.40877823
96.46713524
96.52040159
96.56923462
96.61404354
96.65489006
96.69161449
96.72428944
96.7532099
96.77877222
96.80138612
96.82143141
96.83924251
96.85510708
96.86927042
96.88194144
96.89329852
96.90349469
96.91266191
96.92091454
96.9283522
96.93506206
96.94112067
96.94659554
96.95154636
96.95602609
96.96008181
96.96375548
96.96708459
96.97010266
96.97283973
96.97532279
96.97757605
96.97962132
96.98147824
96.98316451
96.9846961
96.98608744
96.98735157
96.98850028
96.98954423
96.99049308
96.99135557
96.99213964
96.99285247
96.99350058
96.99408987
96.99462571
96.99511297
96.99555607
96.99595902
96.99632548
96.99665875
96.99696184
96.99723749
96.99748819
96.99771619
96.99792355
96.99811214
96.99828365
96.99843963
96.99858149
96.99871049
96.99882781
96.9989345
96.99903152
96.99911974
96.99919996
96.99927291
96.99933923
96.99939954
96.99945437
96.99950422
96.99954954
96.99959074
96.9996282
96.99966224
96.99969319
96.99972132
96.99974689
96.99977013
96.99979124
96.99981043
96.99982787
96.99984372
96.99985812
96.9998712
96.99988308
96.99989388
96.99990369
96.9999126
96.99992069
96.99992804
96.99993471
96.99994077
96.99994628
96.99995127
96.99995581
96.99995993
96.99996366
96.99996706
96.99997014
96.99997293
96.99997547
96.99997777
96.99997986
96.99998175
96.99998347
96.99998503
96.99998644
96.99998772
96.99998888
96.99998994
96.99999089
96.99999176
96.99999254
96.99999325
96.9999939
96.99999448
96.99999501
96.99999549
96.99999592
96.99999631
96.99999667
96.99999699
96.99999728
96.99999755
96.99999778
96.999998
96.99999819
96.99999837
96.99999853
96.99999867
96.9999988
96.99999892
96.99999903
96.99999912
96.99999921
96.99999929
96.99999936
96.99999942
96.99999948
96.99999953
96.99999958
96.99999962
96.99999966
96.9999997
96.99999973
96.99999975
96.99999978
96.9999998
96.99999982
96.99999984
96.99999986
96.99999987
96.99999989
96.9999999
96.99999991
96.99999992
96.99999993
96.99999993
96.99999994
96.99999995
96.99999995
96.99999996
96.99999996
96.99999997
96.99999997
96.99999997
96.99999998
96.99999998
96.99999998
96.99999998
96.99999999
96.99999999
96.99999999
96.99999999
96.99999999
96.99999999
96.99999999
96.99999999
96.99999999
97
97
97
97
97
97
97
97
97
97
97
97
97
97
97
97
97
97
97
97
97
97
97
97
97
97
97
97
97
97
97
97
97
97
97
97
97
97
97
97
97
97
97
97
97
97
97
97
97
97
97
97
97
97
97
97
97
97
97
97
97
97
97
97
97
97
97
97
97
97
97
97
97
97
97
97
97
97
97
97
97
97
97
97
97
97
97
97
97
97
97
97
97
97
97
97
97
97
97
97
97
97
97
97
97
97
97
97
97
97
97
97
97
97
97
97
97
97
97
97
97
97
97
97
97
97
97
97
97
97
97
97
97
97
97
97
97
97
97
97
97
97
97
97
97
97
97
97
97
97
97
97
97
97
97
97
97
97
97
97
97
97
97
97
97
97
97
97
97
97
97
97
97
97
97
97
97
97
97
97
97
97
97
97
97
97
97
97
97
97
97
97
97
97
97
97
97
97
97
97
97
97
97
97
97
97
97
97
97
97
97
97
97
97
97
97
97
97
97
97
97
97
97
97
97
97
97
13.5581498
13.56102546
13.5664695
13.57420421
13.5839653
13.59550541
13.60859717
13.62303569
13.63863879
13.6552467
13.6727208
13.69094244
13.70981057
13.72924026
13.74916015
13.76951134
13.79024536
13.81132449
13.83271974
13.85440803
13.87637256
13.89860111
13.92108527
13.94382129
13.96680787
13.99004742
14.01354701
14.03731055
14.06133959
14.08563975
14.11021847
14.13508387
14.16024451
14.18570911
14.21148561
14.23757782
14.26400439
14.29078062
14.31791978
14.3454341
14.37333631
14.40163967
14.4303569
14.45950104
14.48908537
14.5191223
14.54962627
14.58061334
14.6121001
14.64410323
14.67663939
14.70972376
14.74337105
14.77759569
14.81241316
14.8478391
14.88388992
14.92058336
14.95793725
14.99596967
15.03469774
15.07413331
15.11429323
15.15520527
15.19689235
15.23937753
15.28268932
15.32684709
15.37186692
15.41776937
15.46457652
15.51231091
15.56099623
15.61065816
15.66132287
15.71301661
15.76576664
15.81959895
15.87453799
15.93060182
15.98781826
16.04622842
16.10586902
16.16677613
16.22898454
16.29253182
16.35745705
16.42380209
16.49161113
16.56093492
16.63179638
16.70421598
16.77821255
16.85381783
16.93108765
17.01006763
17.09080191
17.17332804
17.25768242
17.3438993
17.4320086
17.52203528
17.61399896
17.70791678
17.80384608
17.90180361
18.00176731
18.10371258
18.2075915
18.3133253
18.42079447
18.52981868
18.64019957
18.75165776
18.86381192
18.97616977
19.0881435
19.19900925
19.30805906
19.4145646
19.51993577
19.62408795
19.72932561
19.8350823
19.9441107
20.05508036
20.17120158
20.29049478
20.41697402
20.54817775
20.6892985
20.83769853
21.00063924
21.17627121
21.37543626
21.59771949
21.85717398
22.14765337
22.47974776
22.84452056
23.25279575
23.69619073
24.18759191
24.72040883
25.3111571
25.95575607
26.67555602
27.46970933
28.36352377
29.35925426
30.48843795
31.75710429
33.20435553
34.83904494
36.70543066
38.80643756
41.17393773
43.78077655
46.64310727
49.8302427
53.42886693
57.39732015
61.63998539
65.93721155
70.07069059
73.90030464
77.36296283
80.44309411
83.14864132
85.4977805
87.51299189
89.21928906
90.64394343
91.81694628
92.77006615
93.53565788
94.14539214
94.62859393
95.01128837
95.31553689
95.55913305
95.75615142
95.91737588
96.05092561
96.16301629
96.25817915
96.33984796
96.41061622
96.4725295
96.52715031
96.57571125
96.61918736
96.65835992
96.69379057
96.72586797
96.75483744
96.78083314
96.80397142
96.82446231
96.84257685
96.85860057
96.87280183
96.88541871
96.89665659
96.9066906
96.91566966
96.92372072
96.9309524
96.93745814
96.94331878
96.94860458
96.95337695
96.95768977
96.96159046
96.96512098
96.96831851
96.97121611
96.97384323
96.97622621
96.9783886
96.98035151
96.98213392
96.98375288
96.98522375
96.98656037
96.98777524
96.98887963
96.98988376
96.99079685
96.99162725
96.99238253
96.99306955
96.99369453
96.99426311
96.99478041
96.99525107
96.99567932
96.996069
96.99642358
96.99674624
96.99703985
96.99730702
96.99755015
96.99777139
96.99797272
96.99815592
96.99832262
96.99847431
96.99861234
96.99873793
96.99885221
96.99895618
96.99905078
96.99913685
96.99921515
96.99928639
96.99935119
96.99941014
96.99946377
96.99951254
96.99955691
96.99959726
96.99963396
96.99966734
96.99969769
96.99972529
96.99975038
96.9997732
96.99979395
96.99981281
96.99982996
96.99984555
96.99985972
96.9998726
96.99988431
96.99989495
96.99990462
96.9999134
96.99992139
96.99992864
96.99993523
96.99994122
96.99994666
96.9999516
96.99995608
96.99996016
96.99996386
96.99996722
96.99997027
96.99997304
96.99997555
96.99997784
96.99997991
96.99998179
96.9999835
96.99998504
96.99998645
96.99998772
96.99998888
96.99998993
96.99999088
96.99999174
96.99999252
96.99999323
96.99999387
96.99999446
96.99999499
96.99999546
96.9999959
96.99999629
96.99999665
96.99999697
96.99999726
96.99999752
96.99999776
96.99999798
96.99999817
96.99999835
96.99999851
96.99999866
96.99999879
96.99999891
96.99999901
96.99999911
96.9999992
96.99999928
96.99999935
96.99999941
96.99999947
96.99999952
96.99999957
96.99999961
96.99999965
96.99999969
96.99999972
96.99999975
96.99999977
96.9999998
96.99999982
96.99999984
96.99999985
96.99999987
96.99999988
96.99999989
96.9999999
96.99999991
96.99999992
96.99999993
96.99999994
96.99999995
96.99999995
96.99999996
96.99999996
96.99999997
96.99999997
96.99999997
96.99999998
96.99999998
96.99999998
96.99999998
96.99999998
96.99999999
96.99999999
96.99999999
96.99999999
96.99999999
96.99999999
96.99999999
96.99999999
96.99999999
97
97
97
97
97
97
97
97
97
97
97
97
97
97
97
97
97
97
97
97
97
97
97
97
97
97
97
97
97
97
97
97
97
97
97
97
97
97
97
97
97
97
97
97
97
97
97
97
97
97
97
97
97
97
97
97
97
97
97
97
97
97
97
97
97
97
97
97
97
97
97
97
97
97
97
97
97
97
97
97
97
97
97
97
97
97
97
97
97
97
97
97
97
97
97
97
97
97
97
97
97
97
97
97
97
97
97
97
97
97
97
97
97
97
97
97
97
97
97
97
97
97
97
97
97
97
97
97
97
97
97
97
97
97
97
97
97
97
97
97
97
97
97
97
97
97
97
97
97
97
97
97
97
97
97
97
97
97
97
97
97
97
97
97
97
97
97
97
97
97
97
97
97
97
97
97
97
97
97
97
97
97
97
97
97
97
97
97
97
97
97
97
97
97
97
97
97
97
97
97
97
97
97
97
97
97
97
97
97
97
97
97
97
97
97
97
97
97
97
97
97
97
97
97
97
97
97
97
97
97
16.22318091
16.22666484
16.2332319
16.24252515
16.25421617
16.26800428
16.28361712
16.30081109
16.31937087
16.33910836
16.35986085
16.38148916
16.40387497
16.4269189
16.45053766
16.47466166
16.49923063
16.52420349
16.54954747
16.57523608
16.6012494
16.62757321
16.65419827
16.68112009
16.70833787
16.73585467
16.76367897
16.79181517
16.82026562
16.84903681
16.8781374
16.90757717
16.93736663
16.96751675
16.99803926
17.02894844
17.06025826
17.0919829
17.12413679
17.15673443
17.18979062
17.22332078
17.25734009
17.29186401
17.32690769
17.36248389
17.39860597
17.43529729
17.47257737
17.51046486
17.54897846
17.58813636
17.62795641
17.66845632
17.70965447
17.75156905
17.79421917
17.83762692
17.88181558
17.92681045
17.9726433
18.01932877
18.06688586
18.11533571
18.16470058
18.21500259
18.2662593
18.31850017
18.37175379
18.42604613
18.48140308
18.53785078
18.59541654
18.65413095
18.71402531
18.77513106
18.83748027
18.9011054
18.96604002
19.0323196
19.09998066
19.16905998
19.23959721
19.31162709
19.38518748
19.46032042
19.53707009
19.61548186
19.69560201
19.77747622
19.86114496
19.94664505
20.03400763
20.12328151
20.21452295
20.30779014
20.40314668
20.50061942
20.60024654
20.70206756
20.806118
20.91242426
21.0210235
21.1319633
21.24527581
21.36097842
21.47907684
21.59957611
21.7224069
21.84747967
21.97471104
22.10397226
22.23508018
22.36779067
22.50179522
22.63672252
22.77217155
22.90771352
23.04301046
23.17796683
23.31325556
23.4494398
23.58773088
23.72877292
23.8739619
24.02379333
24.17979705
24.34234983
24.51332223
24.69329319
24.88482621
25.08906443
25.30985617
25.54958323
25.81397325
26.10652561
26.43377549
26.79688083
27.20013443
27.64309363
28.12993237
28.66082014
29.24143843
29.87387566
30.56656359
31.32439432
32.1592842
33.07912082
34.09893864
35.22977506
36.49040516
37.89480488
39.46498749
41.21604253
43.1694634
45.33386028
47.719064
50.3189128
53.14013703
56.20476341
59.52670719
63.06354725
66.72966407
70.39131576
73.91387455
77.19947795
80.19311017
82.87216487
85.23439404
87.28907689
89.05176981
90.54212037
91.78333071
92.80162852
93.62491193
94.28182619
94.80046429
95.2069588
95.5245529
95.77304791
95.96852479
96.1236881
96.24834554
96.34979259
96.433487
96.50343892
96.56259088
96.6132039
96.65693273
96.69505137
96.72853452
96.75814162
96.78444626
96.80787025
96.8287183
96.84723554
96.86362219
96.87807371
96.8908014
96.90202056
96.91193136
96.9207117
96.92851417
96.93546717
96.94167919
96.94724206
96.95223385
96.95672127
96.96076169
96.96440468
96.96769339
96.97066547
96.97335397
96.97578796
96.97799318
96.97999244
96.98180601
96.98345198
96.98494652
96.98630408
96.98753766
96.98865893
96.98967838
96.99060549
96.99144879
96.99221599
96.99291409
96.99354938
96.99412758
96.99465389
96.99513299
96.99556915
96.99596625
96.9963278
96.99665699
96.99695674
96.99722967
96.99747819
96.99770449
96.99791055
96.99809818
96.99826903
96.99842459
96.99856624
96.99869521
96.99881264
96.99891955
96.99901688
96.99910549
96.99918616
96.99925959
96.99932644
96.99938729
96.99944267
96.99949308
96.99953895
96.99958071
96.9996187
96.99965327
96.99968473
96.99971336
96.9997394
96.9997631
96.99978465
96.99980426
96.9998221
96.99983832
96.99985307
96.99986649
96.99987869
96.99988979
96.99989988
96.99990905
96.99991739
96.99992497
96.99993187
96.99993813
96.99994382
96.999949
96.9999537
96.99995797
96.99996186
96.99996538
96.99996859
96.9999715
96.99997414
96.99997654
96.99997872
96.9999807
96.9999825
96.99998413
96.99998561
96.99998696
96.99998818
96.99998929
96.99999029
96.9999912
96.99999203
96.99999278
96.99999346
96.99999408
96.99999464
96.99999515
96.99999561
96.99999603
96.9999964
96.99999675
96.99999706
96.99999734
96.99999759
96.99999783
96.99999803
96.99999822
96.99999839
96.99999855
96.99999869
96.99999882
96.99999893
96.99999904
96.99999913
96.99999922
96.99999929
96.99999936
96.99999942
96.99999948
96.99999953
96.99999958
96.99999962
96.99999966
96.99999969
96.99999972
96.99999975
96.99999978
96.9999998
96.99999982
96.99999984
96.99999985
96.99999987
96.99999988
96.99999989
96.99999991
96.99999992
96.99999992
96.99999993
96.99999994
96.99999995
96.99999995
96.99999996
96.99999996
96.99999996
96.99999997
96.99999997
96.99999998
96.99999998
96.99999998
96.99999998
96.99999998
96.99999999
96.99999999
96.99999999
96.99999999
96.99999999
96.99999999
96.99999999
96.99999999
96.99999999
97
97
97
97
97
97
97
97
97
97
97
97
97
97
97
97
97
97
97
97
97
97
97
97
97
97
97
97
97
97
97
97
97
97
97
97
97
97
97
97
97
97
97
97
97
97
97
97
97
97
97
97
97
97
97
97
97
97
97
97
97
97
97
97
97
97
97
97
97
97
97
97
97
97
97
97
97
97
97
97
97
97
97
97
97
97
97
97
97
97
97
97
97
97
97
97
97
97
97
97
97
97
97
97
97
97
97
97
97
97
97
97
97
97
97
97
97
97
97
97
97
97
97
97
97
97
97
97
97
97
97
97
97
97
97
97
97
97
97
97
97
97
97
97
97
97
97
97
97
97
97
97
97
97
97
97
97
97
97
97
97
97
97
97
97
97
97
97
97
97
97
97
97
97
97
97
97
97
97
97
97
97
97
97
97
97
97
97
97
97
97
97
97
97
97
97
97
97
97
97
97
97
97
97
97
97
97
97
97
97
97
97
97
97
97
97
97
97
97
97
97
97
97
97
97
97
97
97
97
97
97
97
97
97
18.70627759
18.71033553
18.71796147
18.72872125
18.74222291
18.75811338
18.77607673
18.79583278
18.81713541
18.83977052
18.86355364
18.88832709
18.91395729
18.94033219
18.96735862
18.9949599
19.02307381
19.05165015
19.0806492
19.11004034
19.13980077
19.16991439
19.20037093
19.23116518
19.26229597
19.29376543
19.32557829
19.35774095
19.39026075
19.42314657
19.45640882
19.49005909
19.52410978
19.55857349
19.59346117
19.62879914
19.66459854
19.70087307
19.73763831
19.77491052
19.81270652
19.85104368
19.88993961
19.92941245
19.9694808
20.01016377
20.05148091
20.09345111
20.13609343
20.17942803
20.22347595
20.26825808
20.31379515
20.36010781
20.40721671
20.45514155
20.5038986
20.55351875
20.6040292
20.65545726
20.70783139
20.76118169
20.81553421
20.87090706
20.92732361
20.98480955
21.04339369
21.10310452
21.16396999
21.22601865
21.28927965
21.35378119
21.41954819
21.48662208
21.55503938
21.62483595
21.69604818
21.7687139
21.84287468
21.91858007
21.99587345
22.07479061
22.15536881
22.23764479
22.3216519
22.40744351
22.49506991
22.58458009
22.67602393
22.76945318
22.86491921
22.9624743
23.06217874
23.16408571
23.26823141
23.3746764
23.48347595
23.59467928
23.70833508
23.82449252
23.94320034
24.06450471
24.18845262
24.31510489
24.44448136
24.57660266
24.71148211
24.84911803
24.98947853
25.13251655
25.27817623
25.42637896
25.57697791
25.72979045
25.8846035
26.04118804
26.19932748
26.35884022
26.51967284
26.68199708
26.84632715
27.01336361
27.18406225
27.35932727
27.54026762
27.72785459
27.9233683
28.12789246
28.3429521
28.56996705
28.81105969
29.06837589
29.34495666
29.64392041
29.96947631
30.32546652
30.71627257
31.14471462
31.6139234
32.12585889
32.68356808
33.28961797
33.94827552
34.66383949
35.44269456
36.29142535
37.21903035
38.23463786
39.34972118
40.57572412
41.92618087
43.41389347
45.05313543
46.85580832
48.83312359
50.9904404
53.32973176
55.84679457
58.53906007
61.40440975
64.42932623
67.57222535
70.7654266
73.92057641
76.94977459
79.78432137
82.38035152
84.71566602
86.78375014
88.58843281
90.14027305
91.45464433
92.55078025
93.45061998
94.17790067
94.75739533
95.21354383
95.56920011
95.84493845
96.05840354
96.22411705
96.35366091
96.45595971
96.53772275
96.60392044
96.65823668
96.70335925
96.74129015
96.77350166
96.80109353
96.8249102
96.8455913
96.86361117
96.87934534
96.89308998
96.90509326
96.91556862
96.92471168
96.93270157
96.93970741
96.94587257
96.9513175
96.95614245
96.96043158
96.96425524
96.96767301
96.97073544
96.97348507
96.97595832
96.97818654
96.98019686
96.98201287
96.98365516
96.9851418
96.9864887
96.98770994
96.98881798
96.98982391
96.99073762
96.99156794
96.99232279
96.99300928
96.99363378
96.99420204
96.99471926
96.99519011
96.99561882
96.99600922
96.99636478
96.99668864
96.99698366
96.99725242
96.99749727
96.99772035
96.9979236
96.99810879
96.99827752
96.99843126
96.99857133
96.99869896
96.99881525
96.99892119
96.99901772
96.99910566
96.99918577
96.99925875
96.99932522
96.99938578
96.99944094
96.99949117
96.99953692
96.99957859
96.99961654
96.99965109
96.99968255
96.99971119
96.99973727
96.99976102
96.99978263
96.9998023
96.99982021
96.99983651
96.99985134
96.99986484
96.99987712
96.99988829
96.99989846
96.99990771
96.99991612
96.99992378
96.99993074
96.99993707
96.99994283
96.99994806
96.99995282
96.99995715
96.99996109
96.99996467
96.99996792
96.99997087
96.99997356
96.999976
96.99997822
96.99998023
96.99998206
96.99998373
96.99998524
96.99998661
96.99998785
96.99998899
96.99999001
96.99999095
96.99999179
96.99999256
96.99999326
96.99999389
96.99999446
96.99999499