/*--------------------------------*- C++ -*----------------------------------*\
| =========                 |                                                 |
| \\      /  F ield         | OpenFOAM: The Open Source CFD Toolbox           |
|  \\    /   O peration     | Version:  v2006                                 |
|   \\  /    A nd           | Website:  www.openfoam.com                      |
|    \\/     M anipulation  |                                                 |
\*---------------------------------------------------------------------------*/
FoamFile
{
    version     2.0;
    format      ascii;
    class       volScalarField;
    location    "0.1";
    object      theta2;
}
// * * * * * * * * * * * * * * * * * * * * * * * * * * * * * * * * * * * * * //

dimensions      [0 0 0 0 0 0 0];


internalField   nonuniform List<scalar> 
72000
(
3.560854812
3.561529754
3.56284723
3.5647525
3.567184828
3.570083914
3.573391478
3.577055289
3.581027798
3.585267892
3.589738483
3.594408958
3.599253032
3.604248125
3.609375794
3.614620641
3.619969614
3.625413205
3.630943529
3.636554126
3.64224099
3.648000593
3.65383064
3.659729541
3.665696663
3.671730556
3.677830581
3.683998701
3.690237284
3.696549437
3.7029379
3.709405339
3.715954201
3.722586343
3.729304948
3.736113319
3.743014588
3.750011867
3.757109383
3.764310718
3.77161933
3.779039022
3.786573148
3.794225979
3.802001219
3.80990293
3.817935131
3.826102593
3.834409331
3.842859354
3.851450101
3.860188454
3.869083836
3.878141061
3.887365107
3.896760401
3.906331078
3.916082379
3.926018744
3.936144205
3.946463681
3.956982671
3.967708309
3.978646452
3.989802769
4.001181627
4.012782379
4.024617349
4.036696062
4.049026657
4.061616213
4.074473278
4.087605348
4.101019722
4.114724371
4.128726291
4.14303668
4.157661308
4.172608534
4.187886757
4.20350279
4.219468518
4.235794057
4.252492453
4.26957558
4.287056267
4.304944733
4.323250464
4.341959343
4.361098514
4.380685952
4.400737818
4.421268226
4.4422869
4.463810056
4.485847621
4.508414467
4.53152412
4.555193002
4.579434745
4.604260162
4.629679347
4.655699997
4.682326735
4.709563259
4.737410187
4.765868251
4.7949284
4.824566993
4.85473374
4.885416189
4.916554907
4.948055951
4.979776461
5.011501686
5.042924394
5.073598719
5.102653869
5.131188409
5.148547649
5.172010647
5.181999206
5.204797246
5.210088415
5.23450915
5.236420775
5.263640871
5.262292731
5.292756944
5.287717863
5.322028442
5.312867506
5.352035354
5.338667213
5.386851134
5.375063387
5.467233799
5.489948901
5.619548479
5.671413809
5.831340629
5.907938759
6.097997461
6.200282122
6.426156264
6.56112608
6.835872326
7.026564666
7.378193664
7.649776073
8.121182678
8.520636369
9.176456653
9.783645175
10.73857983
11.70947553
13.18204444
14.79308674
16.53795303
18.61223024
22.16763451
27.5333409
34.82757878
42.55971661
49.65600279
55.85657394
61.25125904
65.98087487
70.15384457
73.83940192
77.08459969
79.92312131
82.38523955
84.5026112
86.30847044
87.83885017
89.12900368
90.21348093
91.12452265
91.8909213
92.537313
93.0846085
93.55022678
93.94840694
94.29061774
94.58621196
94.8427592
95.06660737
95.26308698
95.43616302
95.58870197
95.72364283
95.84514308
95.95558465
96.05694367
96.15214864
96.24293942
96.32629213
96.40088367
96.46677984
96.52470321
96.57558488
96.62034977
96.65983177
96.69475162
96.7257213
96.75325761
96.77779739
96.79971139
96.81931589
96.83688227
96.85264466
96.86680604
96.87954323
96.89101087
96.90134472
96.91066436
96.91907539
96.92667135
96.93353527
96.93974103
96.94535446
96.95043432
96.95503319
96.95919813
96.96297134
96.96639071
96.96949027
96.97230065
96.97484942
96.97716142
96.97925905
96.98116252
96.98289009
96.98445823
96.98588185
96.98717442
96.98834815
96.98941405
96.99038214
96.99126145
96.99206019
96.99278578
96.99344497
96.99404386
96.994588
96.99508241
96.99553165
96.99593987
96.99631081
96.9966479
96.99695422
96.99723258
96.99748555
96.99771544
96.99792436
96.99811422
96.99828675
96.99844355
96.99858603
96.99871552
96.99883319
96.99894012
96.99903728
96.99912558
96.99920581
96.99927871
96.99934495
96.99940513
96.99945982
96.9995095
96.99955464
96.99959564
96.99963289
96.99966673
96.99969747
96.99972539
96.99975076
96.99977379
96.99979471
96.99981371
96.99983096
96.99984663
96.99986085
96.99987377
96.9998855
96.99989615
96.99990581
96.99991458
96.99992255
96.99992977
96.99993633
96.99994229
96.99994769
96.99995259
96.99995704
96.99996107
96.99996473
96.99996805
96.99997106
96.99997379
96.99997626
96.99997851
96.99998054
96.99998239
96.99998406
96.99998557
96.99998695
96.99998819
96.99998932
96.99999034
96.99999127
96.9999921
96.99999286
96.99999355
96.99999417
96.99999473
96.99999524
96.9999957
96.99999612
96.9999965
96.99999684
96.99999715
96.99999743
96.99999768
96.99999791
96.99999811
96.9999983
96.99999847
96.99999862
96.99999876
96.99999888
96.99999899
96.99999909
96.99999918
96.99999927
96.99999934
96.99999941
96.99999947
96.99999952
96.99999957
96.99999961
96.99999965
96.99999969
96.99999972
96.99999975
96.99999978
96.9999998
96.99999982
96.99999984
96.99999986
96.99999987
96.99999988
96.9999999
96.99999991
96.99999992
96.99999993
96.99999993
96.99999994
96.99999995
96.99999995
96.99999996
96.99999996
96.99999997
96.99999997
96.99999997
96.99999998
96.99999998
96.99999998
96.99999998
96.99999999
96.99999999
96.99999999
96.99999999
96.99999999
96.99999999
96.99999999
96.99999999
96.99999999
97
97
97
97
97
97
97
97
97
97
97
97
97
97
97
97
97
97
97
97
97
97
97
97
97
97
97
97
97
97
97
97
97
97
97
97
97
97
97
97
97
97
97
97
97
97
97
97
97
97
97
97
97
97
97
97
97
97
97
97
97
97
97
97
97
97
97
97
97
97
97
97
97
97
97
97
97
97
97
97
97
97
97
97
97
97
97
97
97
97
97
97
97
97
97
97
97
97
97
97
97
97
97
97
97
97
97
97
97
97
97
97
97
97
97
97
97
97
97
97
97
97
97
97
97
97
97
97
97
97
97
97
97
97
97
97
97
97
97
97
97
97
97
97
97
97
97
97
97
97
97
97
97
97
97
97
97
97
97
97
97
97
97
97
97
97
97
97
97
97
97
97
97
97
97
97
97
97
97
97
97
97
97
97
97
97
97
97
97
97
97
97
97
97
97
97
97
97
97
97
97
97
97
97
97
97
97
97
97
97
97
97
97
97
97
97
97
97
97
97
97
7.388484639
7.389993979
7.392902183
7.397083035
7.402401092
7.408723557
7.415924003
7.423889033
7.43251566
7.441714366
7.451405442
7.461522568
7.472008325
7.482814436
7.493900223
7.505233108
7.51678478
7.528534303
7.540464678
7.552562216
7.564818038
7.577224077
7.589776195
7.602470904
7.615306125
7.628278945
7.64138362
7.65462475
7.668010912
7.681548805
7.695243906
7.709101133
7.723125338
7.73732113
7.751694334
7.766251117
7.780998034
7.795942577
7.811092824
7.826455876
7.842038771
7.857849407
7.873894644
7.890182924
7.906721478
7.92351817
7.940581734
7.957921341
7.975546442
7.993467635
8.011695663
8.030238514
8.049104586
8.068301057
8.087837243
8.10772168
8.127963005
8.148571214
8.169554792
8.190921548
8.212679704
8.234840825
8.257418761
8.280425926
8.303874884
8.327777768
8.352139516
8.376970333
8.402290985
8.428116774
8.454461584
8.481339977
8.508767052
8.53675647
8.565323304
8.594481088
8.624249259
8.654640233
8.685668432
8.717348987
8.749694943
8.782724809
8.816459458
8.850925602
8.886143441
8.922138992
8.958932986
8.996551562
9.035010176
9.074306953
9.114471377
9.155535145
9.197520335
9.240445563
9.284337235
9.329212944
9.375097354
9.422014867
9.469992944
9.5190558
9.569221602
9.620504703
9.672917811
9.7264649
9.781134117
9.836920152
9.893837683
9.951871909
10.01100089
10.07117644
10.13230689
10.19426449
10.25687084
10.31987155
10.38291273
10.44546894
10.50675598
10.56555931
10.62229556
10.66673703
10.71550128
10.7505827
10.79728304
10.82725679
10.87569866
10.90304536
10.9552561
10.9809039
11.03804638
11.06229811
11.12576562
11.14933562
11.2219091
11.24762734
11.33835081
11.3809122
11.53341754
11.63352535
11.84606543
11.99802828
12.26280469
12.46157529
12.77818237
13.02661774
13.40418898
13.71469239
14.17386937
14.58004134
15.1615502
15.70358441
16.46487785
17.20834461
18.23480108
19.28414153
20.71468383
22.24536081
24.29732452
26.49644722
28.85074142
31.58300859
35.47878845
40.31683236
46.31087738
52.60147485
58.51772443
63.81409896
68.4794861
72.57410401
76.16172169
79.29351285
82.0101635
84.34546396
86.33299129
88.00724478
89.40487855
90.56286312
91.51785256
92.30414733
92.95276098
93.48977157
93.93706549
94.31222178
94.62932066
94.89940687
95.13108732
95.33125441
95.50534633
95.65769606
95.79182818
95.91050626
96.01596218
96.1103687
96.19590174
96.27409324
96.34617461
96.4132253
96.47550688
96.53211645
96.58269435
96.62746593
96.66695784
96.7017873
96.73255362
96.75979454
96.78397563
96.80549393
96.8246866
96.8418403
96.85719971
96.87097478
96.88334655
96.89447202
96.90448791
96.91351384
96.92165487
96.92900357
96.93564174
96.94164192
96.94706852
96.95197892
96.95642429
96.96045037
96.9640981
96.96740418
96.97040154
96.97311979
96.97558555
96.9778228
96.97985315
96.98169609
96.98336921
96.98488839
96.98626801
96.98752104
96.98865923
96.98969322
96.99063263
96.9914862
96.99226181
96.99296665
96.9936072
96.99418937
96.9947185
96.99519943
96.99563658
96.99603395
96.99639515
96.9967235
96.99702198
96.99729331
96.99753997
96.9977642
96.99796804
96.99815335
96.9983218
96.99847493
96.99861414
96.99874068
96.99885571
96.99896027
96.99905531
96.9991417
96.99922023
96.9992916
96.99935647
96.99941543
96.99946902
96.99951772
96.99956197
96.99960219
96.99963873
96.99967194
96.99970212
96.99972953
96.99975444
96.99977707
96.99979763
96.9998163
96.99983327
96.99984868
96.99986267
96.99987538
96.99988693
96.99989741
96.99990693
96.99991557
96.99992342
96.99993054
96.99993701
96.99994288
96.99994821
96.99995305
96.99995744
96.99996142
96.99996503
96.99996831
96.99997129
96.99997399
96.99997644
96.99997866
96.99998067
96.9999825
96.99998415
96.99998565
96.99998701
96.99998825
96.99998936
96.99999038
96.9999913
96.99999213
96.99999288
96.99999356
96.99999418
96.99999474
96.99999525
96.9999957
96.99999612
96.9999965
96.99999684
96.99999714
96.99999742
96.99999767
96.9999979
96.99999811
96.99999829
96.99999846
96.99999861
96.99999875
96.99999887
96.99999898
96.99999909
96.99999918
96.99999926
96.99999933
96.9999994
96.99999946
96.99999952
96.99999956
96.99999961
96.99999965
96.99999968
96.99999972
96.99999975
96.99999977
96.9999998
96.99999982
96.99999984
96.99999985
96.99999987
96.99999988
96.99999989
96.99999991
96.99999992
96.99999992
96.99999993
96.99999994
96.99999995
96.99999995
96.99999996
96.99999996
96.99999997
96.99999997
96.99999997
96.99999998
96.99999998
96.99999998
96.99999998
96.99999999
96.99999999
96.99999999
96.99999999
96.99999999
96.99999999
96.99999999
96.99999999
96.99999999
97
97
97
97
97
97
97
97
97
97
97
97
97
97
97
97
97
97
97
97
97
97
97
97
97
97
97
97
97
97
97
97
97
97
97
97
97
97
97
97
97
97
97
97
97
97
97
97
97
97
97
97
97
97
97
97
97
97
97
97
97
97
97
97
97
97
97
97
97
97
97
97
97
97
97
97
97
97
97
97
97
97
97
97
97
97
97
97
97
97
97
97
97
97
97
97
97
97
97
97
97
97
97
97
97
97
97
97
97
97
97
97
97
97
97
97
97
97
97
97
97
97
97
97
97
97
97
97
97
97
97
97
97
97
97
97
97
97
97
97
97
97
97
97
97
97
97
97
97
97
97
97
97
97
97
97
97
97
97
97
97
97
97
97
97
97
97
97
97
97
97
97
97
97
97
97
97
97
97
97
97
97
97
97
97
97
97
97
97
97
97
97
97
97
97
97
97
97
97
97
97
97
97
97
97
97
97
97
97
97
97
97
97
97
97
97
97
97
97
97
97
97
97
97
10.64932287
10.65154781
10.65578859
10.66184623
10.66952022
10.67861772
10.68895895
10.70038123
10.71273899
10.72590444
10.73976593
10.75422863
10.76921112
10.78464528
10.80047339
10.81664908
10.83313297
10.84989472
10.86691066
10.88416189
10.90163524
10.91932011
10.93721025
10.95530192
10.97359263
10.99208132
11.01076452
11.0296475
11.0487387
11.06804519
11.08757381
11.107331
11.12732349
11.14755837
11.16804284
11.18878462
11.20979383
11.23108188
11.25265981
11.27453729
11.29672455
11.31923244
11.34207096
11.3652511
11.38878339
11.41267823
11.43694787
11.46160504
11.48666345
11.51213797
11.53804762
11.56440245
11.59121102
11.61848364
11.64623252
11.67446985
11.70320845
11.73246197
11.76224274
11.79256113
11.82341812
11.85483787
11.88684066
11.91944538
11.95267038
11.98653378
12.02105365
12.05624676
12.09212992
12.12872083
12.16603792
12.20409975
12.24292609
12.28253743
12.32295449
12.36419774
12.40629004
12.4492516
12.49310182
12.53785994
12.58354374
12.63016358
12.6777595
12.72637184
12.77602961
12.82676642
12.87861419
12.93161115
12.98580217
13.04120558
13.09784066
13.1557301
13.21489678
13.27536776
13.33717584
13.40034441
13.46488946
13.53086478
13.5983076
13.6672489
13.73771468
13.80972452
13.88329728
13.95844889
14.03519709
14.11354593
14.19347774
14.27494045
14.35793457
14.44241335
14.52824368
14.61526115
14.70325058
14.79191378
14.88083777
14.96944694
15.05696992
15.14242972
15.22491238
15.30173962
15.37725742
15.44822119
15.52128987
15.59074696
15.6653326
15.73647264
15.81521894
15.89017644
15.97528649
16.05617248
16.15031924
16.24034073
16.34855244
16.4550602
16.59017723
16.73343824
16.92743616
17.13572426
17.39753543
17.67176249
17.99963112
18.33928858
18.73588265
19.14786686
19.6260766
20.12905852
20.71567671
21.3465085
22.08618846
22.89564291
23.85092743
24.91291827
26.17419632
27.59651247
29.29162479
31.21562406
33.47892084
35.9734647
38.71530293
41.85318146
45.66159867
50.08257855
55.05808906
60.18898525
65.09828266
69.58966741
73.60533005
77.15293448
80.26140585
82.96276515
85.2878225
87.26658581
88.93018654
90.31170351
91.44608364
92.36877133
93.11460353
93.71570208
94.20085332
94.59423614
94.91568371
95.18085292
95.40175992
95.58774073
95.7459213
95.88180514
95.99954052
96.10232527
96.19276793
96.27292137
96.3444477
96.40878034
96.46713696
96.52040286
96.56923544
96.61404392
96.65489005
96.69161416
96.72428887
96.75320919
96.77877143
96.80138534
96.82143067
96.83924185
96.85510653
96.86926999
96.88194111
96.89329829
96.90349455
96.91266183
96.92091451
96.92835221
96.93506209
96.94112071
96.94659558
96.95154639
96.95602611
96.96008182
96.96375549
96.96708459
96.97010265
96.97283973
96.97532278
96.97757604
96.97962131
96.98147823
96.9831645
96.9846961
96.98608744
96.98735157
96.98850028
96.98954423
96.99049308
96.99135557
96.99213964
96.99285247
96.99350058
96.99408987
96.99462571
96.99511297
96.99555607
96.99595903
96.99632548
96.99665875
96.99696184
96.99723749
96.99748819
96.99771619
96.99792355
96.99811214
96.99828365
96.99843963
96.99858148
96.99871049
96.99882781
96.9989345
96.99903152
96.99911974
96.99919996
96.99927291
96.99933923
96.99939954
96.99945437
96.99950422
96.99954954
96.99959074
96.9996282
96.99966224
96.99969319
96.99972132
96.99974689
96.99977013
96.99979124
96.99981044
96.99982787
96.99984372
96.99985812
96.9998712
96.99988308
96.99989388
96.99990369
96.9999126
96.99992069
96.99992804
96.99993471
96.99994077
96.99994628
96.99995127
96.99995581
96.99995993
96.99996366
96.99996706
96.99997014
96.99997293
96.99997547
96.99997777
96.99997986
96.99998175
96.99998347
96.99998503
96.99998644
96.99998772
96.99998888
96.99998994
96.99999089
96.99999176
96.99999254
96.99999325
96.9999939
96.99999448
96.99999501
96.99999549
96.99999592
96.99999631
96.99999667
96.99999699
96.99999728
96.99999755
96.99999778
96.999998
96.99999819
96.99999837
96.99999853
96.99999867
96.9999988
96.99999892
96.99999903
96.99999912
96.99999921
96.99999929
96.99999936
96.99999942
96.99999948
96.99999953
96.99999958
96.99999962
96.99999966
96.9999997
96.99999973
96.99999975
96.99999978
96.9999998
96.99999982
96.99999984
96.99999986
96.99999987
96.99999989
96.9999999
96.99999991
96.99999992
96.99999993
96.99999993
96.99999994
96.99999995
96.99999995
96.99999996
96.99999996
96.99999997
96.99999997
96.99999997
96.99999998
96.99999998
96.99999998
96.99999998
96.99999999
96.99999999
96.99999999
96.99999999
96.99999999
96.99999999
96.99999999
96.99999999
96.99999999
97
97
97
97
97
97
97
97
97
97
97
97
97
97
97
97
97
97
97
97
97
97
97
97
97
97
97
97
97
97
97
97
97
97
97
97
97
97
97
97
97
97
97
97
97
97
97
97
97
97
97
97
97
97
97
97
97
97
97
97
97
97
97
97
97
97
97
97
97
97
97
97
97
97
97
97
97
97
97
97
97
97
97
97
97
97
97
97
97
97
97
97
97
97
97
97
97
97
97
97
97
97
97
97
97
97
97
97
97
97
97
97
97
97
97
97
97
97
97
97
97
97
97
97
97
97
97
97
97
97
97
97
97
97
97
97
97
97
97
97
97
97
97
97
97
97
97
97
97
97
97
97
97
97
97
97
97
97
97
97
97
97
97
97
97
97
97
97
97
97
97
97
97
97
97
97
97
97
97
97
97
97
97
97
97
97
97
97
97
97
97
97
97
97
97
97
97
97
97
97
97
97
97
97
97
97
97
97
97
97
97
97
97
97
97
97
97
97
97
97
97
97
97
97
97
97
97
13.55815629
13.5610312
13.56647467
13.57420887
13.58396949
13.59550916
13.60860048
13.62303856
13.6386412
13.65524864
13.67272226
13.6909434
13.70981102
13.72924017
13.74915952
13.76951017
13.79024366
13.81132225
13.83271699
13.85440481
13.87636889
13.89859705
13.92108084
13.94381654
13.96680288
13.99004224
14.01354168
14.03730512
14.0613341
14.08563423
14.11021293
14.13507832
14.16023893
14.18570348
14.2114799
14.23757197
14.26399834
14.29077432
14.31791316
14.34542709
14.37332887
14.40163175
14.43034847
14.45949212
14.48907596
14.51911247
14.54961608
14.58060291
14.61208955
14.64409272
14.67662911
14.70971389
14.74336178
14.77758721
14.81240567
14.84783275
14.88388485
14.92057967
14.95793498
14.99596885
15.03469831
15.07413517
15.11429622
15.15520919
15.19689696
15.23938255
15.28269444
15.32685198
15.37187127
15.41777287
15.46457889
15.51231192
15.5609957
15.61065598
15.66131898
15.71301106
15.76575954
15.81959048
15.87452842
15.93059149
15.98780755
16.04621771
16.10585876
16.16676674
16.22897642
16.29252532
16.35745247
16.42379962
16.49161086
16.56093686
16.63180039
16.70422181
16.77821984
16.85382611
16.93109633
17.01007608
17.09080943
17.17333395
17.25768602
17.34389994
17.43200571
17.52202846
17.6139879
17.70790134
17.80382632
17.90177978
18.00173988
18.10368218
18.20755895
18.31329155
18.42076061
18.52978586
18.64016897
18.75163054
18.86378919
18.97615254
19.0881326
19.19900534
19.30806259
19.41457577
19.51995452
19.62411396
19.7293583
19.83512083
19.94415397
20.05512704
20.17125005
20.29054322
20.41702033
20.54821976
20.68933391
20.83772507
21.00065478
21.17627393
21.37542492
21.59769325
21.85713303
22.14759839
22.47968073
22.84444403
23.25271346
23.69610643
24.18750955
24.72033137
25.31108645
25.95569234
26.67549866
27.46965902
28.36348807
29.35925362
30.48850089
31.75726034
33.20465665
34.83948379
36.70582959
38.80671295
41.17386943
43.78024548
46.64198549
49.82834496
53.42706459
57.39584196
61.63897701
65.93664591
70.07045823
73.9002849
77.36305784
80.4432347
83.14878576
85.49790708
87.51309198
89.21936156
90.64399114
91.81697373
92.77007834
93.53565953
94.14538732
94.62858579
95.01127924
95.31552829
95.55912586
95.75614609
95.91737236
96.0509238
96.16301592
96.2581799
96.33984951
96.41061824
96.47253172
96.52715249
96.57571322
96.61918899
96.65836114
96.69379135
96.72586833
96.75483744
96.78083283
96.80397088
96.82446163
96.84257609
96.85859981
96.87280111
96.88541806
96.89665604
96.90669015
96.91566932
96.92372048
96.93095224
96.93745805
96.94331873
96.94860457
96.95337697
96.9576898
96.9615905
96.96512102
96.96831854
96.97121613
96.97384325
96.97622622
96.9783886
96.98035151
96.98213392
96.98375288
96.98522374
96.98656036
96.98777523
96.98887963
96.98988376
96.99079685
96.99162725
96.99238253
96.99306955
96.99369453
96.99426311
96.99478041
96.99525107
96.99567932
96.996069
96.99642358
96.99674624
96.99703985
96.99730702
96.99755015
96.99777139
96.99797272
96.99815592
96.99832262
96.99847431
96.99861234
96.99873793
96.99885221
96.99895618
96.99905078
96.99913685
96.99921515
96.99928639
96.99935119
96.99941014
96.99946377
96.99951254
96.99955691
96.99959726
96.99963396
96.99966734
96.99969769
96.99972529
96.99975038
96.9997732
96.99979395
96.99981281
96.99982996
96.99984555
96.99985972
96.9998726
96.99988431
96.99989495
96.99990462
96.9999134
96.99992139
96.99992864
96.99993523
96.99994122
96.99994666
96.9999516
96.99995608
96.99996016
96.99996386
96.99996722
96.99997027
96.99997304
96.99997555
96.99997784
96.99997991
96.99998179
96.9999835
96.99998504
96.99998645
96.99998772
96.99998888
96.99998993
96.99999088
96.99999174
96.99999252
96.99999323
96.99999387
96.99999446
96.99999499
96.99999546
96.9999959
96.99999629
96.99999665
96.99999697
96.99999726
96.99999752
96.99999776
96.99999798
96.99999817
96.99999835
96.99999851
96.99999866
96.99999879
96.99999891
96.99999901
96.99999911
96.9999992
96.99999928
96.99999935
96.99999941
96.99999947
96.99999952
96.99999957
96.99999961
96.99999965
96.99999969
96.99999972
96.99999975
96.99999977
96.9999998
96.99999982
96.99999984
96.99999985
96.99999987
96.99999988
96.99999989
96.9999999
96.99999991
96.99999992
96.99999993
96.99999994
96.99999995
96.99999995
96.99999996
96.99999996
96.99999997
96.99999997
96.99999997
96.99999998
96.99999998
96.99999998
96.99999998
96.99999998
96.99999999
96.99999999
96.99999999
96.99999999
96.99999999
96.99999999
96.99999999
96.99999999
96.99999999
97
97
97
97
97
97
97
97
97
97
97
97
97
97
97
97
97
97
97
97
97
97
97
97
97
97
97
97
97
97
97
97
97
97
97
97
97
97
97
97
97
97
97
97
97
97
97
97
97
97
97
97
97
97
97
97
97
97
97
97
97
97
97
97
97
97
97
97
97
97
97
97
97
97
97
97
97
97
97
97
97
97
97
97
97
97
97
97
97
97
97
97
97
97
97
97
97
97
97
97
97
97
97
97
97
97
97
97
97
97
97
97
97
97
97
97
97
97
97
97
97
97
97
97
97
97
97
97
97
97
97
97
97
97
97
97
97
97
97
97
97
97
97
97
97
97
97
97
97
97
97
97
97
97
97
97
97
97
97
97
97
97
97
97
97
97
97
97
97
97
97
97
97
97
97
97
97
97
97
97
97
97
97
97
97
97
97
97
97
97
97
97
97
97
97
97
97
97
97
97
97
97
97
97
97
97
97
97
97
97
97
97
97
97
97
97
97
97
97
97
97
97
97
97
97
97
97
97
97
97
16.22318801
16.22667123
16.23323771
16.24253041
16.25422092
16.26800853
16.28362086
16.30081433
16.31937359
16.33911054
16.35986249
16.38149023
16.40387546
16.4269188
16.45053696
16.47466036
16.49922873
16.524201
16.54954441
16.57523248
16.6012453
16.62756866
16.6541933
16.68111478
16.70833226
16.73584882
16.76367293
16.79180899
16.82025934
16.84903046
16.87813099
16.90757071
16.9373601
16.96751013
16.99803251
17.02894151
17.0602511
17.09197544
17.12412898
17.1567262
17.18978192
17.22331159
17.25733038
17.29185379
17.32689698
17.36247276
17.3985945
17.43528561
17.47256561
17.51045319
17.54896707
17.58812544
17.62794616
17.66844695
17.70964615
17.75156196
17.79421343
17.83762264
17.8818128
17.92680917
17.97264346
18.01933026
18.06688852
18.11533933
18.16470489
18.21500731
18.2662641
18.31850472
18.37175776
18.42604921
18.48140499
18.53785128
18.59541545
18.65412816
18.71402078
18.77512484
18.83747247
18.90109623
18.96602975
19.03230857
19.09996927
19.16904864
19.23958637
19.31161716
19.38517888
19.4603135
19.53706514
19.61547907
19.69560147
19.77747791
19.86114873
19.94665064
20.03401465
20.12328947
20.21453124
20.3077981
20.40315363
20.50062462
20.6002493
20.70206722
20.806114
20.91241617
21.02101104
21.13194634
21.24525442
21.36095288
21.47904764
21.59954391
21.72237254
21.84744416
21.97467548
22.10393783
22.2350481
22.36776212
22.50177135
22.63670434
22.77215993
22.90770913
23.04301376
23.17797803
23.3132746
23.44946635
23.58776435
23.72881242
23.8740063
24.02384122
24.17984677
24.34239945
24.51336964
24.69333614
24.88486237
25.08909151
25.30987208
25.54958614
25.81396192
26.10649926
26.43373428
26.79682561
27.2000671
27.64301687
28.12984964
28.66073523
29.24135499
29.87379685
30.56649157
31.32433025
32.15922905
33.07907715
34.09891371
35.22978339
36.4904666
37.89494097
39.46521512
41.2163444
43.16975946
45.33406647
47.71906399
50.31861923
53.13949544
56.20380221
59.52571188
63.06270253
66.72906897
70.39097759
73.9137456
77.19949029
80.19320304
82.87229056
85.23452183
87.28918963
89.05186007
90.54218683
91.78337552
92.80165545
93.62492523
94.28182993
94.80046197
95.20695323
95.52454612
95.7730413
95.96851916
96.12368384
96.24834272
96.34979112
96.43348667
96.50343948
96.56259206
96.61320544
96.6569344
96.69505299
96.72853595
96.75814277
96.78444707
96.80787072
96.82871845
96.84723541
96.86362184
96.87807321
96.89080081
96.90201993
96.91193075
96.92071113
96.92851367
96.93546675
96.94167886
96.94724181
96.95223367
96.95672116
96.96076162
96.96440466
96.96769339
96.97066549
96.97335399
96.97578799
96.97799321
96.97999246
96.98180603
96.983452
96.98494652
96.98630408
96.98753766
96.98865893
96.98967838
96.99060548
96.99144878
96.99221599
96.99291408
96.99354937
96.99412758
96.99465388
96.99513299
96.99556915
96.99596625
96.9963278
96.99665699
96.99695673
96.99722967
96.99747819
96.99770449
96.99791055
96.99809818
96.99826903
96.99842459
96.99856624
96.99869521
96.99881264
96.99891955
96.99901688
96.99910549
96.99918616
96.99925959
96.99932644
96.99938729
96.99944267
96.99949308
96.99953895
96.9995807
96.9996187
96.99965327
96.99968473
96.99971336
96.9997394
96.9997631
96.99978465
96.99980426
96.9998221
96.99983832
96.99985307
96.99986649
96.9998787
96.99988979
96.99989988
96.99990905
96.99991739
96.99992498
96.99993187
96.99993813
96.99994382
96.999949
96.9999537
96.99995797
96.99996186
96.99996538
96.99996859
96.9999715
96.99997414
96.99997654
96.99997872
96.9999807
96.9999825
96.99998413
96.99998561
96.99998696
96.99998818
96.99998929
96.99999029
96.9999912
96.99999203
96.99999278
96.99999346
96.99999408
96.99999464
96.99999515
96.99999561
96.99999603
96.9999964
96.99999675
96.99999706
96.99999734
96.99999759
96.99999783
96.99999803
96.99999822
96.99999839
96.99999855
96.99999869
96.99999882
96.99999893
96.99999904
96.99999913
96.99999922
96.99999929
96.99999936
96.99999942
96.99999948
96.99999953
96.99999958
96.99999962
96.99999966
96.99999969
96.99999972
96.99999975
96.99999978
96.9999998
96.99999982
96.99999984
96.99999985
96.99999987
96.99999988
96.99999989
96.99999991
96.99999992
96.99999992
96.99999993
96.99999994
96.99999995
96.99999995
96.99999996
96.99999996
96.99999996
96.99999997
96.99999997
96.99999998
96.99999998
96.99999998
96.99999998
96.99999998
96.99999999
96.99999999
96.99999999
96.99999999
96.99999999
96.99999999
96.99999999
96.99999999
96.99999999
97
97
97
97
97
97
97
97
97
97
97
97
97
97
97
97
97
97
97
97
97
97
97
97
97
97
97
97
97
97
97
97
97
97
97
97
97
97
97
97
97
97
97
97
97
97
97
97
97
97
97
97
97
97
97
97
97
97
97
97
97
97
97
97
97
97
97
97
97
97
97
97
97
97
97
97
97
97
97
97
97
97
97
97
97
97
97
97
97
97
97
97
97
97
97
97
97
97
97
97
97
97
97
97
97
97
97
97
97
97
97
97
97
97
97
97
97
97
97
97
97
97
97
97
97
97
97
97
97
97
97
97
97
97
97
97
97
97
97
97
97
97
97
97
97
97
97
97
97
97
97
97
97
97
97
97
97
97
97
97
97
97
97
97
97
97
97
97
97
97
97
97
97
97
97
97
97
97
97
97
97
97
97
97
97
97
97
97
97
97
97
97
97
97
97
97
97
97
97
97
97
97
97
97
97
97
97
97
97
97
97
97
97
97
97
97
97
97
97
97
97
97
97
97
97
97
97
97
97
97
97
97
97
97
18.70628514
18.7103424
18.71796775
18.72872697
18.74222809
18.75811802
18.77608082
18.79583631
18.81713838
18.83977291
18.86355543
18.88832827
18.91395784
18.9403321
18.96735789
18.99495851
19.02307178
19.05164748
19.08064592
19.11003649
19.13979638
19.1699095
19.20036559
19.23115945
19.2622899
19.29375909
19.32557172
19.3577342
19.39025385
19.42313955
19.4564017
19.49005187
19.52410245
19.55856603
19.59345355
19.6287913
19.66459044
19.70086464
19.73762949
19.77490128
19.8126968
19.85103345
19.88992888
19.92940121
19.9694691
20.01015168
20.05146851
20.09343853
20.13608081
20.17941555
20.22346378
20.26824643
20.31378422
20.36009779
20.40720778
20.45513388
20.5038923
20.55351392
20.60402588
20.65545545
20.70783102
20.76118265
20.81553633
20.87091012
20.92732736
20.98481369
21.0433979
21.10310848
21.16397336
21.22602114
21.28928098
21.35378112
21.41954656
21.48661878
21.55503437
21.62482927
21.69603997
21.76870437
21.84286409
21.91856877
21.99586181
22.07477905
22.15535776
22.23763467
22.3216431
22.40743638
22.49506471
22.584577
22.67602303
22.76945445
22.86492248
22.96247931
23.0621851
23.16409292
23.26823888
23.37468347
23.48348194
23.59468349
23.70833681
23.82449115
23.94319532
24.06449562
24.1884392
24.31508703
24.44445915
24.57657637
24.71145224
24.84908524
24.98944366
25.13248058
25.27814026
25.42634414
25.57694545
25.72976153
25.88457923
26.04116943
26.19931538
26.3588353
26.51967555
26.68200762
26.84634548
27.0133894
27.18409491
27.35936593
27.54031113
27.72790154
27.92341705
28.12794109
28.34299856
28.57000912
28.81109512
29.0684025
29.34497243
29.64392363
29.96946579
30.32544156
30.71623338
31.14466205
31.61385926
32.12578571
32.68348906
33.28953663
33.94819525
34.6637634
35.442625
36.29136412
37.21897926
38.23459997
39.34970241
40.57573441
41.92623274
43.41399896
45.05329919
46.85601546
48.8333311
50.99059248
53.32976434
55.84665713
58.53873508
61.40393436
64.42881655
67.57178348
70.76511353
73.92040632
76.94972844
79.78436244
82.3804441
84.71577895
86.78386233
88.58853171
90.14035293
91.45470409
92.55082154
93.45064586
94.17791461
94.75740071
95.21354362
95.56919671
95.84493364
96.05839854
96.22411261
96.35365741
96.45595727
96.53772134
96.60391991
96.65823686
96.70335992
96.74129112
96.77350276
96.80109461
96.82491115
96.84559206
96.8636117
96.87934563
96.89309004
96.90509313
96.91556835
96.92471131
96.93270114
96.93970696
96.94587213
96.9513171
96.9561421
96.96043129
96.96425502
96.96767283
96.97073532
96.973485
96.97595828
96.97818652
96.98019686
96.98201288
96.98365518
96.98514182
96.98648872
96.98770995
96.98881799
96.98982392
96.99073762
96.99156794
96.99232279
96.99300928
96.99363378
96.99420204
96.99471926
96.99519011
96.99561882
96.99600922
96.99636478
96.99668864
96.99698366
96.99725242
96.99749727
96.99772035
96.9979236
96.99810878
96.99827752
96.99843126
96.99857133
96.99869896
96.99881525
96.99892119
96.99901772
96.99910565
96.99918577
96.99925874
96.99932522
96.99938578
96.99944093
96.99949117
96.99953692
96.99957859
96.99961654
96.99965109
96.99968255
96.99971119
96.99973727
96.99976102
96.99978263
96.9998023
96.99982021
96.99983651
96.99985134
96.99986484
96.99987712
96.99988829
96.99989846
96.99990771
96.99991612
96.99992378
96.99993074
96.99993707
96.99994283
96.99994806
96.99995282
96.99995715
96.99996109
96.99996467
96.99996792
96.99997087
96.99997356
96.999976
96.99997822
96.99998023
96.99998206
96.99998373
96.99998524
96.99998661
96.99998785
96.99998899
96.99999001
96.99999095
96.99999179
96.99999256
96.99999326
96.99999389
96.99999446
96.99999499