/*--------------------------------*- C++ -*----------------------------------*\
| =========                 |                                                 |
| \\      /  F ield         | OpenFOAM: The Open Source CFD Toolbox           |
|  \\    /   O peration     | Version:  v2006                                 |
|   \\  /    A nd           | Website:  www.openfoam.com                      |
|    \\/     M anipulation  |                                                 |
\*---------------------------------------------------------------------------*/
FoamFile
{
    version     2.0;
    format      ascii;
    class       volVectorField;
    location    "0.1";
    object      U;
}
// * * * * * * * * * * * * * * * * * * * * * * * * * * * * * * * * * * * * * //

dimensions      [0 1 -1 0 0 0 0];


internalField   nonuniform List<vector> 
72000
(
(-6.228160871e-05 0.03091069449 0)
(-4.360628527e-05 0.0308023244 0)
(-3.538116202e-05 0.03075920987 0)
(-2.895527723e-05 0.03073100971 0)
(-2.451398636e-05 0.03071039692 0)
(-2.12442419e-05 0.03069580191 0)
(-1.863380485e-05 0.03068508293 0)
(-1.574443599e-05 0.03067562861 0)
(-1.303650785e-05 0.03066569199 0)
(-1.053097266e-05 0.03065467061 0)
(-8.282942113e-06 0.03064153804 0)
(-6.201779988e-06 0.03062573473 0)
(-3.766165993e-06 0.03060679131 0)
(-1.03465836e-06 0.03058393944 0)
(1.970048889e-06 0.03055695117 0)
(4.477415747e-06 0.03052582739 0)
(6.905815056e-06 0.03049049898 0)
(9.328127447e-06 0.03045128477 0)
(1.192936541e-05 0.03040883002 0)
(1.482626732e-05 0.03036326161 0)
(1.769933468e-05 0.03031454311 0)
(1.989212342e-05 0.03026385311 0)
(2.092530919e-05 0.03021262832 0)
(2.090838708e-05 0.03016221236 0)
(2.107211229e-05 0.03011349987 0)
(2.131798785e-05 0.03006685035 0)
(2.158272761e-05 0.03002312088 0)
(2.199032329e-05 0.02998323383 0)
(2.251417599e-05 0.02994751239 0)
(2.27423684e-05 0.02991598997 0)
(2.237023417e-05 0.02988940871 0)
(2.196966646e-05 0.02986807172 0)
(2.169279559e-05 0.02985152015 0)
(2.156107556e-05 0.02983908042 0)
(2.165884179e-05 0.02982969777 0)
(2.200977314e-05 0.02982262212 0)
(2.285611166e-05 0.02981718406 0)
(2.441009872e-05 0.02981188375 0)
(2.631135282e-05 0.02980512118 0)
(2.875234843e-05 0.02979577321 0)
(3.170401761e-05 0.02978281784 0)
(3.502236959e-05 0.0297653877 0)
(3.872716131e-05 0.02974298402 0)
(4.269445415e-05 0.02971440467 0)
(4.597157624e-05 0.02967917295 0)
(4.787160466e-05 0.02963973559 0)
(4.953776987e-05 0.02959722438 0)
(5.048836865e-05 0.02955179816 0)
(5.057164241e-05 0.02950546318 0)
(5.004361205e-05 0.02946046734 0)
(4.886151191e-05 0.02941824092 0)
(4.590569874e-05 0.02938180102 0)
(4.180400619e-05 0.02935467931 0)
(3.67252682e-05 0.02933883704 0)
(3.082284284e-05 0.02933674755 0)
(2.429510374e-05 0.02935043721 0)
(1.720294948e-05 0.02938140647 0)
(9.813374618e-06 0.02943113066 0)
(2.581262385e-06 0.02950034779 0)
(-4.162361053e-06 0.02958907346 0)
(-9.827770859e-06 0.02969531736 0)
(-1.556402171e-05 0.02981806694 0)
(-2.027188803e-05 0.02995660977 0)
(-2.345201325e-05 0.03010852464 0)
(-2.378815602e-05 0.0302690202 0)
(-2.24082e-05 0.03043341551 0)
(-1.993157104e-05 0.03059910254 0)
(-1.647990887e-05 0.03076516546 0)
(-8.849510217e-06 0.03092548372 0)
(-4.221136444e-07 0.03107411335 0)
(8.570081037e-06 0.03121027594 0)
(1.741559538e-05 0.03133483731 0)
(2.968678395e-05 0.03144402947 0)
(4.074335081e-05 0.03153428519 0)
(5.090131369e-05 0.03160886292 0)
(5.946375331e-05 0.03167086838 0)
(6.872472482e-05 0.03172127893 0)
(7.664780007e-05 0.03176164026 0)
(8.188313912e-05 0.03179757815 0)
(8.389378417e-05 0.03183394105 0)
(8.335617347e-05 0.03187623461 0)
(8.235104484e-05 0.03192858661 0)
(7.850848529e-05 0.03199595418 0)
(7.171871006e-05 0.03208413751 0)
(6.286811436e-05 0.03219860861 0)
(5.404843993e-05 0.03234174043 0)
(4.360549204e-05 0.03251523193 0)
(3.285026958e-05 0.03272206886 0)
(2.287106663e-05 0.03296221788 0)
(1.39357921e-05 0.03323369848 0)
(5.836309752e-06 0.03353448866 0)
(8.687687011e-08 0.03386090969 0)
(-3.034932523e-06 0.03420705027 0)
(-3.117250487e-06 0.03456749235 0)
(1.533414926e-06 0.03493530727 0)
(1.051407981e-05 0.03530257216 0)
(2.257257028e-05 0.03566176526 0)
(3.761978867e-05 0.03600567427 0)
(5.583472598e-05 0.03632730875 0)
(7.693050214e-05 0.03662123076 0)
(0.0001000282543 0.0368831731 0)
(0.0001239200979 0.03711021382 0)
(0.0001476312352 0.03730107508 0)
(0.0001701430717 0.03745644365 0)
(0.0001911902644 0.03758009287 0)
(0.0002094173227 0.03767806545 0)
(0.0002235053331 0.03775707713 0)
(0.0002322149489 0.03782465718 0)
(0.0002350484192 0.03789129849 0)
(0.0002319813122 0.03797001301 0)
(0.0002233600072 0.03807237712 0)
(0.0002088421966 0.03820690977 0)
(0.0001874788526 0.03838586527 0)
(0.0001586346761 0.03861622881 0)
(0.0001327491289 0.03893447561 0)
(6.571557869e-05 0.03928039495 0)
(0.0001485496503 0.03977108725 0)
(-0.0001749179778 0.04032462837 0)
(-0.0001485815853 0.04089454684 0)
(-0.000205870566 0.04148891967 0)
(1.712392483e-05 0.04228553342 0)
(-0.0002302607155 0.04293613258 0)
(6.447464792e-05 0.04383832731 0)
(-0.000267168726 0.04454499493 0)
(0.0001359724926 0.04559301429 0)
(-0.0002864738466 0.04634219594 0)
(0.0002407478905 0.04752950564 0)
(-0.0002781821954 0.04830471275 0)
(0.000396701764 0.04961568504 0)
(-0.0002333396384 0.05038044241 0)
(0.0006067575429 0.05180859223 0)
(-0.0001717152181 0.05246127969 0)
(0.0008377420201 0.05393280881 0)
(-0.0002396672459 0.0543483724 0)
(0.001560052261 0.05557492891 0)
(0.001108906101 0.05597641558 0)
(0.002156967498 0.05778480971 0)
(0.0008382907912 0.0580100837 0)
(0.00232757354 0.0602485747 0)
(0.0009410620206 0.06098627791 0)
(0.002558193772 0.06397032229 0)
(0.00108671427 0.06546363453 0)
(0.002799478575 0.0694812647 0)
(0.001271952643 0.07192457418 0)
(0.003049681161 0.07713694439 0)
(0.001693460631 0.08040886306 0)
(0.003771148242 0.08675410337 0)
(0.002037349781 0.08938262063 0)
(0.002898824504 0.09173210529 0)
(-0.0026077856 0.102654892 0)
(0.002982811681 0.1233403594 0)
(0.004548813087 0.1120952074 0)
(-0.001322921198 0.1125092598 0)
(-0.008894786067 0.1552341437 0)
(0.003665345704 0.2245426115 0)
(0.02489055607 0.2074746924 0)
(-0.0005088658393 0.2177812862 0)
(-0.01218771787 0.2627178732 0)
(-0.0009879997198 0.2207702462 0)
(-0.04597114445 0.3115065132 0)
(-0.03758499482 0.4620645341 0)
(0.01272053703 0.4090092144 0)
(0.04518109115 0.3614016513 0)
(0.02593599932 0.3501040186 0)
(0.01485796116 0.348887989 0)
(0.0101055522 0.3541560617 0)
(0.007771351319 0.3575471049 0)
(0.006012427488 0.3588830579 0)
(0.004423873969 0.3573899003 0)
(0.002891752783 0.3530496627 0)
(0.001407647322 0.346193199 0)
(6.059214357e-05 0.337310534 0)
(-0.001036094455 0.3269224808 0)
(-0.001756591803 0.3154520711 0)
(-0.002220642733 0.303229089 0)
(-0.002528712091 0.2907197865 0)
(-0.002671696369 0.2782717623 0)
(-0.002620517487 0.2661472608 0)
(-0.002481050857 0.2545345012 0)
(-0.002322121685 0.2435939828 0)
(-0.002169326117 0.2334325715 0)
(-0.002021814229 0.2240989699 0)
(-0.001881883637 0.215622588 0)
(-0.001756812929 0.2080149844 0)
(-0.00164978936 0.201248141 0)
(-0.001551008196 0.1952825211 0)
(-0.001447658309 0.1900902307 0)
(-0.001350693238 0.1856171042 0)
(-0.001264591137 0.1817600055 0)
(-0.001180384036 0.1784173176 0)
(-0.001098349982 0.1754882397 0)
(-0.001009719972 0.1728627043 0)
(-0.000912839346 0.1704209022 0)
(-0.0008189310872 0.1680657305 0)
(-0.0007208772636 0.1657164946 0)
(-0.0006081427256 0.1632951748 0)
(-0.0005026747339 0.1607583439 0)
(-0.0004200629934 0.1581310077 0)
(-0.0003519415165 0.1554469305 0)
(-0.0002969229641 0.1527418052 0)
(-0.000255705762 0.1500643626 0)
(-0.0002278955149 0.1474694932 0)
(-0.0002121467023 0.1450115423 0)
(-0.0002065572653 0.1427379763 0)
(-0.0002088814467 0.1406843082 0)
(-0.0002167098749 0.1388706487 0)
(-0.0002277259149 0.1373001957 0)
(-0.000239854616 0.1359598134 0)
(-0.0002513613122 0.1348224353 0)
(-0.0002608831931 0.1338507907 0)
(-0.0002675040449 0.1330019186 0)
(-0.0002707344544 0.1322319708 0)
(-0.0002704215492 0.1315006651 0)
(-0.0002667234242 0.1307749389 0)
(-0.0002600246327 0.1300314914 0)
(-0.0002508521256 0.1292579925 0)
(-0.0002397699633 0.1284528881 0)
(-0.0002273569567 0.1276240053 0)
(-0.0002141558334 0.1267862586 0)
(-0.0002006252559 0.1259587387 0)
(-0.0001871151134 0.1251615709 0)
(-0.0001738967206 0.1244129901 0)
(-0.0001611688412 0.1237269655 0)
(-0.0001490662216 0.1231115648 0)
(-0.0001376744681 0.1225682034 0)
(-0.0001270627132 0.1220918039 0)
(-0.0001172965501 0.1216717751 0)
(-0.0001084396784 0.121293592 0)
(-0.0001005500289 0.1209407354 0)
(-9.368107494e-05 0.1205967347 0)
(-8.787489227e-05 0.120247054 0)
(-8.315376392e-05 0.1198806016 0)
(-7.950187344e-05 0.1194907049 0)
(-7.685761334e-05 0.1190754728 0)
(-7.511072659e-05 0.1186375615 0)
(-7.410816899e-05 0.1181834232 0)
(-7.36523822e-05 0.1177221608 0)
(-7.351184122e-05 0.1172641453 0)
(-7.34442135e-05 0.116819606 0)
(-7.320813398e-05 0.1163973485 0)
(-7.258475986e-05 0.1160037332 0)
(-7.139197102e-05 0.1156420265 0)
(-6.950133997e-05 0.1153121689 0)
(-6.683796149e-05 0.1150109391 0)
(-6.339822769e-05 0.1147324735 0)
(-5.924799813e-05 0.1144690732 0)
(-5.451208599e-05 0.1142121602 0)
(-4.936098952e-05 0.1139532642 0)
(-4.400290315e-05 0.1136849432 0)
(-3.866237555e-05 0.1134015351 0)
(-3.356890743e-05 0.1130996734 0)
(-2.893515712e-05 0.1127785318 0)
(-2.494308955e-05 0.1124397907 0)
(-2.173391008e-05 0.112087331 0)
(-1.942013684e-05 0.1117268072 0)
(-1.804006325e-05 0.1113649703 0)
(-1.759098813e-05 0.1110090697 0)
(-1.802146108e-05 0.1106661071 0)
(-1.924653188e-05 0.1103423524 0)
(-2.116132783e-05 0.1100428815 0)
(-2.363077766e-05 0.1097712742 0)
(-2.649082685e-05 0.1095295113 0)
(-2.960257149e-05 0.1093180303 0)
(-3.282059465e-05 0.1091359025 0)
(-3.600389888e-05 0.1089810899 0)
(-3.905040461e-05 0.1088508124 0)
(-4.186117092e-05 0.1087418618 0)
(-4.435882202e-05 0.1086508957 0)
(-4.649667826e-05 0.1085747252 0)
(-4.824252943e-05 0.1085104129 0)
(-4.958420926e-05 0.1084554284 0)
(-5.052671015e-05 0.1084075738 0)
(-5.107646393e-05 0.1083649383 0)
(-5.126283117e-05 0.1083257992 0)
(-5.110958224e-05 0.108288417 0)
(-5.065085811e-05 0.1082510201 0)
(-4.993021984e-05 0.1082115678 0)
(-4.897421026e-05 0.1081678522 0)
(-4.782905698e-05 0.1081174082 0)
(-4.653596373e-05 0.108057629 0)
(-4.513399571e-05 0.1079859137 0)
(-4.366987007e-05 0.1078998275 0)
(-4.219022699e-05 0.1077972581 0)
(-4.074410771e-05 0.1076767013 0)
(-3.936842147e-05 0.1075373199 0)
(-3.81215722e-05 0.1073791707 0)
(-3.704319361e-05 0.1072032115 0)
(-3.616410807e-05 0.1070113411 0)
(-3.553076325e-05 0.1068063603 0)
(-3.515859044e-05 0.1065917744 0)
(-3.506386569e-05 0.1063717436 0)
(-3.525379553e-05 0.106150711 0)
(-3.571723225e-05 0.1059333441 0)
(-3.642754987e-05 0.105724108 0)
(-3.736630107e-05 0.1055272187 0)
(-3.848713655e-05 0.1053462824 0)
(-3.973086537e-05 0.1051842551 0)
(-4.104380619e-05 0.1050432509 0)
(-4.236428523e-05 0.1049245076 0)
(-4.362200558e-05 0.104828394 0)
(-4.475659552e-05 0.1047543779 0)
(-4.57027595e-05 0.1047011711 0)
(-4.641576216e-05 0.1046668072 0)
(-4.682513103e-05 0.1046487692 0)
(-4.686706752e-05 0.1046441332 0)
(-4.64914071e-05 0.1046496587 0)
(-4.569621247e-05 0.1046619639 0)
(-4.455299431e-05 0.1046777192 0)
(-4.314843386e-05 0.1046938556 0)
(-4.143475259e-05 0.1047076764 0)
(-3.921969326e-05 0.1047165122 0)
(-3.663211838e-05 0.1047179075 0)
(-3.396113822e-05 0.1047103054 0)
(-3.111625913e-05 0.1046926924 0)
(-2.808875589e-05 0.1046642189 0)
(-2.489750902e-05 0.1046245762 0)
(-2.15679689e-05 0.1045737927 0)
(-1.822607308e-05 0.1045122623 0)
(-1.498216601e-05 0.1044408508 0)
(-1.182882162e-05 0.1043606143 0)
(-8.782982269e-06 0.104272671 0)
(-5.890707697e-06 0.1041781938 0)
(-3.206311393e-06 0.1040785446 0)
(-5.51678398e-07 0.1039745715 0)
(1.658712162e-06 0.1038670538 0)
(3.307778861e-06 0.1037571516 0)
(4.511803495e-06 0.1036457103 0)
(5.539180043e-06 0.1035330282 0)
(6.421244308e-06 0.1034190282 0)
(7.106850031e-06 0.1033036218 0)
(7.558520951e-06 0.1031866248 0)
(7.771810786e-06 0.1030677609 0)
(7.757684941e-06 0.1029466672 0)
(7.530663471e-06 0.1028229813 0)
(7.101691115e-06 0.1026963836 0)
(6.479198069e-06 0.1025666611 0)
(5.670587352e-06 0.1024337412 0)
(4.683271909e-06 0.1022977218 0)
(3.526284071e-06 0.1021588845 0)
(2.207856746e-06 0.102017695 0)
(7.339266021e-07 0.1018747998 0)
(-8.868316205e-07 0.1017310052 0)
(-2.645250258e-06 0.1015872444 0)
(-4.532240631e-06 0.1014445455 0)
(-6.53576722e-06 0.1013039882 0)
(-8.645951578e-06 0.1011666605 0)
(-1.085434733e-05 0.101033623 0)
(-1.315072185e-05 0.1009058682 0)
(-1.552402893e-05 0.1007842811 0)
(-1.796238626e-05 0.1006696112 0)
(-2.045074106e-05 0.1005624422 0)
(-2.29750806e-05 0.1004631693 0)
(-2.552264943e-05 0.100371987 0)
(-2.807910748e-05 0.1002888776 0)
(-3.062911896e-05 0.1002136047 0)
(-3.315437845e-05 0.1001457093 0)
(-3.563687927e-05 0.1000845113 0)
(-3.805940997e-05 0.1000291197 0)
(-4.040520985e-05 0.09997844497 0)
(-4.26579804e-05 0.09993121833 0)
(-4.479978967e-05 0.09988601123 0)
(-4.681500019e-05 0.09984126162 0)
(-4.869017635e-05 0.09979530911 0)
(-5.041381509e-05 0.09974643202 0)
(-5.197553763e-05 0.09969288753 0)
(-5.336613559e-05 0.09963295218 0)
(-5.458017388e-05 0.0995649667 0)
(-5.561513677e-05 0.099487382 0)
(-5.647111887e-05 0.09939880206 0)
(-5.714898396e-05 0.09929802059 0)
(-5.765335061e-05 0.0991840541 0)
(-5.799171144e-05 0.09905617183 0)
(-5.817386593e-05 0.098913916 0)
(-5.821022827e-05 0.09875711139 0)
(-5.811374966e-05 0.09858586695 0)
(-5.789927022e-05 0.09840057098 0)
(-5.758279948e-05 0.09820187585 0)
(-5.71805619e-05 0.09799067351 0)
(-5.67098638e-05 0.09776806485 0)
(-5.618839959e-05 0.09753532425 0)
(-5.563387158e-05 0.09729385872 0)
(-5.506370663e-05 0.09704516427 0)
(-5.449481692e-05 0.09679078119 0)
(-5.394339224e-05 0.09653224947 0)
(-5.342473527e-05 0.09627106585 0)
(-5.295312534e-05 0.09600864386 0)
(-5.25417105e-05 0.09574627763 0)
(-5.220243078e-05 0.09548511079 0)
(-5.194596882e-05 0.09522611074 0)
(-5.178171045e-05 0.09497004904 0)
(-5.171773806e-05 0.09471748812 0)
(-5.176082367e-05 0.09446877445 0)
(-5.191642585e-05 0.09422403813 0)
(-5.218870161e-05 0.09398319867 0)
(-5.258051649e-05 0.09374597668 0)
(-5.309344615e-05 0.09351191095 0)
(-5.37277852e-05 0.09328038027 0)
(-5.448255217e-05 0.09305062941 0)
(-5.535549223e-05 0.09282179831 0)
(-5.634308391e-05 0.09259295356 0)
(-5.744054993e-05 0.0923631213 0)
(-5.864187626e-05 0.09213132039 0)
(-5.993983432e-05 0.09189659477 0)
(-6.132602848e-05 0.0916580441 0)
(-6.279095628e-05 0.09141485142 0)
(-6.432406904e-05 0.09116630726 0)
(-6.591388554e-05 0.09091182892 0)
(-6.754810437e-05 0.09065097482 0)
(-6.921374358e-05 0.09038345296 0)
(-7.089730832e-05 0.09010912351 0)
(-7.258496817e-05 0.08982799551 0)
(-7.426276439e-05 0.08954021773 0)
(-7.591682167e-05 0.0892460643 0)
(-7.753357463e-05 0.08894591555 0)
(-7.909999899e-05 0.08864023518 0)
(-8.06038372e-05 0.08832954444 0)
(-8.203382906e-05 0.08801439463 0)
(-8.337991996e-05 0.087695339 0)
(-8.463345402e-05 0.08737290523 0)
(-8.578734535e-05 0.08704756959 0)
(-8.683622364e-05 0.08671973403 0)
(-8.777653612e-05 0.08638970677 0)
(-8.860662837e-05 0.0860576875 0)
(-8.93267722e-05 0.08572375758 0)
(-8.993915611e-05 0.08538787559 0)
(-9.044784211e-05 0.0850498783 0)
(-9.085866862e-05 0.08470948709 0)
(-9.117911798e-05 0.08436631929 0)
(-9.141815714e-05 0.08401990396 0)
(-9.158602317e-05 0.08366970144 0)
(-9.169400554e-05 0.08331512559 0)
(-9.175418525e-05 0.08295556802 0)
(-9.177916632e-05 0.08259042303 0)
(-9.178180649e-05 0.08221911226 0)
(-9.177491653e-05 0.08184110816 0)
(-9.177100725e-05 0.08145595517 0)
(-9.178200286e-05 0.08106328784 0)
(-9.181901332e-05 0.08066284521 0)
(-9.189211281e-05 0.0802544811 0)
(-9.20101322e-05 0.07983816962 0)
(-9.218053369e-05 0.07941400634 0)
(-9.240927826e-05 0.07898220469 0)
(-9.270075899e-05 0.07854308833 0)
(-9.305776831e-05 0.07809707961 0)
(-9.348152212e-05 0.07764468509 0)
(-9.397169479e-05 0.07718647848 0)
(-9.452652714e-05 0.07672308213 0)
(-9.514294745e-05 0.07625514778 0)
(-9.581672693e-05 0.0757833374 0)
(-9.654264907e-05 0.07530830495 0)
(-9.731472497e-05 0.07483067983 0)
(-9.812638304e-05 0.07435105257 0)
(-9.8970689e-05 0.07386996321 0)
(-9.984055534e-05 0.07338789273 0)
(-0.0001007289365 0.0729052577 0)
(-0.0001016290135 0.07242240804 0)
(-0.000102534363 0.07193962777 0)
(-0.0001034390966 0.07145713845 0)
(-0.0001043379757 0.07097510484 0)
(-0.0001052264994 0.07049364218 0)
(-0.0001061009592 0.07001282463 0)
(-0.0001069584619 0.06953269411 0)
(-0.0001077969362 0.06905326905 0)
(-0.000108615096 0.06857455234 0)
(-0.0001094123944 0.06809653815 0)
(-0.0001101889493 0.06761921701 0)
(-0.0001109454529 0.06714257913 0)
(-0.000111683078 0.06666661557 0)
(-0.0001124033638 0.06619131741 0)
(-0.0001131081098 0.06571667294 0)
(-0.0001137992594 0.06524266328 0)
(-0.0001144788022 0.06476925656 0)
(-0.0001151486673 0.06429640133 0)
(-0.0001158106453 0.06382401965 0)
(-0.0001164663044 0.06335200028 0)
(-0.0001171169266 0.06288019271 0)
(-0.0001177634731 0.0624084024 0)
(-0.0001184065407 0.06193638778 0)
(-0.0001190463501 0.0614638593 0)
(-0.0001196827445 0.06099048085 0)
(-0.000120315189 0.06051587369 0)
(-0.0001209428007 0.06003962283 0)
(-0.0001215643756 0.05956128587 0)
(-0.0001221784182 0.05908040393 0)
(-0.0001227831894 0.05859651439 0)
(-0.0001233767441 0.05810916496 0)
(-0.0001239569849 0.05761792851 0)
(-0.0001245216962 0.05712241812 0)
(-0.0001250685929 0.05662230176 0)
(-0.0001255953584 0.05611731592 0)
(-0.0001260996756 0.05560727771 0)
(-0.0001265792593 0.05509209489 0)
(-0.0001270318766 0.05457177342 0)
(-0.0001274553758 0.05404642213 0)
(-0.00012784768 0.05351625451 0)
(-0.0001282068139 0.05298158718 0)
(-0.0001285309006 0.05244283552 0)
(-0.000128818159 0.05190050624 0)
(-0.0001290669077 0.05135518731 0)
(-0.0001292755576 0.05080753562 0)
(-0.0001294426027 0.0502582628 0)
(-0.0001295666231 0.04970811966 0)
(-0.0001296462753 0.04915787979 0)
(-0.0001296802877 0.04860832281 0)
(-0.0001296674617 0.04806021806 0)
(-0.0001296066744 0.04751430877 0)
(-0.0001294968791 0.04697129764 0)
(-0.0001293371156 0.0464318339 0)
(-0.0001291265146 0.04589650234 0)
(-0.0001288643152 0.04536581437 0)
(-0.0001285498826 0.04484020151 0)
(-0.0001281827152 0.0443200111 0)
(-0.000127762473 0.04380550441 0)
(-0.0001272889941 0.04329685695 0)
(-0.0001267623136 0.04279416084 0)
(-0.0001261826835 0.04229742905 0)
(-0.0001255505928 0.04180660125 0)
(-0.0001248667769 0.04132155099 0)
(-0.000124132237 0.04084209392 0)
(-0.0001233482499 0.04036799676 0)
(-0.0001225163637 0.03989898669 0)
(-0.0001216384039 0.03943476108 0)
(-0.0001207164678 0.03897499699 0)
(-0.0001197529077 0.03851936068 0)
(-0.0001187503156 0.03806751648 0)
(-0.0001177114969 0.03761913532 0)
(-0.0001166394408 0.03717390245 0)
(-0.000115537282 0.03673152454 0)
(-0.0001144082612 0.03629173602 0)
(-0.0001132556809 0.03585430445 0)
(-0.0001120828478 0.03541903527 0)
(-0.0001108930272 0.03498577552 0)
(-0.0001096893913 0.03455441683 0)
(-0.000108474956 0.03412489751 0)
(-0.000107252542 0.03369720374 0)
(-0.0001060247152 0.03327136997 0)
(-0.000104793742 0.03284747835 0)
(-0.0001035615565 0.03242565739 0)
(-0.0001023297176 0.03200607961 0)
(-0.000101099386 0.03158895841 0)
(-9.987131266e-05 0.03117454403 0)
(-9.864581929e-05 0.03076311869 0)
(-9.742280285e-05 0.030354991 0)
(-9.62017481e-05 0.02995048959 0)
(-9.49817457e-05 0.02954995626 0)
(-9.376151433e-05 0.02915373861 0)
(-9.25394429e-05 0.02876218238 0)
(-9.1313631e-05 0.02837562371 0)
(-9.0081938e-05 0.02799438144 0)
(-8.884203937e-05 0.02761874977 0)
(-8.759148006e-05 0.02724899141 0)
(-8.632774318e-05 0.02688533148 0)
(-8.504830065e-05 0.02652795243 0)
(-8.375067477e-05 0.02617699005 0)
(-8.243250027e-05 0.02583253083 0)
(-8.109157707e-05 0.02549461082 0)
(-7.972590818e-05 0.02516321602 0)
(-7.833375589e-05 0.0248382843 0)
(-7.69136646e-05 0.02451970898 0)
(-7.546449368e-05 0.02420734391 0)
(-7.398543463e-05 0.02390100983 0)
(-7.247601784e-05 0.02360050213 0)
(-7.093611613e-05 0.02330559943 0)
(-6.936593217e-05 0.02301607296 0)
(-6.77659855e-05 0.02273169646 0)
(-6.613708599e-05 0.02245225606 0)
(-6.448029708e-05 0.02217756014 0)
(-6.279690659e-05 0.02190744851 0)
(-6.108836933e-05 0.02164180097 0)
(-5.935626923e-05 0.02138054461 0)
(-5.760225968e-05 0.0211236599 0)
(-5.582800917e-05 0.02087118518 0)
(-5.403514689e-05 0.02062321949 0)
(-5.222520159e-05 0.02037992366 0)
(-5.03995491e-05 0.02014151958 0)
(-4.85593489e-05 0.01990828767 0)
(-4.670549664e-05 0.01968056278 0)
(-4.483856713e-05 0.01945872846 0)
(-4.295875939e-05 0.01924321002 0)
(-4.10658446e-05 0.01903446639 0)
(-3.915912049e-05 0.01883298134 0)
(-3.723733988e-05 0.01863925418 0)
(-3.529866303e-05 0.0184537903 0)
(-3.334057014e-05 0.01827709202 0)
(-3.135977347e-05 0.01810964999 0)
(-2.935212724e-05 0.01795193565 0)
(-2.7312601e-05 0.01780439495 0)
(-2.523526819e-05 0.01766744372 0)
(-2.311348967e-05 0.0175414658 0)
(-2.09393917e-05 0.01742681389 0)
(-1.870300707e-05 0.01732381378 0)
(-1.639137364e-05 0.01723277322 0)
(-1.398981172e-05 0.0171539675 0)
(-1.150091619e-05 0.01708763705 0)
(-8.919882384e-06 0.01703431078 0)
(-6.160696009e-06 0.01699407621 0)
(-4.078091893e-06 0.0169633904 0)
(-4.407541758e-06 0.01694944646 0)
(8.406114209e-06 0.01698973841 0)
(1.017172091e-05 0.01681131346 0)
(-0.0002666330696 0.08040557263 0)
(-0.0002170975084 0.08028258469 0)
(-0.0001780872838 0.08021179866 0)
(-0.0001507063268 0.08015763403 0)
(-0.0001299356298 0.08011240872 0)
(-0.0001142613864 0.0800744214 0)
(-0.0001016784927 0.08004097053 0)
(-9.072422583e-05 0.08000969034 0)
(-8.105095318e-05 0.07997910421 0)
(-7.201301954e-05 0.07994716232 0)
(-6.318456733e-05 0.0799122823 0)
(-5.433338757e-05 0.07987318239 0)
(-4.533402164e-05 0.07982918346 0)
(-3.616370963e-05 0.07977990748 0)
(-2.722094785e-05 0.07972586896 0)
(-1.781664029e-05 0.07966629141 0)
(-8.560616353e-06 0.07960035687 0)
(5.103844917e-07 0.07952903756 0)
(9.033229272e-06 0.07945275055 0)
(1.736306409e-05 0.0793725187 0)
(2.468386946e-05 0.07928969153 0)
(3.000172551e-05 0.07920543309 0)
(3.455443759e-05 0.07912078061 0)
(3.777196085e-05 0.07903578268 0)
(3.975544259e-05 0.07895173968 0)
(4.072970081e-05 0.0788708439 0)
(4.122610739e-05 0.07879405164 0)
(4.138332863e-05 0.07872241402 0)
(4.141522113e-05 0.07865701292 0)
(4.130696652e-05 0.07859870587 0)
(4.103779852e-05 0.07854739544 0)
(4.103353622e-05 0.0785028492 0)
(4.169247676e-05 0.07846499048 0)
(4.34983821e-05 0.07843327097 0)
(4.663215784e-05 0.07840700854 0)
(5.100072339e-05 0.07838496381 0)
(5.696647932e-05 0.07836557105 0)
(6.496643191e-05 0.0783481199 0)
(7.512022582e-05 0.07833106066 0)
(8.710829466e-05 0.07831246978 0)
(0.0001003219768 0.07829146202 0)
(0.0001144446965 0.07826695829 0)
(0.0001290454963 0.0782383291 0)
(0.0001439112897 0.07820569782 0)
(0.0001568952203 0.07816946985 0)
(0.0001669734012 0.07812932672 0)
(0.00017507771 0.0780866481 0)
(0.0001805146842 0.07804382438 0)
(0.0001831223 0.0780025249 0)
(0.0001819535496 0.07796535101 0)
(0.000176874442 0.07793593943 0)
(0.0001669892866 0.07791738032 0)
(0.0001530820694 0.0779123729 0)
(0.0001355783637 0.07792449162 0)
(0.0001150135716 0.07795687196 0)
(9.222402658e-05 0.07801208355 0)
(6.782416953e-05 0.07809226091 0)
(4.278165906e-05 0.07819892659 0)
(1.847110887e-05 0.07833292483 0)
(-3.870757624e-06 0.07849409372 0)
(-2.283859284e-05 0.07868246432 0)
(-3.874803034e-05 0.07889617479 0)
(-4.97597513e-05 0.07913189002 0)
(-5.430546179e-05 0.07938628533 0)
(-5.07342304e-05 0.07965627962 0)
(-4.06645525e-05 0.07993865414 0)
(-2.417532791e-05 0.08022848538 0)
(-1.029723572e-06 0.08051889358 0)
(3.132408046e-05 0.08080736205 0)
(6.903746583e-05 0.08109143791 0)
(0.0001105553933 0.08136654106 0)
(0.0001544712819 0.08162790065 0)
(0.0002027637278 0.08187617601 0)
(0.0002510287003 0.08211201374 0)
(0.0002964278347 0.08233375367 0)
(0.0003377268184 0.08254353943 0)
(0.000375305204 0.08274396545 0)
(0.0004056894587 0.08294154968 0)
(0.0004281539777 0.08314156922 0)
(0.0004423464055 0.08334792249 0)
(0.0004476736135 0.08356477718 0)
(0.0004438433944 0.08380190427 0)
(0.0004311720279 0.08406737056 0)
(0.0004111847836 0.08436480423 0)
(0.000384188513 0.08469886158 0)
(0.0003533527789 0.08507633546 0)
(0.0003192662831 0.085501399 0)
(0.0002846392154 0.08597365821 0)
(0.0002512964585 0.08649419342 0)
(0.0002230181681 0.08706286064 0)
(0.0002014853386 0.08767606121 0)
(0.000190049804 0.0883288012 0)
(0.0001896027778 0.08901506453 0)
(0.0002015362354 0.08972639915 0)
(0.0002267607142 0.09045512564 0)
(0.0002661651699 0.09119433556 0)
(0.0003204957906 0.0919345015 0)
(0.0003887362356 0.09266507057 0)
(0.0004687610882 0.09337792023 0)
(0.0005578771577 0.09406707304 0)
(0.0006537345919 0.09472772664 0)
(0.0007532248644 0.09535611724 0)
(0.0008530633786 0.09595095971 0)
(0.0009486491624 0.0965139147 0)
(0.001035069223 0.09704948561 0)
(0.001109621305 0.09756463071 0)
(0.001170001621 0.09806860898 0)
(0.00121300363 0.09857304073 0)
(0.001234897327 0.09909041381 0)
(0.001234446543 0.0996338989 0)
(0.001213848476 0.100218571 0)
(0.00117459041 0.1008604003 0)
(0.001116991882 0.1015724782 0)
(0.001046504918 0.1023615976 0)
(0.0009689501072 0.103249145 0)
(0.0009075828042 0.104216162 0)
(0.0008274926128 0.1052743595 0)
(0.0008398526278 0.1064522632 0)
(0.0008542495418 0.1078237162 0)
(0.0005137226739 0.1091598329 0)
(0.0005294991372 0.1106820395 0)
(0.0001552216239 0.1121092868 0)
(0.0003579826996 0.1138708231 0)
(-1.718115051e-05 0.1154811356 0)
(0.0004044744639 0.1175051686 0)
(3.75972308e-05 0.1192996303 0)
(0.0006763763239 0.1215910607 0)
(0.0003048922277 0.1235426143 0)
(0.001172196054 0.1260884323 0)
(0.0007861571533 0.1281508001 0)
(0.001915481261 0.1309211405 0)
(0.001494942191 0.1330603099 0)
(0.002805076786 0.1360991783 0)
(0.002132644234 0.1384474581 0)
(0.003334591237 0.141844323 0)
(0.00208308689 0.1439948843 0)
(0.004348875203 0.1478053544 0)
(0.003580921079 0.1507800025 0)
(0.006008051823 0.1557911836 0)
(0.005113537638 0.1598190535 0)
(0.007423480457 0.1660965533 0)
(0.006309678665 0.1714374798 0)
(0.008593191176 0.1793758763 0)
(0.007334744245 0.1863892045 0)
(0.009755054916 0.1963240136 0)
(0.008350566431 0.2051404883 0)
(0.01086425754 0.2169107643 0)
(0.009323954893 0.2270464567 0)
(0.009976263539 0.2406517728 0)
(0.00228166028 0.2548348677 0)
(0.01072057052 0.2743639448 0)
(0.01377859935 0.286545977 0)
(0.0005274277218 0.3101227411 0)
(-0.01380975121 0.351004725 0)
(0.009867339669 0.4072059083 0)
(0.04631983856 0.4301137959 0)
(0.03490446778 0.4639757223 0)
(0.04777802814 0.5204592502 0)
(0.03112444095 0.5547499466 0)
(-0.04258825196 0.6134347191 0)
(0.03096934885 0.6901461757 0)
(0.06741257613 0.7063122997 0)
(0.06567049312 0.6903451515 0)
(0.0577572619 0.6864103437 0)
(0.0490794683 0.6995089557 0)
(0.04231650993 0.7196116767 0)
(0.03664168299 0.7359579393 0)
(0.03131955398 0.7472373264 0)
(0.02604993672 0.7528387286 0)
(0.02078682206 0.7529533558 0)
(0.01559151352 0.7480877877 0)
(0.01063660066 0.7389164171 0)
(0.006111757929 0.7261753215 0)
(0.002189049928 0.7106915013 0)
(-0.001091069792 0.6933079599 0)
(-0.003706086554 0.6746860674 0)
(-0.005696566206 0.6553866663 0)
(-0.007212631171 0.6360415645 0)
(-0.008267909969 0.6171882548 0)
(-0.008905385741 0.5990646834 0)
(-0.009230247134 0.5818662223 0)
(-0.009359526081 0.5656984819 0)
(-0.00932116365 0.5506654538 0)
(-0.009183872497 0.5368183474 0)
(-0.009006643686 0.5241036622 0)
(-0.008771581474 0.5124669777 0)
(-0.008485553591 0.5019233386 0)
(-0.008161740337 0.492410112 0)
(-0.00779486249 0.4837656065 0)
(-0.007403356416 0.4758736782 0)
(-0.006982450147 0.4686314674 0)
(-0.006506280622 0.4619087423 0)
(-0.005993089361 0.455595782 0)
(-0.005474102873 0.4495822322 0)
(-0.004960015613 0.4437596436 0)
(-0.004462743282 0.4380554598 0)
(-0.004004431137 0.4324472368 0)
(-0.003597823673 0.4269330821 0)
(-0.003243749437 0.4215264185 0)
(-0.002946420876 0.4162462219 0)
(-0.002707443728 0.4111250088 0)
(-0.002524480192 0.4062045352 0)
(-0.002392324608 0.4015287286 0)
(-0.00230369865 0.3971362511 0)
(-0.002249824906 0.3930548771 0)
(-0.002221255847 0.3892980689 0)
(-0.002208835909 0.3858633706 0)
(-0.002204247145 0.3827327797 0)
(-0.002200411349 0.3798750462 0)
(-0.002191724586 0.3772493442 0)
(-0.002174263199 0.3748097237 0)
(-0.002145741841 0.3725096702 0)
(-0.002105303227 0.3703064932 0)
(-0.002053323809 0.3681649151 0)
(-0.001991091943 0.3660595056 0)
(-0.001920512428 0.3639758166 0)
(-0.00184377297 0.3619101692 0)
(-0.001763113501 0.3598682801 0)
(-0.001680620124 0.3578629153 0)
(-0.00159808414 0.3559109953 0)
(-0.00151693405 0.3540305221 0)
(-0.001438243551 0.3522376831 0)
(-0.001362761679 0.3505444671 0)
(-0.001290969592 0.3489570561 0)
(-0.001223155635 0.3474751129 0)
(-0.001159502934 0.3460919479 0)
(-0.001100147062 0.3447954755 0)
(-0.001045211285 0.3435697837 0)
(-0.0009948157799 0.3423970745 0)
(-0.000949074054 0.3412596963 0)
(-0.0009080686913 0.3401420072 0)
(-0.0008718145659 0.3390318615 0)
(-0.0008402134612 0.3379215714 0)
(-0.0008130203222 0.3368082711 0)
(-0.0007898229663 0.3356936829 0)
(-0.0007700425207 0.3345833569 0)
(-0.0007529443775 0.3334855235 0)
(-0.0007376739848 0.3324097351 0)
(-0.000723314437 0.3313654542 0)
(-0.0007089445514 0.3303607711 0)
(-0.0006937082802 0.3294013926 0)
(-0.000676877514 0.3284899933 0)
(-0.0006579099531 0.3276259698 0)
(-0.0006364823305 0.3268056096 0)
(-0.0006125219043 0.3260226156 0)
(-0.0005862086073 0.3252688825 0)
(-0.0005579542839 0.3245354384 0)
(-0.0005283647533 0.3238134312 0)
(-0.0004981938748 0.3230950365 0)
(-0.0004682807796 0.3223742008 0)
(-0.0004394903838 0.3216471483 0)
(-0.0004126468992 0.3209126187 0)
(-0.000388478536 0.320171838 0)
(-0.0003675711457 0.3194282388 0)
(-0.000350357332 0.3186869798 0)
(-0.0003370511292 0.3179543323 0)
(-0.0003276889338 0.3172370367 0)
(-0.000322121172 0.3165416585 0)
(-0.000320034404 0.3158740138 0)
(-0.0003210088258 0.3152387324 0)
(-0.0003245099684 0.3146389941 0)
(-0.0003299397298 0.3140764087 0)