/*--------------------------------*- C++ -*----------------------------------*\
| =========                 |                                                 |
| \\      /  F ield         | OpenFOAM: The Open Source CFD Toolbox           |
|  \\    /   O peration     | Version:  v2006                                 |
|   \\  /    A nd           | Website:  www.openfoam.com                      |
|    \\/     M anipulation  |                                                 |
\*---------------------------------------------------------------------------*/
FoamFile
{
    version     2.0;
    format      ascii;
    class       volVectorField;
    location    "0.1";
    object      U_0;
}
// * * * * * * * * * * * * * * * * * * * * * * * * * * * * * * * * * * * * * //

dimensions      [0 1 -1 0 0 0 0];


internalField   nonuniform List<vector> 
72000
(
(-6.105984988e-05 0.030693231 0)
(-4.627505518e-05 0.03062655745 0)
(-4.0042305e-05 0.03059814782 0)
(-3.489951015e-05 0.03058247405 0)
(-3.146571162e-05 0.03057243206 0)
(-2.909462912e-05 0.03056741953 0)
(-2.735337458e-05 0.03056610456 0)
(-2.525425773e-05 0.03056631158 0)
(-2.337690375e-05 0.03056666868 0)
(-2.172945063e-05 0.03056699381 0)
(-2.035883967e-05 0.03056645836 0)
(-1.914875276e-05 0.03056464111 0)
(-1.750976763e-05 0.03056107052 0)
(-1.547506663e-05 0.03055480899 0)
(-1.304173964e-05 0.03054539576 0)
(-1.100647638e-05 0.03053248291 0)
(-8.921017872e-06 0.03051552235 0)
(-6.760491013e-06 0.03049427346 0)
(-4.464090783e-06 0.03046864339 0)
(-2.195664698e-06 0.03043884584 0)
(4.64129783e-07 0.03040481635 0)
(3.274455675e-06 0.03036647093 0)
(5.495440713e-06 0.03032452464 0)
(7.181841688e-06 0.03027961009 0)
(8.844105147e-06 0.03023246834 0)
(1.03898802e-05 0.0301840043 0)
(1.176660298e-05 0.03013515506 0)
(1.30662656e-05 0.03008712078 0)
(1.419932769e-05 0.03004072735 0)
(1.473519284e-05 0.02999673921 0)
(1.44311613e-05 0.02995664568 0)
(1.383213797e-05 0.0299215425 0)
(1.305203955e-05 0.02989193864 0)
(1.209479162e-05 0.02986819099 0)
(1.108954039e-05 0.0298502968 0)
(1.019596876e-05 0.02983827882 0)
(9.607444797e-06 0.02983215026 0)
(9.622846648e-06 0.02983107685 0)
(9.972621326e-06 0.02983378187 0)
(1.09795682e-05 0.02983914431 0)
(1.276518039e-05 0.0298458602 0)
(1.527850876e-05 0.02985252137 0)
(1.858105734e-05 0.02985782709 0)
(2.267110866e-05 0.02985953068 0)
(2.685948919e-05 0.02985574471 0)
(3.057536722e-05 0.02984701545 0)
(3.473969009e-05 0.02983267675 0)
(3.883126064e-05 0.02981131639 0)
(4.266376887e-05 0.02978330641 0)
(4.654869496e-05 0.02974927665 0)
(5.030495405e-05 0.02970887342 0)
(5.230405154e-05 0.02966429036 0)
(5.322937305e-05 0.02961870364 0)
(5.305231064e-05 0.0295736049 0)
(5.17037291e-05 0.02953177704 0)
(4.918517892e-05 0.02949596157 0)
(4.526983004e-05 0.02946892125 0)
(4.002801152e-05 0.02945402758 0)
(3.379417745e-05 0.02945424561 0)
(2.678113699e-05 0.02947219417 0)
(1.960255098e-05 0.02950856897 0)
(1.102314894e-05 0.02956569938 0)
(2.768344603e-06 0.02964542517 0)
(-5.209002329e-06 0.02974678096 0)
(-1.241681376e-05 0.02986915908 0)
(-1.841591526e-05 0.03001048709 0)
(-2.360038587e-05 0.03016845301 0)
(-2.783912141e-05 0.03034294176 0)
(-2.805113238e-05 0.03052819178 0)
(-2.694911429e-05 0.03071792897 0)
(-2.460185734e-05 0.03090968041 0)
(-2.141009971e-05 0.03110306528 0)
(-1.272284287e-05 0.03129125835 0)
(-3.316837361e-06 0.03146635803 0)
(6.643967642e-06 0.03162794004 0)
(1.656385817e-05 0.0317763744 0)
(2.988825247e-05 0.03190812599 0)
(4.362600535e-05 0.03201969653 0)
(5.625381905e-05 0.03211363205 0)
(6.687706643e-05 0.03219153299 0)
(7.5919049e-05 0.03225681679 0)
(8.558102521e-05 0.03231129941 0)
(9.238082603e-05 0.0323588093 0)
(9.576916634e-05 0.03240570239 0)
(9.605784572e-05 0.03245927502 0)
(9.560786641e-05 0.03252360506 0)
(9.146971806e-05 0.03260324706 0)
(8.47778304e-05 0.03270609323 0)
(7.62676974e-05 0.03283695042 0)
(6.610937791e-05 0.03299927685 0)
(5.386201387e-05 0.03319685049 0)
(4.115451197e-05 0.03343192957 0)
(2.837850616e-05 0.03370423384 0)
(1.630704303e-05 0.03401379987 0)
(7.346024189e-06 0.0343579571 0)
(1.512844441e-06 0.03473172109 0)
(-2.091261844e-06 0.03512956104 0)
(-3.016165384e-06 0.03554514168 0)
(-1.498281189e-07 0.03597082085 0)
(7.32447496e-06 0.03639849619 0)
(1.937887416e-05 0.03681916994 0)
(3.518947862e-05 0.03722389471 0)
(5.416589488e-05 0.03760460851 0)
(7.585763737e-05 0.0379541446 0)
(0.0001005377825 0.03826727779 0)
(0.0001268607138 0.03854067705 0)
(0.0001533148845 0.03877198487 0)
(0.0001782477444 0.03896019903 0)
(0.0002005338972 0.03910864078 0)
(0.0002194892312 0.039224969 0)
(0.0002349430387 0.03931668774 0)
(0.0002455990959 0.03938945943 0)
(0.0002489078183 0.03945579886 0)
(0.0002432807651 0.03952647036 0)
(0.0002390633233 0.03964204554 0)
(0.0001909269458 0.03974792012 0)
(0.0002891988391 0.03996865277 0)
(-2.339450949e-05 0.04023138203 0)
(9.218096013e-06 0.04049949373 0)
(-4.754637658e-05 0.04079090508 0)
(0.0001713064876 0.04129158295 0)
(-8.512797095e-05 0.04166488369 0)
(0.0001963299281 0.04231660463 0)
(-0.0001497906912 0.0428035847 0)
(0.0002258478626 0.04367068103 0)
(-0.0002249161745 0.04430255534 0)
(0.0002691163469 0.04542485187 0)
(-0.0002858100193 0.04621288031 0)
(0.0003493190992 0.04760818771 0)
(-0.0003213362267 0.04855210337 0)
(0.0004746191159 0.0502466068 0)
(-0.0003443204804 0.05127200818 0)
(0.0006265688722 0.05320513242 0)
(-0.0004812010196 0.05417814134 0)
(0.001302746881 0.05602807034 0)
(0.0008489916803 0.05708509157 0)
(0.001910264717 0.0595645507 0)
(0.0006257827522 0.06039346698 0)
(0.002166871067 0.063160478 0)
(0.0008493119161 0.0642436262 0)
(0.002543340538 0.06741851569 0)
(0.001149419383 0.06886397974 0)
(0.002929652781 0.07269184394 0)
(0.00144608982 0.07481294581 0)
(0.003241542962 0.07978321309 0)
(0.001875617559 0.083064986 0)
(0.003960067006 0.08997535784 0)
(0.002359600788 0.09529551726 0)
(0.004910836336 0.1097159445 0)
(0.006515523409 0.10514009 0)
(0.003078106435 0.1037551987 0)
(-0.00268744138 0.1210531513 0)
(-4.631853105e-05 0.1266074787 0)
(-0.009079964375 0.1293179395 0)
(-0.006848804014 0.1336568593 0)
(-0.02026710301 0.1812328408 0)
(-0.0171781954 0.2842842989 0)
(-0.01229363874 0.3234381731 0)
(0.03065294969 0.4227132428 0)
(0.09040233087 0.3148180607 0)
(0.008218988961 0.219282294 0)
(0.01975909603 0.3413887431 0)
(0.04286817322 0.3533299809 0)
(0.02320902569 0.3599267556 0)
(0.01339490879 0.3613740941 0)
(0.009647950724 0.3642787646 0)
(0.007858695677 0.3644444767 0)
(0.006329838997 0.3629991665 0)
(0.004797138388 0.359445696 0)
(0.003243064207 0.3536824219 0)
(0.001706744929 0.3458539055 0)
(0.000298997332 0.3362803584 0)
(-0.0008539258795 0.3253684471 0)
(-0.001618368913 0.3134512168 0)
(-0.002139460674 0.3008430634 0)
(-0.002509853172 0.2880484428 0)
(-0.002716066617 0.2754365368 0)
(-0.002717471105 0.2632996788 0)
(-0.002624002409 0.2518416966 0)
(-0.002498422233 0.2412186915 0)
(-0.002364771495 0.2315251524 0)
(-0.002221721282 0.2227866109 0)
(-0.002072366979 0.2150010305 0)
(-0.00192533382 0.2081406087 0)
(-0.001785546852 0.2021309792 0)
(-0.00164538275 0.196880382 0)
(-0.001494760339 0.1923058937 0)
(-0.001347738094 0.1883003981 0)
(-0.001212116453 0.1847162112 0)
(-0.00108247949 0.181421949 0)
(-0.0009623484342 0.1783067116 0)
(-0.0008456747254 0.175272922 0)
(-0.0007325908205 0.1722349126 0)
(-0.0006350017391 0.1691490026 0)
(-0.0005454217307 0.1660007184 0)
(-0.0004519382006 0.1627835517 0)
(-0.0003743930924 0.1595234469 0)
(-0.0003257416946 0.1563046213 0)
(-0.0002947734006 0.1532043328 0)
(-0.0002772451661 0.1502823237 0)
(-0.0002712673257 0.1475906995 0)
(-0.0002743170098 0.1451682375 0)
(-0.0002834929416 0.1430368461 0)
(-0.0002959635126 0.1411998699 0)
(-0.0003091592613 0.1396424886 0)
(-0.0003209074212 0.1383339188 0)
(-0.0003295889339 0.1372311267 0)
(-0.0003341649018 0.1362836673 0)
(-0.0003341422124 0.1354390252 0)
(-0.0003294745026 0.1346477435 0)
(-0.0003205356431 0.1338678102 0)
(-0.0003079948304 0.1330679404 0)
(-0.0002926606787 0.1322293715 0)
(-0.0002754209911 0.1313461376 0)
(-0.0002571468788 0.1304239519 0)
(-0.0002386208045 0.1294778914 0)
(-0.000220467606 0.1285292136 0)
(-0.0002031723506 0.1276018076 0)
(-0.0001870751717 0.1267187386 0)
(-0.0001723700055 0.1258992269 0)
(-0.0001591189322 0.1251563613 0)
(-0.000147313862 0.124495806 0)
(-0.0001369017507 0.12391557 0)
(-0.0001278017163 0.1234067234 0)
(-0.0001199193153 0.1229549014 0)
(-0.0001131733264 0.1225423608 0)
(-0.0001074983907 0.1221502971 0)
(-0.0001028350952 0.1217610923 0)
(-9.911664075e-05 0.1213602261 0)
(-9.626496844e-05 0.1209376636 0)
(-9.418290632e-05 0.1204885916 0)
(-9.274977098e-05 0.1200134685 0)
(-9.181053335e-05 0.1195174341 0)
(-9.117912777e-05 0.1190092016 0)
(-9.064755358e-05 0.1184996176 0)
(-9.000347084e-05 0.118000095 0)
(-8.903722559e-05 0.1175211066 0)
(-8.755790096e-05 0.1170709017 0)
(-8.541774716e-05 0.1166546065 0)
(-8.251964476e-05 0.11627377 0)
(-7.883019986e-05 0.1159263633 0)
(-7.438117425e-05 0.1156072098 0)
(-6.927143585e-05 0.1153087618 0)
(-6.364962703e-05 0.1150220902 0)
(-5.771621073e-05 0.1147379678 0)
(-5.170697572e-05 0.1144479364 0)
(-4.587095035e-05 0.1141452143 0)
(-4.044937843e-05 0.113825354 0)
(-3.566518859e-05 0.1134866165 0)
(-3.17023542e-05 0.1131300335 0)
(-2.870089705e-05 0.1127591792 0)
(-2.674357921e-05 0.1123797006 0)
(-2.585367981e-05 0.1119986711 0)
(-2.599788543e-05 0.1116238307 0)
(-2.71121185e-05 0.1112629 0)
(-2.906489577e-05 0.110922841 0)
(-3.170114995e-05 0.1106093865 0)
(-3.484155263e-05 0.1103265756 0)
(-3.830114064e-05 0.1100766638 0)
(-4.190721641e-05 0.1098601086 0)
(-4.549117869e-05 0.1096757248 0)
(-4.888650437e-05 0.1095209966 0)
(-5.197981205e-05 0.1093924668 0)
(-5.466929317e-05 0.1092861327 0)
(-5.687665142e-05 0.1091978069 0)
(-5.857633142e-05 0.1091234844 0)
(-5.975103167e-05 0.1090595522 0)
(-6.040462349e-05 0.1090029053 0)
(-6.05675616e-05 0.1089510185 0)
(-6.027736944e-05 0.1089018184 0)
(-5.958253197e-05 0.1088536382 0)
(-5.853912895e-05 0.108804986 0)
(-5.719474296e-05 0.1087544051 0)
(-5.561148297e-05 0.1087003502 0)
(-5.383818207e-05 0.1086410219 0)
(-5.192792254e-05 0.1085744484 0)
(-4.99383776e-05 0.1084983781 0)
(-4.790584357e-05 0.1084105326 0)
(-4.588353026e-05 0.1083086573 0)
(-4.39164622e-05 0.1081907545 0)
(-4.204432485e-05 0.1080553056 0)
(-4.031130537e-05 0.1079014531 0)
(-3.875736033e-05 0.1077291219 0)
(-3.742035358e-05 0.1075392186 0)
(-3.632062373e-05 0.1073335559 0)
(-3.549487432e-05 0.1071149172 0)
(-3.495538025e-05 0.1068868835 0)
(-3.470028112e-05 0.1066536963 0)
(-3.473944268e-05 0.1064200603 0)
(-3.504805316e-05 0.1061908169 0)
(-3.560066661e-05 0.1059708114 0)
(-3.636290117e-05 0.1057644798 0)
(-3.728364524e-05 0.1055758029 0)
(-3.830029517e-05 0.1054079306 0)
(-3.936402706e-05 0.1052632301 0)
(-4.040489898e-05 0.1051430442 0)
(-4.134845511e-05 0.1050477883 0)
(-4.213406006e-05 0.1049769027 0)
(-4.27021915e-05 0.1049289581 0)
(-4.299484952e-05 0.1049017939 0)
(-4.296998788e-05 0.1048925861 0)
(-4.258979825e-05 0.1048980855 0)
(-4.184385259e-05 0.1049147462 0)
(-4.069894809e-05 0.1049389003 0)
(-3.912768818e-05 0.1049668965 0)
(-3.711939007e-05 0.1049951859 0)
(-3.47138978e-05 0.1050204633 0)
(-3.203051168e-05 0.1050398282 0)
(-2.920180519e-05 0.1050509551 0)
(-2.620321183e-05 0.1050521467 0)
(-2.28392503e-05 0.1050418575 0)
(-1.927320573e-05 0.1050188244 0)
(-1.586797863e-05 0.1049828301 0)
(-1.251604108e-05 0.1049342087 0)
(-9.210589094e-06 0.1048733344 0)
(-5.966601499e-06 0.1048010286 0)
(-2.803727044e-06 0.1047182879 0)
(1.491113406e-07 0.1046263185 0)
(2.817679387e-06 0.1045265825 0)
(5.222095648e-06 0.1044204773 0)
(7.348758455e-06 0.1043092516 0)
(9.128823907e-06 0.1041939563 0)
(1.040556373e-05 0.104075865 0)
(1.149932209e-05 0.103955728 0)
(1.223358271e-05 0.1038337906 0)
(1.252512634e-05 0.1037104716 0)
(1.240562989e-05 0.1035860138 0)
(1.206223734e-05 0.103460312 0)
(1.156064658e-05 0.1033329812 0)
(1.09059442e-05 0.1032036383 0)
(1.008931723e-05 0.103071902 0)
(9.106017538e-06 0.1029374502 0)
(7.955398543e-06 0.1028000349 0)
(6.640440477e-06 0.102659552 0)
(5.164561592e-06 0.1025160606 0)
(3.5345162e-06 0.1023698183 0)
(1.759700189e-06 0.1022212814 0)
(-1.490728275e-07 0.1020711044 0)
(-2.178708435e-06 0.1019201198 0)
(-4.317678053e-06 0.1017693092 0)
(-6.557485429e-06 0.101619774 0)
(-8.8867961e-06 0.1014726932 0)
(-1.129407704e-05 0.101329274 0)
(-1.376807653e-05 0.1011907112 0)
(-1.629440456e-05 0.1010581396 0)
(-1.88605711e-05 0.1009325923 0)
(-2.145518167e-05 0.1008149704 0)
(-2.406541809e-05 0.1007060102 0)
(-2.667766923e-05 0.100606256 0)
(-2.92774436e-05 0.1005160428 0)
(-3.184704355e-05 0.1004354788 0)
(-3.437020771e-05 0.1003644348 0)
(-3.68309342e-05 0.1003025434 0)
(-3.921312004e-05 0.1002491979 0)
(-4.150082764e-05 0.1002035595 0)
(-4.367605604e-05 0.1001645645 0)
(-4.572219611e-05 0.1001309381 0)
(-4.762464874e-05 0.1001012168 0)
(-4.937055188e-05 0.1000737747 0)
(-5.094885089e-05 0.1000468555 0)
(-5.234810924e-05 0.1000186065 0)
(-5.356048905e-05 0.09998711705 0)
(-5.458151469e-05 0.09995046626 0)
(-5.540964288e-05 0.09990676947 0)
(-5.604524338e-05 0.09985422587 0)
(-5.649043167e-05 0.09979116276 0)
(-5.675150081e-05 0.09971608061 0)
(-5.68377912e-05 0.09962769529 0)
(-5.676112757e-05 0.09952497309 0)
(-5.653373902e-05 0.09940715568 0)
(-5.617101934e-05 0.09927377811 0)
(-5.569045284e-05 0.09912468109 0)
(-5.511091133e-05 0.09896001139 0)
(-5.445122072e-05 0.09878021162 0)
(-5.373130203e-05 0.0985860017 0)
(-5.297153415e-05 0.09837835409 0)
(-5.21922047e-05 0.09815846069 0)
(-5.141314446e-05 0.09792769427 0)
(-5.065342531e-05 0.09768756595 0)
(-4.993111464e-05 0.09743968025 0)
(-4.926306647e-05 0.09718568917 0)
(-4.866475822e-05 0.09692724687 0)
(-4.815016599e-05 0.09666596621 0)
(-4.773167627e-05 0.09640337832 0)
(-4.742003887e-05 0.09614089632 0)
(-4.722434788e-05 0.09587978382 0)
(-4.715204348e-05 0.09562112886 0)
(-4.720893672e-05 0.09536582385 0)
(-4.739924987e-05 0.09511455145 0)
(-4.772565574e-05 0.09486777685 0)
(-4.818933721e-05 0.09462574607 0)
(-4.879003732e-05 0.09438849029 0)
(-4.952610323e-05 0.09415583583 0)
(-5.039453744e-05 0.09392741933 0)
(-5.139104599e-05 0.09370270757 0)
(-5.25100741e-05 0.0934810213 0)
(-5.374485326e-05 0.09326156231 0)
(-5.508744572e-05 0.09304344283 0)
(-5.652879538e-05 0.09282571635 0)
(-5.805878715e-05 0.09260740897 0)
(-5.966631984e-05 0.09238755005 0)
(-6.1339393e-05 0.0921652014 0)
(-6.306520549e-05 0.0919394839 0)
(-6.483028256e-05 0.0917096007 0)
(-6.66206189e-05 0.09147485629 0)
(-6.842182253e-05 0.09123467084 0)
(-7.021930946e-05 0.09098858927 0)
(-7.199848994e-05 0.09073628508 0)
(-7.374497597e-05 0.09047755872 0)
(-7.544480063e-05 0.09021233088 0)
(-7.708463748e-05 0.08994063108 0)
(-7.865202855e-05 0.08966258222 0)
(-8.013560122e-05 0.0893783819 0)
(-8.152527658e-05 0.08908828146 0)
(-8.281246333e-05 0.08879256377 0)
(-8.399022305e-05 0.08849152073 0)
(-8.505342044e-05 0.08818543171 0)
(-8.599883008e-05 0.08787454384 0)
(-8.682520991e-05 0.08755905489 0)
(-8.75333382e-05 0.08723909987 0)
(-8.812600871e-05 0.08691474146 0)
(-8.86079747e-05 0.08658596503 0)
(-8.89858641e-05 0.08625267819 0)
(-8.926804008e-05 0.08591471491 0)
(-8.946442587e-05 0.08557184383 0)
(-8.958630117e-05 0.0852237805 0)
(-8.964605686e-05 0.08487020263 0)
(-8.965692647e-05 0.08451076788 0)
(-8.963271061e-05 0.08414513293 0)
(-8.958746636e-05 0.08377297336 0)
(-8.953521832e-05 0.08339400284 0)
(-8.94896526e-05 0.08300799124 0)
(-8.946383018e-05 0.08261478032 0)
(-8.946992906e-05 0.08221429665 0)
(-8.951898062e-05 0.08180656089 0)
(-8.962068403e-05 0.08139169314 0)
(-8.978320717e-05 0.08096991411 0)
(-9.001307319e-05 0.08054154199 0)
(-9.031506958e-05 0.08010698537 0)
(-9.069218651e-05 0.07966673233 0)
(-9.114564898e-05 0.07922133641 0)
(-9.16749465e-05 0.07877140001 0)
(-9.227793086e-05 0.07831755613 0)
(-9.295094454e-05 0.07786044904 0)
(-9.368899755e-05 0.07740071517 0)
(-9.448594368e-05 0.07693896454 0)
(-9.53347142e-05 0.07647576409 0)
(-9.622754431e-05 0.07601162319 0)
(-9.715621443e-05 0.07554698213 0)
(-9.811228312e-05 0.07508220403 0)
(-9.908733757e-05 0.07461757024 0)
(-0.0001000731994 0.07415327958 0)
(-0.000101062134 0.07368945104 0)
(-0.0001020470281 0.07322612986 0)
(-0.0001030215319 0.07276329649 0)
(-0.000103980173 0.07230087775 0)
(-0.0001049184412 0.07183875969 0)
(-0.00010583283 0.07137680133 0)
(-0.000106720847 0.07091484848 0)
(-0.0001075809926 0.07045274695 0)
(-0.0001084127057 0.0699903544 0)
(-0.0001092162807 0.06952755024 0)
(-0.0001099927716 0.06906424311 0)
(-0.0001107438657 0.06860037552 0)
(-0.000111471756 0.06813592546 0)
(-0.0001121789994 0.067670905 0)
(-0.0001128683739 0.06720535595 0)
(-0.0001135427456 0.06673934289 0)
(-0.0001142049321 0.06627294403 0)
(-0.0001148575877 0.06580624038 0)
(-0.0001155030922 0.06533930386 0)
(-0.0001161434721 0.06487218523 0)
(-0.0001167803222 0.06440490219 0)
(-0.0001174147667 0.06393742871 0)
(-0.0001180474209 0.06346968598 0)
(-0.0001186783781 0.0630015357 0)
(-0.00011930723 0.06253277597 0)
(-0.0001199330784 0.06206314035 0)
(-0.0001205545787 0.06159230002 0)
(-0.0001211699922 0.06111986917 0)
(-0.0001217772344 0.06064541355 0)
(-0.0001223739509 0.06016846171 0)
(-0.000122957584 0.0596885187 0)
(-0.0001235254363 0.05920508167 0)
(-0.0001240747461 0.05871765665 0)
(-0.0001246027457 0.058225776 0)
(-0.0001251067305 0.05772901581 0)
(-0.0001255841022 0.05722701251 0)
(-0.0001260324198 0.05671947808 0)
(-0.0001264494369 0.05620621332 0)
(-0.0001268331254 0.0556871187 0)
(-0.0001271816996 0.05516220225 0)
(-0.0001274936216 0.05463158443 0)
(-0.0001277676167 0.05409549972 0)
(-0.0001280026477 0.05355429488 0)
(-0.0001281979244 0.05300842407 0)
(-0.00012835288 0.05245844101 0)
(-0.0001284671497 0.05190498843 0)
(-0.0001285405529 0.05134878532 0)
(-0.0001285730672 0.05079061233 0)
(-0.0001285648002 0.05023129582 0)
(-0.0001285159711 0.04967169119 0)
(-0.0001284268857 0.04911266582 0)
(-0.0001282979119 0.0485550822 0)
(-0.000128129465 0.04799978178 0)
(-0.0001279219923 0.04744756968 0)
(-0.0001276759595 0.04689920094 0)
(-0.0001273918444 0.04635536826 0)
(-0.0001270701268 0.04581669168 0)
(-0.0001267112912 0.04528371008 0)
(-0.0001263158324 0.04475687484 0)
(-0.0001258842476 0.04423654543 0)
(-0.0001254170544 0.04372298707 0)
(-0.0001249147944 0.04321637013 0)
(-0.0001243780415 0.04271677154 0)
(-0.0001238074139 0.04222417757 0)
(-0.0001232035842 0.04173848834 0)
(-0.000122567282 0.04125952349 0)
(-0.0001218993093 0.04078702909 0)
(-0.0001212005452 0.04032068555 0)
(-0.0001204719405 0.03986011642 0)
(-0.0001197145242 0.03940489789 0)
(-0.0001189293998 0.03895456886 0)
(-0.0001181177337 0.03850864164 0)
(-0.0001172807475 0.03806661274 0)
(-0.0001164197006 0.03762797412 0)
(-0.0001155358728 0.0371922243 0)
(-0.0001146305409 0.03675887955 0)
(-0.0001137049571 0.03632748474 0)
(-0.000112760322 0.03589762377 0)
(-0.0001117977511 0.03546892944 0)
(-0.0001108182512 0.03504109244 0)
(-0.000109822694 0.03461386933 0)
(-0.0001088117807 0.03418708931 0)
(-0.0001077860298 0.03376065946 0)
(-0.000106745748 0.03333456847 0)
(-0.0001056910116 0.03290888846 0)
(-0.0001046216662 0.03248377494 0)
(-0.00010353731 0.03205946472 0)
(-0.0001024372985 0.03163627185 0)
(-0.00010132076 0.03121458143 0)
(-0.0001001865997 0.03079484158 0)
(-9.903352664e-05 0.03037755361 0)
(-9.786008394e-05 0.0299632606 0)
(-9.666468416e-05 0.02955253473 0)
(-9.544564331e-05 0.02914596367 0)
(-9.420123218e-05 0.02874413636 0)
(-9.292972065e-05 0.02834762866 0)
(-9.16294283e-05 0.0279569893 0)
(-9.029877558e-05 0.02757272647 0)
(-8.893633121e-05 0.02719529557 0)
(-8.754086641e-05 0.02682508858 0)
(-8.61113916e-05 0.02646242512 0)
(-8.464719644e-05 0.02610754591 0)
(-8.314788929e-05 0.02576060844 0)
(-8.161342278e-05 0.02542168535 0)
(-8.004410321e-05 0.02509076531 0)
(-7.844061444e-05 0.02476775652 0)
(-7.680400756e-05 0.02445249273 0)
(-7.513569995e-05 0.02414474143 0)
(-7.343745604e-05 0.02384421409 0)
(-7.171135996e-05 0.02355057805 0)
(-6.995978382e-05 0.02326346956 0)
(-6.818534106e-05 0.02298250773 0)
(-6.639084193e-05 0.02270730877 0)
(-6.457923608e-05 0.02243750002 0)
(-6.275354892e-05 0.02217273358 0)
(-6.091682642e-05 0.02191269872 0)
(-5.907205662e-05 0.02165713307 0)
(-5.722211371e-05 0.02140583199 0)
(-5.536968334e-05 0.02115865602 0)
(-5.3517198e-05 0.02091553617 0)
(-5.166677519e-05 0.02067647697 0)
(-4.982015334e-05 0.02044155718 0)
(-4.797864058e-05 0.02021092845 0)
(-4.614305546e-05 0.0199848117 0)
(-4.431368879e-05 0.01976349182 0)
(-4.249025646e-05 0.01954731063 0)
(-4.067186048e-05 0.01933665864 0)
(-3.88569549e-05 0.01913196575 0)
(-3.704331964e-05 0.01893369145 0)
(-3.522801115e-05 0.01874231482 0)
(-3.340733884e-05 0.01855832465 0)
(-3.157680301e-05 0.01838221013 0)
(-2.973103282e-05 0.0182144525 0)
(-2.786372368e-05 0.01805551792 0)
(-2.596764405e-05 0.01790585191 0)
(-2.403466301e-05 0.01776587557 0)
(-2.205599738e-05 0.01763598464 0)
(-2.002170644e-05 0.01751655136 0)
(-1.791980493e-05 0.01740792958 0)
(-1.573540464e-05 0.01731046422 0)
(-1.34520297e-05 0.01722447752 0)
(-1.107056802e-05 0.01715026677 0)
(-8.584681041e-06 0.01708842806 0)
(-5.906682953e-06 0.01703912671 0)
(-3.889885419e-06 0.01699890461 0)
(-4.269323528e-06 0.01697504776 0)
(8.510845251e-06 0.01700519123 0)
(1.031188883e-05 0.0168151997 0)
(-0.0002691092978 0.08015508529 0)
(-0.0002313890678 0.08006602653 0)
(-0.0001995384592 0.08001107278 0)
(-0.0001771082199 0.07997129587 0)
(-0.0001601935181 0.07993873769 0)
(-0.0001479478377 0.07991251306 0)
(-0.0001386258612 0.07989061569 0)
(-0.0001308302246 0.07987132777 0)
(-0.0001243836599 0.07985371434 0)
(-0.0001186123118 0.07983602841 0)
(-0.0001130338229 0.0798169438 0)
(-0.0001073191846 0.07979527576 0)
(-0.000101206355 0.07977033768 0)
(-9.454334578e-05 0.07974160907 0)
(-8.76516193e-05 0.07970938578 0)
(-7.969204633e-05 0.07967242734 0)
(-7.126150508e-05 0.07962934559 0)
(-6.239855572e-05 0.079580613 0)
(-5.360219648e-05 0.07952615748 0)
(-4.473349547e-05 0.07946587269 0)
(-3.589043628e-05 0.07940002244 0)
(-2.770877677e-05 0.07932970941 0)
(-1.919905699e-05 0.07925555944 0)
(-1.121647442e-05 0.07917738011 0)
(-4.594528742e-06 0.07909620902 0)
(6.866024888e-07 0.07901380956 0)
(5.004720083e-06 0.07893139065 0)
(8.275586045e-06 0.07885044141 0)
(1.051805384e-05 0.07877264864 0)
(1.159627105e-05 0.07869960757 0)
(1.146791608e-05 0.0786321682 0)
(1.045975091e-05 0.07857123354 0)
(8.919239815e-06 0.07851791235 0)
(7.366187385e-06 0.07847285368 0)
(6.134855924e-06 0.07843648767 0)
(5.410412934e-06 0.07840870005 0)
(5.716569295e-06 0.07838884435 0)
(7.839557609e-06 0.07837685396 0)
(1.233328948e-05 0.07837157431 0)
(1.934462902e-05 0.07837101514 0)
(2.859554852e-05 0.07837400053 0)
(4.018782573e-05 0.07837891623 0)
(5.413977693e-05 0.07838409762 0)
(7.067986523e-05 0.078388079 0)
(8.803249154e-05 0.07838948292 0)
(0.0001054281277 0.07838625454 0)
(0.0001236029065 0.07837770975 0)
(0.0001417267085 0.07836400344 0)
(0.0001593262001 0.07834458825 0)
(0.000175272651 0.07832008646 0)
(0.0001888643083 0.07829278095 0)
(0.0001981471761 0.07826435276 0)
(0.0002034453 0.07823649848 0)
(0.0002043965009 0.07821267739 0)
(0.0002006891784 0.07819633446 0)
(0.0001923509629 0.0781910079 0)
(0.0001790923078 0.07820042623 0)
(0.0001611604449 0.07822823363 0)
(0.0001394103049 0.07827797458 0)
(0.0001146973355 0.07835255848 0)
(8.832934332e-05 0.07845551824 0)
(5.991089225e-05 0.07858821955 0)
(3.211126101e-05 0.07875109185 0)
(6.301133562e-06 0.07894515679 0)
(-1.617717237e-05 0.07916935879 0)
(-3.440802079e-05 0.07942238951 0)
(-4.77194847e-05 0.07970185707 0)
(-5.465182644e-05 0.08000220718 0)
(-5.169805646e-05 0.08032088084 0)
(-4.121553732e-05 0.08065469023 0)
(-2.344161426e-05 0.08099763952 0)
(1.282516225e-06 0.08134177416 0)
(3.699756916e-05 0.08168458106 0)
(7.958813021e-05 0.08202366984 0)
(0.00012661715 0.08235232727 0)
(0.0001764556648 0.08266659678 0)
(0.0002307440077 0.08296493035 0)
(0.0002848033889 0.08324947845 0)
(0.0003370486334 0.08352042327 0)
(0.0003859403429 0.08377771486 0)
(0.0004295985161 0.08402191897 0)
(0.0004665678935 0.08426118781 0)
(0.0004947235851 0.08450287128 0)
(0.0005137637002 0.08475039567 0)
(0.000521909116 0.08500951449 0)
(0.0005213063632 0.08529033926 0)
(0.0005099135588 0.08560143475 0)
(0.0004891688958 0.08594701684 0)
(0.000459666551 0.0863343488 0)
(0.0004246356516 0.08677012994 0)
(0.0003853703975 0.08725793393 0)
(0.0003455336024 0.08779993943 0)
(0.0003066361642 0.08839715913 0)
(0.0002714066407 0.08904729578 0)
(0.0002427595053 0.0897481651 0)
(0.0002236830443 0.0904973182 0)
(0.0002172283763 0.09128776386 0)
(0.0002249900858 0.09210938516 0)
(0.0002479637159 0.09295254895 0)
(0.0002867577882 0.09380805558 0)
(0.0003420131329 0.09466614313 0)
(0.0004128598193 0.09551600994 0)
(0.0004979555898 0.09634734808 0)
(0.0005944170064 0.09715148617 0)
(0.000698495067 0.09792207093 0)
(0.0008075545246 0.09865479777 0)
(0.0009186730231 0.09934762339 0)
(0.001027076213 0.1000017487 0)
(0.001126600569 0.1006205508 0)
(0.001213272632 0.1012096151 0)
(0.001286431077 0.1017788557 0)
(0.001343823869 0.1023422064 0)
(0.00138103923 0.1029129298 0)
(0.00139971113 0.1034998778 0)
(0.001403033126 0.1041301672 0)
(0.001410625542 0.1047929203 0)
(0.001384773649 0.1055094451 0)
(0.001433911256 0.106318845 0)
(0.001466524347 0.1073078059 0)
(0.001124741998 0.1082587094 0)
(0.001119908769 0.1094035691 0)
(0.0007054949561 0.1104757802 0)
(0.0008499491418 0.1119116631 0)
(0.0004011008421 0.1132477473 0)
(0.0007230111456 0.1150513079 0)
(0.0002423500897 0.1166905564 0)
(0.0007518054019 0.1189059998 0)
(0.0002382798526 0.1208753998 0)
(0.0009530004533 0.1235385783 0)
(0.0004091925059 0.1258355096 0)
(0.00137858517 0.1289581556 0)
(0.0008086118347 0.1315756887 0)
(0.001985829657 0.1352134049 0)
(0.001212941559 0.1382647089 0)
(0.002361720949 0.1424494018 0)
(0.001112843486 0.1454353346 0)
(0.003446712771 0.1500815695 0)
(0.002820065413 0.1538224335 0)
(0.005453890813 0.1594835978 0)
(0.004822706389 0.1639664468 0)
(0.007424933479 0.1704832776 0)
(0.006602708741 0.1758102217 0)
(0.009138858632 0.1835425493 0)
(0.008056570416 0.1902319266 0)
(0.01056671539 0.199923842 0)
(0.00919043086 0.2088138981 0)
(0.01182571702 0.2213480508 0)
(0.01090884982 0.2334589481 0)
(0.01541428555 0.2500702457 0)
(0.02068162048 0.2604396859 0)
(0.01278822559 0.2760697676 0)
(0.003223562153 0.295231764 0)
(0.006166137593 0.3154778077 0)
(-0.01261888097 0.3304303643 0)
(-0.01525932093 0.3576486625 0)
(-0.05083305518 0.4034504266 0)
(-0.006074402224 0.4760725483 0)
(0.04555688901 0.5460023936 0)
(0.0984795422 0.6091551153 0)
(0.2086053067 0.6072030615 0)
(0.1136789495 0.6216562455 0)
(0.07854063973 0.677020944 0)
(0.05703370972 0.6889104836 0)
(0.04834870431 0.697427181 0)
(0.0434225037 0.7130219497 0)
(0.04000831068 0.7311903346 0)
(0.03641836158 0.7442443317 0)
(0.03214061594 0.7523916693 0)
(0.02726463678 0.7555151276 0)
(0.02205394734 0.7538399548 0)
(0.01675452672 0.7477273199 0)
(0.01163121652 0.737667578 0)
(0.006915595219 0.7242527561 0)
(0.00279594177 0.7082478174 0)
(-0.0007090572256 0.6904680906 0)
(-0.003562908738 0.6715710945 0)
(-0.005789748089 0.6521334261 0)
(-0.007531760819 0.6328208236 0)
(-0.008770691373 0.6141843383 0)
(-0.009543781282 0.5964407871 0)
(-0.009950002201 0.5797726802 0)
(-0.01010537952 0.5642579633 0)
(-0.01004025029 0.5499659054 0)
(-0.009827150188 0.5369061106 0)
(-0.00953150262 0.524977859 0)
(-0.009143486327 0.514074856 0)
(-0.008680305832 0.5041586057 0)
(-0.008167084288 0.4951160896 0)
(-0.007611373435 0.4867428041 0)
(-0.007045003894 0.4788954274 0)
(-0.006475788242 0.4714631789 0)
(-0.005888282826 0.4643297277 0)
(-0.005307808415 0.4574208604 0)
(-0.004768690433 0.4506800931 0)
(-0.004280908571 0.4440648546 0)
(-0.003851761079 0.437573533 0)
(-0.003495879842 0.4312514881 0)
(-0.003216436966 0.425154463 0)
(-0.003003537688 0.4193380172 0)
(-0.002850487653 0.4138442034 0)
(-0.0027487868 0.4087084329 0)
(-0.002687572708 0.4039563132 0)
(-0.002655215328 0.3995996981 0)
(-0.002640388692 0.395633801 0)
(-0.002632646308 0.3920369552 0)
(-0.002623087536 0.3887727419 0)
(-0.002604966981 0.3857934741 0)
(-0.002573782377 0.3830447339 0)
(-0.002527167815 0.380470531 0)
(-0.002464621927 0.3780183484 0)
(-0.002387266544 0.3756434326 0)
(-0.002297411965 0.3733118259 0)
(-0.002198081868 0.3710021454 0)
(-0.002092648289 0.3687058355 0)
(-0.001984452217 0.3664259947 0)
(-0.001876542648 0.3641750521 0)
(-0.001771455509 0.3619716198 0)
(-0.001671138708 0.3598370017 0)
(-0.001576925057 0.3577917234 0)
(-0.001489572628 0.3558525469 0)
(-0.001409356451 0.3540302571 0)
(-0.001336204971 0.3523283932 0)
(-0.001269817439 0.3507429907 0)
(-0.001209766845 0.3492633039 0)
(-0.001155584601 0.3478733274 0)
(-0.001106830391 0.3465538376 0)
(-0.001063114565 0.3452846673 0)
(-0.001024089888 0.3440469286 0)
(-0.000989422329 0.3428249186 0)
(-0.000958760444 0.341607494 0)
(-0.0009317003011 0.3403887871 0)
(-0.0009077558843 0.3391682378 0)
(-0.0008863368987 0.337949998 0)
(-0.0008667513106 0.3367418336 0)
(-0.0008482272704 0.3355536924 0)
(-0.000829956437 0.3343961317 0)
(-0.0008111403927 0.3332788112 0)
(-0.000791050054 0.3322092332 0)
(-0.0007690910492 0.3311918368 0)
(-0.0007448511474 0.3302275356 0)
(-0.0007181417808 0.3293137201 0)
(-0.0006890174389 0.3284446808 0)
(-0.0006577794412 0.3276123618 0)
(-0.0006249482355 0.3268073509 0)
(-0.000591234499 0.3260199656 0)
(-0.0005574856184 0.3252412888 0)
(-0.0005246192771 0.3244640636 0)
(-0.0004935535018 0.3236833579 0)
(-0.0004651451743 0.3228969317 0)
(-0.0004401273373 0.3221053005 0)
(-0.00041906645 0.3213115076 0)
(-0.0004023250427 0.3205206544 0)
(-0.000390046259 0.3197392682 0)
(-0.0003821537175 0.3189745741 0)
(-0.000378389463 0.3182337551 0)
(-0.0003782923556 0.317523278 0)
(-0.0003812805583 0.3168483767 0)
(-0.000386675802 0.3162126872 0)
(-0.0003937478417 0.3156180622 0)
(-0.0004017873946 0.3150645824 0)
(-0.0004101025 0.3145507422 0)
(-0.0004180633009 0.3140737349 0)