/*--------------------------------*- C++ -*----------------------------------*\
| =========                 |                                                 |
| \\      /  F ield         | OpenFOAM: The Open Source CFD Toolbox           |
|  \\    /   O peration     | Version:  v2006                                 |
|   \\  /    A nd           | Website:  www.openfoam.com                      |
|    \\/     M anipulation  |                                                 |
\*---------------------------------------------------------------------------*/
FoamFile
{
    version     2.0;
    format      ascii;
    class       volScalarField;
    location    "0.09";
    object      p;
}
// * * * * * * * * * * * * * * * * * * * * * * * * * * * * * * * * * * * * * //

dimensions      [1 -1 -2 0 0 0 0];


internalField   nonuniform List<scalar> 
168000
(
101343.4554
101343.4554
101343.4554
101343.4553
101343.4552
101343.4551
101343.455
101343.4548
101343.4547
101343.4546
101343.4545
101343.4543
101343.4542
101343.4541
101343.4539
101343.4538
101343.4536
101343.4535
101343.4534
101343.4532
101343.453
101343.4528
101343.4526
101343.4524
101343.4521
101343.4519
101343.4515
101343.4512
101343.4508
101343.4505
101343.4501
101343.4495
101343.449
101343.4484
101343.4477
101343.447
101343.4462
101343.4452
101343.4443
101343.4432
101343.4533
101343.4533
101343.4532
101343.4532
101343.4531
101343.453
101343.4528
101343.4527
101343.4526
101343.4525
101343.4523
101343.4522
101343.4521
101343.452
101343.4518
101343.4517
101343.4515
101343.4514
101343.4512
101343.4511
101343.4509
101343.4507
101343.4505
101343.4503
101343.45
101343.4497
101343.4494
101343.4491
101343.4487
101343.4483
101343.4479
101343.4474
101343.4469
101343.4462
101343.4456
101343.4449
101343.444
101343.4431
101343.4421
101343.4411
101343.4511
101343.4511
101343.451
101343.451
101343.4509
101343.4508
101343.4507
101343.4506
101343.4505
101343.4504
101343.4502
101343.4501
101343.45
101343.4498
101343.4497
101343.4495
101343.4494
101343.4493
101343.4491
101343.4489
101343.4488
101343.4486
101343.4484
101343.4481
101343.4479
101343.4476
101343.4473
101343.447
101343.4466
101343.4462
101343.4458
101343.4453
101343.4447
101343.4441
101343.4435
101343.4427
101343.4419
101343.441
101343.44
101343.4389
101343.449
101343.449
101343.4489
101343.4489
101343.4488
101343.4487
101343.4486
101343.4485
101343.4483
101343.4482
101343.4481
101343.448
101343.4479
101343.4477
101343.4476
101343.4474
101343.4473
101343.4471
101343.447
101343.4468
101343.4467
101343.4465
101343.4462
101343.446
101343.4457
101343.4455
101343.4452
101343.4448
101343.4445
101343.4441
101343.4436
101343.4432
101343.4426
101343.442
101343.4413
101343.4406
101343.4398
101343.4389
101343.4379
101343.4368
101343.4469
101343.4469
101343.4468
101343.4468
101343.4467
101343.4466
101343.4465
101343.4463
101343.4462
101343.4461
101343.4459
101343.4458
101343.4457
101343.4456
101343.4454
101343.4453
101343.4451
101343.445
101343.4448
101343.4447
101343.4445
101343.4443
101343.4441
101343.4439
101343.4436
101343.4433
101343.443
101343.4427
101343.4424
101343.442
101343.4415
101343.441
101343.4405
101343.4399
101343.4392
101343.4385
101343.4377
101343.4368
101343.4358
101343.4347
101343.4447
101343.4447
101343.4447
101343.4446
101343.4445
101343.4445
101343.4444
101343.4442
101343.4441
101343.4439
101343.4438
101343.4437
101343.4436
101343.4434
101343.4433
101343.4432
101343.443
101343.4428
101343.4427
101343.4426
101343.4424
101343.4422
101343.442
101343.4417
101343.4415
101343.4412
101343.4409
101343.4406
101343.4402
101343.4398
101343.4394
101343.4389
101343.4384
101343.4378
101343.4371
101343.4363
101343.4355
101343.4346
101343.4337
101343.4326
101343.4426
101343.4426
101343.4425
101343.4425
101343.4424
101343.4423
101343.4422
101343.4421
101343.4419
101343.4418
101343.4417
101343.4416
101343.4415
101343.4413
101343.4412
101343.441
101343.4409
101343.4407
101343.4406
101343.4404
101343.4403
101343.4401
101343.4398
101343.4396
101343.4393
101343.4391
101343.4388
101343.4385
101343.4381
101343.4377
101343.4372
101343.4368
101343.4362
101343.4356
101343.4349
101343.4342
101343.4334
101343.4325
101343.4315
101343.4304
101343.4404
101343.4404
101343.4404
101343.4403
101343.4403
101343.4402
101343.44
101343.4399
101343.4398
101343.4397
101343.4395
101343.4394
101343.4393
101343.4392
101343.439
101343.4389
101343.4387
101343.4386
101343.4384
101343.4383
101343.4381
101343.4379
101343.4377
101343.4375
101343.4372
101343.4369
101343.4366
101343.4363
101343.436
101343.4356
101343.4351
101343.4346
101343.4341
101343.4335
101343.4328
101343.4321
101343.4313
101343.4304
101343.4294
101343.4283
101343.4383
101343.4383
101343.4383
101343.4382
101343.4381
101343.438
101343.4379
101343.4378
101343.4376
101343.4375
101343.4374
101343.4373
101343.4372
101343.437
101343.4369
101343.4367
101343.4366
101343.4364
101343.4363
101343.4361
101343.436
101343.4358
101343.4356
101343.4353
101343.4351
101343.4348
101343.4345
101343.4342
101343.4338
101343.4334
101343.433
101343.4325
101343.4319
101343.4313
101343.4307
101343.4299
101343.4292
101343.4283
101343.4273
101343.4262
101343.4362
101343.4362
101343.4361
101343.4361
101343.436
101343.4359
101343.4358
101343.4356
101343.4355
101343.4354
101343.4352
101343.4352
101343.435
101343.4349
101343.4348
101343.4346
101343.4344
101343.4343
101343.4341
101343.434
101343.4338
101343.4336
101343.4334
101343.4332
101343.4329
101343.4327
101343.4324
101343.432
101343.4317
101343.4313
101343.4309
101343.4303
101343.4298
101343.4292
101343.4285
101343.4278
101343.427
101343.4262
101343.4251
101343.4241
101343.434
101343.434
101343.434
101343.4339
101343.4338
101343.4338
101343.4336
101343.4335
101343.4333
101343.4332
101343.4331
101343.433
101343.4329
101343.4327
101343.4326
101343.4325
101343.4323
101343.4321
101343.432
101343.4319
101343.4317
101343.4315
101343.4313
101343.431
101343.4308
101343.4306
101343.4302
101343.4299
101343.4295
101343.4291
101343.4288
101343.4282
101343.4277
101343.4271
101343.4264
101343.4257
101343.4249
101343.424
101343.423
101343.422
101343.4319
101343.4319
101343.4318
101343.4318
101343.4317
101343.4316
101343.4315
101343.4313
101343.4312
101343.4311
101343.431
101343.4309
101343.4307
101343.4306
101343.4305
101343.4303
101343.4302
101343.43
101343.4298
101343.4297
101343.4295
101343.4293
101343.4291
101343.4289
101343.4286
101343.4284
101343.4281
101343.4278
101343.4274
101343.427
101343.4266
101343.4261
101343.4255
101343.4249
101343.4242
101343.4235
101343.4228
101343.4219
101343.4209
101343.4198
101343.4297
101343.4297
101343.4296
101343.4296
101343.4295
101343.4294
101343.4293
101343.4292
101343.4291
101343.429
101343.4288
101343.4287
101343.4286
101343.4285
101343.4283
101343.4282
101343.428
101343.4279
101343.4277
101343.4275
101343.4274
101343.4272
101343.427
101343.4267
101343.4265
101343.4262
101343.4259
101343.4256
101343.4253
101343.4249
101343.4244
101343.4239
101343.4234
101343.4228
101343.4221
101343.4214
101343.4206
101343.4197
101343.4187
101343.4177
101343.4276
101343.4276
101343.4275
101343.4275
101343.4274
101343.4273
101343.4272
101343.427
101343.4269
101343.4268
101343.4267
101343.4265
101343.4264
101343.4263
101343.4262
101343.426
101343.4259
101343.4257
101343.4256
101343.4254
101343.4252
101343.425
101343.4248
101343.4246
101343.4244
101343.4241
101343.4238
101343.4235
101343.4231
101343.4227
101343.4223
101343.4218
101343.4212
101343.4206
101343.42
101343.4193
101343.4185
101343.4176
101343.4166
101343.4155
101343.4255
101343.4255
101343.4254
101343.4253
101343.4252
101343.4251
101343.425
101343.4249
101343.4248
101343.4247
101343.4245
101343.4244
101343.4243
101343.4241
101343.424
101343.4239
101343.4237
101343.4236
101343.4234
101343.4232
101343.4231
101343.4229
101343.4227
101343.4225
101343.4222
101343.4219
101343.4216
101343.4213
101343.421
101343.4206
101343.4201
101343.4196
101343.4191
101343.4185
101343.4178
101343.4171
101343.4163
101343.4155
101343.4145
101343.4134
101343.4233
101343.4233
101343.4233
101343.4232
101343.4231
101343.423
101343.4229
101343.4227
101343.4226
101343.4225
101343.4224
101343.4222
101343.4221
101343.422
101343.4219
101343.4217
101343.4216
101343.4214
101343.4212
101343.4211
101343.4209
101343.4207
101343.4205
101343.4203
101343.42
101343.4198
101343.4195
101343.4192
101343.4188
101343.4184
101343.418
101343.4175
101343.4169
101343.4164
101343.4157
101343.415
101343.4142
101343.4133
101343.4124
101343.4113
101343.4212
101343.4211
101343.4211
101343.421
101343.4209
101343.4208
101343.4207
101343.4206
101343.4205
101343.4203
101343.4202
101343.4201
101343.42
101343.4198
101343.4197
101343.4196
101343.4194
101343.4193
101343.4191
101343.4189
101343.4187
101343.4186
101343.4184
101343.4181
101343.4179
101343.4176
101343.4173
101343.417
101343.4167
101343.4163
101343.4158
101343.4153
101343.4148
101343.4142
101343.4135
101343.4128
101343.412
101343.4112
101343.4102
101343.4091
101343.419
101343.4189
101343.4189
101343.4188
101343.4188
101343.4187
101343.4185
101343.4184
101343.4183
101343.4182
101343.418
101343.4179
101343.4178
101343.4177
101343.4175
101343.4174
101343.4173
101343.4171
101343.4169
101343.4168
101343.4166
101343.4164
101343.4162
101343.416
101343.4157
101343.4155
101343.4152
101343.4148
101343.4145
101343.4141
101343.4137
101343.4132
101343.4126
101343.412
101343.4114
101343.4107
101343.4099
101343.409
101343.408
101343.4069
101343.4168
101343.4168
101343.4168
101343.4167
101343.4166
101343.4165
101343.4164
101343.4163
101343.4161
101343.416
101343.4159
101343.4158
101343.4156
101343.4155
101343.4154
101343.4153
101343.4151
101343.4149
101343.4148
101343.4146
101343.4144
101343.4143
101343.4141
101343.4138
101343.4136
101343.4133
101343.413
101343.4127
101343.4123
101343.412
101343.4115
101343.411
101343.4105
101343.4099
101343.4093
101343.4085
101343.4077
101343.4068
101343.4059
101343.4048
101343.4147
101343.4147
101343.4146
101343.4145
101343.4144
101343.4143
101343.4142
101343.4141
101343.414
101343.4139
101343.4137
101343.4136
101343.4135
101343.4133
101343.4132
101343.4131
101343.4129
101343.4128
101343.4126
101343.4124
101343.4123
101343.4121
101343.4119
101343.4117
101343.4114
101343.4111
101343.4109
101343.4105
101343.4102
101343.4098
101343.4094
101343.4089
101343.4083
101343.4077
101343.4071
101343.4064
101343.4056
101343.4047
101343.4037
101343.4026
101343.4125
101343.4125
101343.4125
101343.4124
101343.4123
101343.4122
101343.4121
101343.4119
101343.4118
101343.4117
101343.4116
101343.4114
101343.4113
101343.4112
101343.4111
101343.4109
101343.4108
101343.4106
101343.4105
101343.4103
101343.4101
101343.41
101343.4098
101343.4095
101343.4093
101343.409
101343.4087
101343.4084
101343.408
101343.4076
101343.4072
101343.4067
101343.4062
101343.4056
101343.405
101343.4042
101343.4034
101343.4025
101343.4016
101343.4005
101343.4104
101343.4103
101343.4103
101343.4102
101343.4101
101343.41
101343.4099
101343.4098
101343.4097
101343.4095
101343.4094
101343.4093
101343.4091
101343.409
101343.4089
101343.4088
101343.4086
101343.4085
101343.4083
101343.4081
101343.4079
101343.4078
101343.4076
101343.4073
101343.4071
101343.4068
101343.4065
101343.4062
101343.4059
101343.4055
101343.4051
101343.4045
101343.404
101343.4034
101343.4028
101343.4021
101343.4012
101343.4004
101343.3994
101343.3983
101343.4082
101343.4081
101343.4081
101343.408
101343.408
101343.4079
101343.4077
101343.4076
101343.4075
101343.4074
101343.4072
101343.4071
101343.407
101343.4069
101343.4067
101343.4066
101343.4064
101343.4063
101343.4061
101343.406
101343.4058
101343.4056
101343.4054
101343.4052
101343.4049
101343.4047
101343.4044
101343.404
101343.4037
101343.4033
101343.4029
101343.4024
101343.4018
101343.4012
101343.4006
101343.3999
101343.3991
101343.3982
101343.3972
101343.3962
101343.406
101343.406
101343.406
101343.4059
101343.4058
101343.4057
101343.4056
101343.4055
101343.4053
101343.4052
101343.4051
101343.405
101343.4048
101343.4047
101343.4045
101343.4044
101343.4043
101343.4041
101343.404
101343.4038
101343.4036
101343.4034
101343.4032
101343.403
101343.4028
101343.4025
101343.4022
101343.4019
101343.4015
101343.4012
101343.4007
101343.4002
101343.3997
101343.3991
101343.3985
101343.3977
101343.3969
101343.396
101343.3951
101343.394
101343.4039
101343.4039
101343.4038
101343.4037
101343.4036
101343.4035
101343.4034
101343.4033
101343.4032
101343.4031
101343.4029
101343.4028
101343.4027
101343.4025
101343.4024
101343.4022
101343.4021
101343.402
101343.4018
101343.4016
101343.4015
101343.4013
101343.4011
101343.4009
101343.4006
101343.4003
101343.4
101343.3997
101343.3994
101343.399
101343.3985
101343.3981
101343.3975
101343.3969
101343.3963
101343.3956
101343.3948
101343.3939
101343.3929
101343.3919
101343.4017
101343.4017
101343.4017
101343.4016
101343.4015
101343.4014
101343.4012
101343.4011
101343.401
101343.4009
101343.4007
101343.4006
101343.4005
101343.4003
101343.4002
101343.4001
101343.3999
101343.3998
101343.3996
101343.3995
101343.3993
101343.3991
101343.3989
101343.3987
101343.3984
101343.3982
101343.3979
101343.3976
101343.3972
101343.3968
101343.3964
101343.3959
101343.3954
101343.3948
101343.3942
101343.3934
101343.3926
101343.3917
101343.3908
101343.3898
101343.3995
101343.3995
101343.3995
101343.3994
101343.3993
101343.3992
101343.3991
101343.3989
101343.3988
101343.3987
101343.3986
101343.3984
101343.3983
101343.3982
101343.398
101343.3979
101343.3978
101343.3976
101343.3975
101343.3973
101343.3971
101343.3969
101343.3967
101343.3965
101343.3963
101343.396
101343.3957
101343.3954
101343.395
101343.3946
101343.3942
101343.3937
101343.3932
101343.3926
101343.392
101343.3912
101343.3904
101343.3896
101343.3886
101343.3876
101343.3973
101343.3973
101343.3972
101343.3972
101343.3971
101343.397
101343.3969
101343.3968
101343.3967
101343.3965
101343.3964
101343.3963
101343.3961
101343.396
101343.3958
101343.3957
101343.3956
101343.3954
101343.3953
101343.3951
101343.3949
101343.3947
101343.3945
101343.3943
101343.3941
101343.3938
101343.3935
101343.3932
101343.3929
101343.3925
101343.392
101343.3916
101343.391
101343.3904
101343.3898
101343.3891
101343.3883
101343.3874
101343.3864
101343.3854
101343.3952
101343.3951
101343.3951
101343.395
101343.3949
101343.3948
101343.3947
101343.3946
101343.3945
101343.3943
101343.3942
101343.3941
101343.3939
101343.3938
101343.3937
101343.3935
101343.3934
101343.3933
101343.3931
101343.3929
101343.3927
101343.3926
101343.3924
101343.3921
101343.3919
101343.3916
101343.3913
101343.391
101343.3907
101343.3903
101343.3899
101343.3894
101343.3889
101343.3883
101343.3876
101343.3869
101343.3861
101343.3852
101343.3843
101343.3832
101343.393
101343.393
101343.393
101343.3928
101343.3927
101343.3926
101343.3925
101343.3924
101343.3923
101343.3922
101343.392
101343.3919
101343.3918
101343.3916
101343.3915
101343.3913
101343.3912
101343.3911
101343.3909
101343.3907
101343.3906
101343.3904
101343.3902
101343.39
101343.3897
101343.3894
101343.3892
101343.3889
101343.3885
101343.3881
101343.3877
101343.3872
101343.3867
101343.3861
101343.3854
101343.3847
101343.3839
101343.3831
101343.3821
101343.381
101343.3908
101343.3908
101343.3908
101343.3907
101343.3905
101343.3904
101343.3903
101343.3902
101343.3901
101343.39
101343.3898
101343.3897
101343.3896
101343.3894
101343.3893
101343.3892
101343.389
101343.3889
101343.3887
101343.3886
101343.3884
101343.3882
101343.388
101343.3878
101343.3875
101343.3873
101343.387
101343.3867
101343.3863
101343.3859
101343.3855
101343.385
101343.3845
101343.3839
101343.3833
101343.3826
101343.3818
101343.3809
101343.3799
101343.3789
101343.3886
101343.3886
101343.3885
101343.3885
101343.3884
101343.3883
101343.3881
101343.388
101343.3879
101343.3878
101343.3876
101343.3875
101343.3874
101343.3872
101343.3871
101343.387
101343.3868
101343.3867
101343.3865
101343.3864
101343.3862
101343.386
101343.3858
101343.3856
101343.3854
101343.3851
101343.3848
101343.3845
101343.3841
101343.3837
101343.3833
101343.3829
101343.3823
101343.3818
101343.3811
101343.3804
101343.3796
101343.3787
101343.3778
101343.3767
101343.3864
101343.3863
101343.3863
101343.3862
101343.3862
101343.3861
101343.3859
101343.3858
101343.3857
101343.3856
101343.3854
101343.3853
101343.3852
101343.3851
101343.3849
101343.3848
101343.3846
101343.3845
101343.3844
101343.3842
101343.384
101343.3838
101343.3836
101343.3834
101343.3832
101343.3829
101343.3826
101343.3823
101343.382
101343.3816
101343.3811
101343.3807
101343.3801
101343.3796
101343.3789
101343.3782
101343.3774
101343.3765
101343.3756
101343.3745
101343.3842
101343.3842
101343.3841
101343.3841
101343.384
101343.3839
101343.3837
101343.3836
101343.3835
101343.3834
101343.3832
101343.3831
101343.383
101343.3829
101343.3827
101343.3826
101343.3825
101343.3823
101343.3822
101343.382
101343.3818
101343.3817
101343.3815
101343.3812
101343.381
101343.3807
101343.3804
101343.3801
101343.3798
101343.3794
101343.3789
101343.3785
101343.378
101343.3774
101343.3767
101343.376
101343.3752
101343.3744
101343.3734
101343.3723
101343.382
101343.382
101343.382
101343.3819
101343.3818
101343.3817
101343.3815
101343.3814
101343.3813
101343.3812
101343.381
101343.3809
101343.3808
101343.3807
101343.3806
101343.3804
101343.3803
101343.3801
101343.38
101343.3798
101343.3797
101343.3795
101343.3793
101343.3791
101343.3788
101343.3785
101343.3782
101343.378
101343.3776
101343.3772
101343.3767
101343.3763
101343.3758
101343.3752
101343.3745
101343.3738
101343.3731
101343.3722
101343.3712
101343.3701
101343.3798
101343.3798
101343.3798
101343.3797
101343.3796
101343.3795
101343.3793
101343.3792
101343.3791
101343.379
101343.3788
101343.3787
101343.3786
101343.3785
101343.3784
101343.3782
101343.3781
101343.3779
101343.3778
101343.3776
101343.3775
101343.3773
101343.3771
101343.3769
101343.3766
101343.3764
101343.3761
101343.3758
101343.3754
101343.375
101343.3745
101343.3741
101343.3736
101343.373
101343.3724
101343.3716
101343.3709
101343.37
101343.369
101343.368
101343.3776
101343.3776
101343.3775
101343.3775
101343.3774
101343.3773
101343.3771
101343.377
101343.3769
101343.3768
101343.3766
101343.3765
101343.3764
101343.3763
101343.3762
101343.376
101343.3759
101343.3757
101343.3756
101343.3754
101343.3753
101343.3751
101343.3749
101343.3747
101343.3744
101343.3742
101343.3739
101343.3736
101343.3732
101343.3728
101343.3724
101343.3719
101343.3714
101343.3708
101343.3702
101343.3694
101343.3687
101343.3678
101343.3669
101343.3658
101343.3754
101343.3753
101343.3753
101343.3752
101343.3752
101343.3751
101343.3749
101343.3748
101343.3747
101343.3746
101343.3744
101343.3743
101343.3742
101343.3741
101343.3739
101343.3738
101343.3737
101343.3735
101343.3734
101343.3732
101343.3731
101343.3729
101343.3727
101343.3725
101343.3722
101343.372
101343.3717
101343.3713
101343.371
101343.3706
101343.3702
101343.3697
101343.3692
101343.3686
101343.368
101343.3672
101343.3665
101343.3656
101343.3647
101343.3636
101343.3732
101343.3732
101343.3731
101343.3731
101343.373
101343.3729
101343.3727
101343.3726
101343.3725
101343.3724
101343.3722
101343.3721
101343.372
101343.3719
101343.3718
101343.3716
101343.3715
101343.3713
101343.3712
101343.371
101343.3709
101343.3707
101343.3705
101343.3703
101343.37
101343.3698
101343.3695
101343.3692
101343.3688
101343.3684
101343.368
101343.3675
101343.367
101343.3664
101343.3658
101343.3651
101343.3643
101343.3634
101343.3625
101343.3614
101343.371
101343.371
101343.371
101343.3709
101343.3708
101343.3706
101343.3705
101343.3704
101343.3703
101343.3702
101343.37
101343.3699
101343.3698
101343.3697
101343.3696
101343.3694
101343.3693
101343.3691
101343.369
101343.3688
101343.3687
101343.3685
101343.3683
101343.3681
101343.3678
101343.3676
101343.3673
101343.367
101343.3666
101343.3662
101343.3658
101343.3653
101343.3648
101343.3642
101343.3636
101343.3629
101343.3621
101343.3612
101343.3603
101343.3592
101343.3688
101343.3688
101343.3688
101343.3687
101343.3685
101343.3684
101343.3683
101343.3682
101343.3681
101343.368
101343.3678
101343.3677
101343.3676
101343.3675
101343.3674
101343.3672
101343.3671
101343.3669
101343.3668
101343.3666
101343.3665
101343.3663
101343.3661
101343.3659
101343.3656
101343.3654
101343.3651
101343.3648
101343.3644
101343.364
101343.3636
101343.3631
101343.3626
101343.362
101343.3614
101343.3607
101343.3599
101343.359
101343.3581
101343.3571
101343.3666
101343.3665
101343.3665
101343.3664
101343.3663
101343.3662
101343.3661
101343.366
101343.3659
101343.3658
101343.3656
101343.3655
101343.3654
101343.3653
101343.3651
101343.365
101343.3649
101343.3647
101343.3646
101343.3644
101343.3642
101343.3641
101343.3639
101343.3636
101343.3634
101343.3631
101343.3629
101343.3626
101343.3622
101343.3618
101343.3614
101343.361
101343.3604
101343.3598
101343.3592
101343.3585
101343.3577
101343.3568
101343.3559
101343.3549
101343.3643
101343.3643
101343.3642
101343.3642
101343.3641
101343.364
101343.3639
101343.3638
101343.3637
101343.3636
101343.3634
101343.3633
101343.3632
101343.3631
101343.3629
101343.3628
101343.3626
101343.3625
101343.3624
101343.3622
101343.362
101343.3618
101343.3616
101343.3614
101343.3612
101343.3609
101343.3607
101343.3603
101343.36
101343.3596
101343.3592
101343.3588
101343.3582
101343.3576
101343.357
101343.3562
101343.3555
101343.3546
101343.3537
101343.3527
101343.3621
101343.3621
101343.3621
101343.362
101343.3619
101343.3618
101343.3617
101343.3616
101343.3614
101343.3613
101343.3612
101343.3611
101343.361
101343.3608
101343.3607
101343.3606
101343.3604
101343.3603
101343.3601
101343.36
101343.3598
101343.3596
101343.3594
101343.3592
101343.359
101343.3587
101343.3585
101343.3582
101343.3578
101343.3574
101343.357
101343.3566
101343.356
101343.3554
101343.3548
101343.3541
101343.3533
101343.3524
101343.3515
101343.3505
101343.3599
101343.3599
101343.3599
101343.3598
101343.3597
101343.3596
101343.3595
101343.3594
101343.3592
101343.3591
101343.359
101343.3589
101343.3588
101343.3586
101343.3585
101343.3584
101343.3582
101343.3581
101343.3579
101343.3578
101343.3576
101343.3574
101343.3572
101343.357
101343.3568
101343.3566
101343.3563
101343.356
101343.3556
101343.3552
101343.3548
101343.3543
101343.3538
101343.3532
101343.3526
101343.3519
101343.3511
101343.3502
101343.3493
101343.3483
101343.3577
101343.3577
101343.3577
101343.3576
101343.3575
101343.3574
101343.3573
101343.3572
101343.357
101343.3569
101343.3568
101343.3567
101343.3566
101343.3564
101343.3563
101343.3561
101343.356
101343.3559
101343.3557
101343.3555
101343.3554
101343.3552
101343.355
101343.3548
101343.3545
101343.3543
101343.354
101343.3538
101343.3534
101343.353
101343.3526
101343.3521
101343.3516
101343.351
101343.3504
101343.3497
101343.3489
101343.348
101343.3471
101343.3461
101343.3555
101343.3554
101343.3554
101343.3554
101343.3553
101343.3552
101343.3551
101343.3549
101343.3548
101343.3547
101343.3546
101343.3545
101343.3543
101343.3542
101343.3541
101343.3539
101343.3538
101343.3537
101343.3535
101343.3533
101343.3532
101343.353
101343.3528
101343.3526
101343.3523
101343.3521
101343.3518
101343.3515
101343.3512
101343.3508
101343.3504
101343.3499
101343.3494
101343.3488
101343.3481
101343.3475
101343.3467
101343.3458
101343.3449
101343.3438
101343.3532
101343.3532
101343.3532
101343.3531
101343.3531
101343.353
101343.3528
101343.3527
101343.3526
101343.3525
101343.3523
101343.3522
101343.3521
101343.352
101343.3518
101343.3517
101343.3516
101343.3514
101343.3513
101343.3511
101343.3509
101343.3508
101343.3506
101343.3503
101343.3501
101343.3499
101343.3496
101343.3493
101343.349
101343.3486
101343.3482
101343.3477
101343.3472
101343.3466
101343.3459
101343.3452
101343.3445
101343.3436
101343.3427
101343.3416
101343.351
101343.351
101343.351
101343.3509
101343.3508
101343.3508
101343.3506
101343.3505
101343.3504
101343.3502
101343.3501
101343.35
101343.3499
101343.3498
101343.3496
101343.3495
101343.3494
101343.3492
101343.3491
101343.3489
101343.3487
101343.3486
101343.3484
101343.3481
101343.3479
101343.3477
101343.3474
101343.3471
101343.3467
101343.3464
101343.3459
101343.3455
101343.345
101343.3444
101343.3437
101343.343
101343.3423
101343.3414
101343.3405
101343.3394
101343.3488
101343.3488
101343.3488
101343.3487
101343.3486
101343.3485
101343.3484
101343.3483
101343.3481
101343.348
101343.3479
101343.3478
101343.3477
101343.3475
101343.3474
101343.3473
101343.3471
101343.347
101343.3468
101343.3467
101343.3465
101343.3464
101343.3461
101343.3459
101343.3457
101343.3455
101343.3452
101343.3449
101343.3445
101343.3441
101343.3437
101343.3433
101343.3427
101343.3422
101343.3415
101343.3408
101343.3401
101343.3392
101343.3383
101343.3373
101343.3466
101343.3466
101343.3466
101343.3465
101343.3464
101343.3463
101343.3462
101343.3461
101343.3459
101343.3458
101343.3457
101343.3456
101343.3455
101343.3453
101343.3452
101343.345
101343.3449
101343.3448
101343.3446
101343.3444
101343.3443
101343.3441
101343.3439
101343.3437
101343.3434
101343.3432
101343.3429
101343.3427
101343.3423
101343.3419
101343.3415
101343.341
101343.3405
101343.3399
101343.3393
101343.3386
101343.3379
101343.337
101343.336
101343.335
101343.3444
101343.3443
101343.3443
101343.3443
101343.3442
101343.3441
101343.344
101343.3438
101343.3437
101343.3436
101343.3434
101343.3433
101343.3432
101343.3431
101343.3429
101343.3428
101343.3427
101343.3425
101343.3424
101343.3422
101343.3421
101343.3419
101343.3417
101343.3415
101343.3412
101343.341
101343.3407
101343.3404
101343.3401
101343.3397
101343.3393
101343.3388
101343.3383
101343.3377
101343.3371
101343.3364
101343.3356
101343.3348
101343.3338
101343.3328
101343.3421
101343.3421
101343.342
101343.342
101343.3419
101343.3418
101343.3417
101343.3416
101343.3415
101343.3414
101343.3412
101343.3411
101343.341
101343.3409
101343.3407
101343.3406
101343.3404
101343.3403
101343.3402
101343.34
101343.3398
101343.3397
101343.3395
101343.3392
101343.339
101343.3387
101343.3385
101343.3382
101343.3378
101343.3375
101343.3371
101343.3366
101343.3361
101343.3355
101343.3349
101343.3342
101343.3334
101343.3326
101343.3316
101343.3306
101343.3399
101343.3399
101343.3399
101343.3398
101343.3397
101343.3396
101343.3395
101343.3394
101343.3392
101343.3391
101343.339
101343.3389
101343.3387
101343.3386
101343.3385
101343.3384
101343.3382
101343.3381
101343.3379
101343.3378
101343.3376
101343.3374
101343.3372
101343.337
101343.3368
101343.3365
101343.3362
101343.3359
101343.3356
101343.3353
101343.3348
101343.3344
101343.3339
101343.3333
101343.3327
101343.332
101343.3312
101343.3304
101343.3294
101343.3284
101343.3377
101343.3377
101343.3377
101343.3376
101343.3375
101343.3374
101343.3373
101343.3371
101343.337
101343.3369
101343.3368
101343.3366
101343.3365
101343.3364
101343.3363
101343.3361
101343.336
101343.3358
101343.3357
101343.3356
101343.3354
101343.3352
101343.335
101343.3348
101343.3345
101343.3343
101343.334
101343.3337
101343.3334
101343.333
101343.3326
101343.3322
101343.3316
101343.3311
101343.3305
101343.3297
101343.329
101343.3281
101343.3272
101343.3262
101343.3355
101343.3355
101343.3354
101343.3353
101343.3352
101343.3351
101343.335
101343.3349
101343.3348
101343.3347
101343.3345
101343.3344
101343.3343
101343.3341
101343.334
101343.3339
101343.3337
101343.3336
101343.3334
101343.3333
101343.3331
101343.333
101343.3328
101343.3326
101343.3323
101343.332
101343.3318
101343.3315
101343.3312
101343.3308
101343.3304
101343.3299
101343.3294
101343.3288
101343.3282
101343.3275
101343.3268
101343.3259
101343.325
101343.3239
101343.3332
101343.3332
101343.3332
101343.3331
101343.333
101343.3329
101343.3328
101343.3327
101343.3325
101343.3324
101343.3323
101343.3322
101343.332
101343.3319
101343.3318
101343.3317
101343.3315
101343.3314
101343.3312
101343.3311
101343.3309
101343.3307
101343.3305
101343.3303
101343.3301
101343.3298
101343.3295
101343.3292
101343.3289
101343.3286
101343.3282
101343.3277
101343.3272
101343.3266
101343.326
101343.3253
101343.3245
101343.3237
101343.3228
101343.3217
101343.331
101343.3309
101343.3309
101343.3308
101343.3308
101343.3307
101343.3305
101343.3304
101343.3303
101343.3302
101343.33
101343.3299
101343.3298
101343.3297
101343.3295
101343.3294
101343.3293
101343.3291
101343.329
101343.3288
101343.3287
101343.3285
101343.3283
101343.3281
101343.3278
101343.3276
101343.3273
101343.327
101343.3267
101343.3263
101343.3259
101343.3255
101343.3249
101343.3244
101343.3237
101343.3231
101343.3223
101343.3215
101343.3205
101343.3195
101343.3288
101343.3287
101343.3287
101343.3286
101343.3285
101343.3284
101343.3283
101343.3282
101343.3281
101343.3279
101343.3278
101343.3277
101343.3276
101343.3274
101343.3273
101343.3272
101343.327
101343.3269
101343.3267
101343.3266
101343.3264
101343.3262
101343.326
101343.3258
101343.3256
101343.3254
101343.3251
101343.3248
101343.3244
101343.3241
101343.3237
101343.3232
101343.3227
101343.3222
101343.3215
101343.3208
101343.3201
101343.3193
101343.3183
101343.3173
101343.3265
101343.3265
101343.3265
101343.3264
101343.3263
101343.3262
101343.3261
101343.3259
101343.3258
101343.3257
101343.3256
101343.3254
101343.3253
101343.3252
101343.3251
101343.3249
101343.3248
101343.3246
101343.3245
101343.3244
101343.3242
101343.324
101343.3238
101343.3236
101343.3234
101343.3232
101343.3228
101343.3226
101343.3222
101343.3218
101343.3214
101343.321
101343.3205
101343.32
101343.3193
101343.3186
101343.3178
101343.317
101343.3161
101343.3151
101343.3243
101343.3243
101343.3242
101343.3241
101343.324
101343.3239
101343.3238
101343.3237
101343.3236
101343.3235
101343.3233
101343.3232
101343.3231
101343.3229
101343.3228
101343.3227
101343.3225
101343.3224
101343.3222
101343.3221
101343.3219
101343.3218
101343.3216
101343.3214
101343.3211
101343.3209
101343.3206
101343.3203
101343.32
101343.3196
101343.3192
101343.3187
101343.3182
101343.3177
101343.317
101343.3163
101343.3156
101343.3148
101343.3138
101343.3128
101343.322
101343.322
101343.3219
101343.3219
101343.3218
101343.3217
101343.3216
101343.3214
101343.3213
101343.3212
101343.3211