/*--------------------------------*- C++ -*----------------------------------*\
| =========                 |                                                 |
| \\      /  F ield         | OpenFOAM: The Open Source CFD Toolbox           |
|  \\    /   O peration     | Version:  v2006                                 |
|   \\  /    A nd           | Website:  www.openfoam.com                      |
|    \\/     M anipulation  |                                                 |
\*---------------------------------------------------------------------------*/
FoamFile
{
    version     2.0;
    format      ascii;
    class       volScalarField;
    location    "0.09";
    object      theta1;
}
// * * * * * * * * * * * * * * * * * * * * * * * * * * * * * * * * * * * * * //

dimensions      [0 0 0 0 0 0 0];


internalField   nonuniform List<scalar> 
168000
(
1
1
1
1
1
1
1
1
1
1
1
1
1
1
1
1
1
1
1
1
1
1
1
1
1
1
1
1
0.9999999999
0.9999999998
0.9999999997
0.9999999994
0.9999999988
0.9999999978
0.9999999957
0.9999999909
0.9999999814
0.9999999626
0.9999999247
0.9999998441
1
1
1
1
1
1
1
1
1
1
1
1
1
1
1
1
1
1
1
1
1
1
1
1
1
1
1
1
0.9999999999
0.9999999998
0.9999999997
0.9999999994
0.9999999987
0.9999999975
0.9999999951
0.9999999904
0.9999999803
0.9999999597
0.9999999162
0.9999998239
1
1
1
1
1
1
1
1
1
1
1
1
1
1
1
1
1
1
1
1
1
1
1
1
1
1
1
1
0.9999999999
0.9999999998
0.9999999996
0.9999999993
0.9999999986
0.9999999971
0.9999999943
0.9999999892
0.9999999789
0.9999999557
0.9999999071
0.9999998036
1
1
1
1
1
1
1
1
1
1
1
1
1
1
1
1
1
1
1
1
1
1
1
1
1
1
1
1
0.9999999999
0.9999999998
0.9999999996
0.9999999993
0.9999999986
0.9999999972
0.9999999944
0.9999999891
0.9999999781
0.9999999562
0.9999999081
0.9999998059
1
1
1
1
1
1
1
1
1
1
1
1
1
1
1
1
1
1
1
1
1
1
1
1
1
1
1
1
0.9999999999
0.9999999998
0.9999999996
0.9999999992
0.9999999985
0.9999999972
0.9999999944
0.9999999884
0.9999999766
0.9999999536
0.9999999077
0.9999998081
1
1
1
1
1
1
1
1
1
1
1
1
1
1
1
1
1
1
1
1
1
1
1
1
1
1
1
1
0.9999999999
0.9999999998
0.9999999996
0.9999999992
0.9999999984
0.999999997
0.9999999941
0.9999999878
0.9999999751
0.9999999503
0.9999999002
0.9999997942
1
1
1
1
1
1
1
1
1
1
1
1
1
1
1
1
1
1
1
1
1
1
1
1
1
1
1
1
0.9999999999
0.9999999998
0.9999999995
0.9999999991
0.9999999983
0.9999999965
0.9999999934
0.9999999871
0.9999999737
0.9999999465
0.999999889
0.9999997677
1
1
1
1
1
1
1
1
1
1
1
1
1
1
1
1
1
1
1
1
1
1
1
1
1
1
1
1
0.9999999999
0.9999999997
0.9999999995
0.999999999
0.9999999981
0.9999999961
0.9999999923
0.9999999856
0.9999999718
0.9999999412
0.9999998771
0.9999997412
1
1
1
1
1
1
1
1
1
1
1
1
1
1
1
1
1
1
1
1
1
1
1
1
1
1
1
1
0.9999999999
0.9999999997
0.9999999995
0.999999999
0.9999999981
0.9999999961
0.9999999925
0.9999999853
0.9999999708
0.9999999419
0.9999998785
0.9999997441
1
1
1
1
1
1
1
1
1
1
1
1
1
1
1
1
1
1
1
1
1
1
1
1
1
1
1
1
0.9999999999
0.9999999997
0.9999999995
0.9999999989
0.9999999979
0.9999999962
0.9999999924
0.9999999845
0.9999999689
0.9999999384
0.9999998779
0.999999747
1
1
1
1
1
1
1
1
1
1
1
1
1
1
1
1
1
1
1
1
1
1
1
1
1
1
1
1
0.9999999999
0.9999999997
0.9999999995
0.9999999989
0.9999999977
0.9999999958
0.9999999921
0.9999999836
0.9999999669
0.999999934
0.9999998681
0.9999997288
1
1
1
1
1
1
1
1
1
1
1
1
1
1
1
1
1
1
1
1
1
1
1
1
1
1
1
0.9999999999
0.9999999998
0.9999999997
0.9999999993
0.9999999988
0.9999999976
0.9999999952
0.9999999911
0.9999999828
0.999999965
0.9999999292
0.9999998535
0.9999996942
1
1
1
1
1
1
1
1
1
1
1
1
1
1
1
1
1
1
1
1
1
1
1
1
1
1
1
0.9999999999
0.9999999998
0.9999999996
0.9999999992
0.9999999986
0.9999999973
0.9999999947
0.9999999897
0.9999999807
0.9999999626
0.9999999222
0.9999998379
0.9999996596
1
1
1
1
1
1
1
1
1
1
1
1
1
1
1
1
1
1
1
1
1
1
1
1
1
1
1
0.9999999999
0.9999999998
0.9999999996
0.9999999992
0.9999999986
0.9999999973
0.9999999947
0.9999999899
0.9999999804
0.9999999612
0.999999923
0.9999998397
0.9999996634
1
1
1
1
1
1
1
1
1
1
1
1
1
1
1
1
1
1
1
1
1
1
1
1
1
1
1
0.9999999999
0.9999999998
0.9999999996
0.9999999992
0.9999999985
0.9999999971
0.9999999948
0.9999999898
0.9999999793
0.9999999586
0.9999999185
0.9999998389
0.9999996672
1
1
1
1
1
1
1
1
1
1
1
1
1
1
1
1
1
1
1
1
1
1
1
1
1
1
1
0.9999999999
0.9999999998
0.9999999995
0.9999999992
0.9999999984
0.9999999969
0.9999999943
0.9999999893
0.9999999781
0.9999999561
0.9999999128
0.9999998261
0.9999996435
1
1
1
1
1
1
1
1
1
1
1
1
1
1
1
1
1
1
1
1
1
1
1
1
1
1
1
0.9999999999
0.9999999998
0.9999999995
0.999999999
0.9999999983
0.9999999967
0.9999999936
0.999999988
0.999999977
0.9999999535
0.9999999064
0.999999807
0.9999995983
1
1
1
1
1
1
1
1
1
1
1
1
1
1
1
1
1
1
1
1
1
1
1
1
1
1
1
0.9999999999
0.9999999997
0.9999999994
0.9999999989
0.999999998
0.9999999963
0.9999999928
0.9999999862
0.9999999743
0.9999999503
0.9999998972
0.9999997865
0.9999995532
1
1
1
1
1
1
1
1
1
1
1
1
1
1
1
1
1
1
1
1
1
1
1
1
1
1
1
0.9999999999
0.9999999997
0.9999999995
0.9999999989
0.999999998
0.9999999963
0.9999999929
0.9999999864
0.9999999739
0.9999999485
0.9999998983
0.9999997889
0.9999995581
1
1
1
1
1
1
1
1
1
1
1
1
1
1
1
1
1
1
1
1
1
1
1
1
1
1
0.9999999999
0.9999999999
0.9999999997
0.9999999994
0.9999999989
0.9999999979
0.9999999961
0.999999993
0.9999999863
0.9999999724
0.9999999452
0.9999998924
0.9999997879
0.9999995631
1
1
1
1
1
1
1
1
1
1
1
1
1
1
1
1
1
1
1
1
1
1
1
1
1
1
0.9999999999
0.9999999999
0.9999999997
0.9999999994
0.9999999989
0.9999999978
0.9999999958
0.9999999924
0.9999999857
0.9999999709
0.9999999418
0.9999998848
0.9999997711
0.9999995321
1
1
1
1
1
1
1
1
1
1
1
1
1
1
1
1
1
1
1
1
1
1
1
1
1
1
0.9999999999
0.9999999998
0.9999999997
0.9999999993
0.9999999987
0.9999999977
0.9999999955
0.9999999914
0.999999984
0.9999999694
0.9999999384
0.9999998764
0.9999997462
0.9999994734
1
1
1
1
1
1
1
1
1
1
1
1
1
1
1
1
1
1
1
1
1
1
1
1
1
1
0.9999999999
0.9999999998
0.9999999996
0.9999999992
0.9999999985
0.9999999973
0.9999999951
0.9999999904
0.9999999816
0.9999999659
0.9999999343
0.9999998644
0.9999997195
0.9999994147
1
1
1
1
1
1
1
1
1
1
1
1
1
1
1
1
1
1
1
1
1
1
1
1
1
1
0.9999999999
0.9999999998
0.9999999996
0.9999999992
0.9999999985
0.9999999973
0.9999999951
0.9999999905
0.9999999819
0.9999999653
0.9999999319
0.9999998659
0.9999997226
0.9999994211
1
1
1
1
1
1
1
1
1
1
1
1
1
1
1
1
1
1
1
1
1
1
1
1
1
1
0.9999999999
0.9999999998
0.9999999996
0.9999999992
0.9999999986
0.9999999972
0.9999999947
0.9999999906
0.9999999818
0.9999999634
0.9999999275
0.9999998582
0.9999997212
0.9999994275
1
1
1
1
1
1
1
1
1
1
1
1
1
1
1
1
1
1
1
1
1
1
1
1
1
1
0.9999999999
0.9999999998
0.9999999995
0.9999999991
0.9999999985
0.999999997
0.9999999943
0.9999999899
0.999999981
0.9999999614
0.9999999231
0.9999998483
0.9999996994
0.9999993873
1
1
1
1
1
1
1
1
1
1
1
1
1
1
1
1
1
1
1
1
1
1
1
1
1
1
0.9999999999
0.9999999997
0.9999999995
0.999999999
0.9999999982
0.9999999968
0.9999999939
0.9999999885
0.9999999787
0.9999999595
0.9999999187
0.9999998374
0.9999996669
0.999999311
1
1
1
1
1
1
1
1
1
1
1
1
1
1
1
1
1
1
1
1
1
1
1
1
1
0.9999999999
0.9999999999
0.9999999997
0.9999999994
0.9999999989
0.999999998
0.9999999964
0.9999999934
0.9999999871
0.9999999756
0.9999999548
0.9999999133
0.9999998217
0.9999996321
0.9999992347
1
1
1
1
1
1
1
1
1
1
1
1
1
1
1
1
1
1
1
1
1
1
1
1
1
0.9999999999
0.9999999998
0.9999999997
0.9999999994
0.999999999
0.999999998
0.9999999964
0.9999999934
0.9999999873
0.999999976
0.9999999541
0.9999999102
0.9999998236
0.9999996361
0.999999243
1
1
1
1
1
1
1
1
1
1
1
1
1
1
1
1
1
1
1
1
1
1
1
1
1
0.9999999999
0.9999999998
0.9999999997
0.9999999994
0.9999999989
0.9999999981
0.9999999962
0.9999999929
0.9999999875
0.9999999758
0.9999999515
0.9999999044
0.9999998135
0.9999996344
0.9999992513
1
1
1
1
1
1
1
1
1
1
1
1
1
1
1
1
1
1
1
1
1
1
1
1
1
0.9999999999
0.9999999998
0.9999999997
0.9999999993
0.9999999988
0.9999999979
0.9999999959
0.9999999924
0.9999999865
0.9999999747
0.999999949
0.9999998986
0.9999998007
0.999999606
0.9999991992
1
1
1
1
1
1
1
1
1
1
1
1
1
1
1
1
1
1
1
1
1
1
1
1
1
0.9999999999
0.9999999998
0.9999999996
0.9999999993
0.9999999987
0.9999999976
0.9999999957
0.9999999919
0.9999999847
0.9999999717
0.9999999464
0.9999998929
0.9999997864
0.9999995637
0.9999991003
1
1
1
1
1
1
1
1
1
1
1
1
1
1
1
1
1
1
1
1
1
1
1
1
1
0.9999999999
0.9999999998
0.9999999995
0.9999999992
0.9999999985
0.9999999972
0.9999999951
0.9999999911
0.9999999829
0.9999999676
0.9999999403
0.9999998858
0.9999997659
0.9999995185
0.9999990013
1
1
1
1
1
1
1
1
1
1
1
1
1
1
1
1
1
1
1
1
1
1
1
1
1
0.9999999999
0.9999999998
0.9999999996
0.9999999992
0.9999999986
0.9999999973
0.9999999951
0.9999999911
0.9999999831
0.9999999682
0.9999999394
0.9999998817
0.9999997684
0.9999995237
0.999999012
1
1
1
1
1
1
1
1
1
1
1
1
1
1
1
1
1
1
1
1
1
1
1
1
1
0.9999999999
0.9999999998
0.9999999996
0.9999999991
0.9999999984
0.9999999973
0.9999999948
0.9999999905
0.9999999833
0.9999999679
0.999999936
0.9999998742
0.9999997552
0.9999995214
0.9999990226
1
1
1
1
1
1
1
1
1
1
1
1
1
1
1
1
1
1
1
1
1
1
1
1
1
0.9999999999
0.9999999997
0.9999999995
0.9999999991
0.9999999983
0.9999999971
0.9999999946
0.9999999898
0.999999982
0.9999999664
0.9999999327
0.9999998667
0.9999997385
0.9999994846
0.9999989553
1
1
1
1
1
1
1
1
1
1
1
1
1
1
1
1
1
1
1
1
1
1
1
1
1
0.9999999999
0.9999999997
0.9999999994
0.999999999
0.9999999982
0.9999999967
0.9999999943
0.9999999892
0.9999999796
0.9999999626
0.9999999293
0.9999998592
0.99999972
0.9999994298
0.9999988272
1
1
1
1
1
1
1
1
1
1
1
1
1
1
1
1
1
1
1
1
1
1
1
1
0.9999999999
0.9999999998
0.9999999997
0.9999999994
0.9999999989
0.999999998
0.9999999963
0.9999999935
0.9999999882
0.9999999773
0.9999999572
0.9999999213
0.9999998499
0.9999996933
0.9999993711
0.9999986992
1
1
1
1
1
1
1
1
1
1
1
1
1
1
1
1
1
1
1
1
1
1
1
1
0.9999999999
0.9999999998
0.9999999997
0.9999999994
0.9999999989
0.999999998
0.9999999963
0.9999999935
0.9999999882
0.9999999776
0.9999999579
0.9999999201
0.9999998446
0.9999996965
0.9999993777
0.9999987129
1
1
1
1
1
1
1
1
1
1
1
1
1
1
1
1
1
1
1
1
1
1
1
1
0.9999999999
0.9999999998
0.9999999996
0.9999999994
0.9999999988
0.9999999979
0.9999999964
0.9999999931
0.9999999873
0.9999999779
0.9999999576
0.9999999157
0.9999998348
0.9999996795
0.9999993748
0.9999987266
1
1
1
1
1
1
1
1
1
1
1
1
1
1
1
1
1
1
1
1
1
1
1
1
0.9999999999
0.9999999998
0.9999999996
0.9999999993
0.9999999988
0.9999999977
0.9999999962
0.9999999927
0.9999999865
0.9999999762
0.9999999556
0.9999999113
0.999999825
0.9999996578
0.9999993271
0.9999986396
1
1
1
1
1
1
1
1
1
1
1
1
1
1
1
1
1
1
1
1
1
1
1
1
0.9999999999
0.9999999998
0.9999999996
0.9999999992
0.9999999987
0.9999999976
0.9999999956
0.9999999924
0.9999999856
0.999999973
0.9999999506
0.999999907
0.9999998152
0.9999996336
0.999999256
0.9999984742
1
1
1
1
1
1
1
1
1
1
1
1
1
1
1
1
1
1
1
1
1
1
1
0.9999999999
0.9999999999
0.9999999997
0.9999999995
0.9999999991
0.9999999985
0.9999999973
0.999999995
0.9999999913
0.9999999843
0.9999999699
0.9999999436
0.9999998965
0.9999998031
0.999999599
0.99999918
0.9999983087
1
1
1
1
1
1
1
1
1
1
1
1
1
1
1
1
1
1
1
1
1
1
1
0.9999999999
0.9999999999
0.9999999997
0.9999999995
0.9999999991
0.9999999985
0.9999999973
0.9999999951
0.9999999913
0.9999999843
0.9999999703
0.9999999445
0.9999998949
0.9999997963
0.9999996031
0.9999991885
0.9999983263
1
1
1
1
1
1
1
1
1
1
1
1
1
1
1
1
1
1
1
1
1
1
1
0.9999999999
0.9999999998
0.9999999997
0.9999999995
0.9999999992
0.9999999984
0.9999999971
0.9999999952
0.9999999908
0.9999999832
0.9999999707
0.999999944
0.9999998892
0.9999997835
0.999999581
0.9999991846
0.9999983439
1
1
1
1
1
1
1
1
1
1
1
1
1
1
1
1
1
1
1
1
1
1
1
0.9999999999
0.9999999998
0.9999999997
0.9999999994
0.9999999991
0.9999999983
0.9999999969
0.9999999949
0.9999999903
0.999999982
0.9999999684
0.9999999415
0.9999998835
0.9999997708
0.9999995529
0.999999123
0.9999982317
1
1
1
1
1
1
1
1
1
1
1
1
1
1
1
1
1
1
1
1
1
1
1
0.9999999999
0.9999999998
0.9999999997
0.9999999994
0.9999999989
0.9999999982
0.9999999967
0.9999999941
0.9999999898
0.9999999809
0.9999999644
0.9999999349
0.9999998778
0.9999997581
0.9999995216
0.9999990311
0.9999980183
1
1
1
1
1
1
1
1
1
1
1
1
1
1
1
1
1
1
1
1
1
1
1
0.9999999999
0.9999999998
0.9999999996
0.9999999994
0.9999999988
0.9999999979
0.9999999964
0.9999999933
0.9999999885
0.9999999792
0.9999999603
0.9999999258
0.9999998643
0.9999997423
0.9999994766
0.9999989327
0.999997805
1
1
1
1
1
1
1
1
1
1
1
1
1
1
1
1
1
1
1
1
1
1
1
0.9999999999
0.9999999998
0.9999999996
0.9999999993
0.9999999988
0.9999999979
0.9999999964
0.9999999934
0.9999999884
0.9999999792
0.9999999608
0.9999999269
0.9999998622
0.9999997334
0.9999994819
0.9999989437
0.9999978275
1
1
1
1
1
1
1
1
1
1
1
1
1
1
1
1
1
1
1
1
1
1
1
0.9999999999
0.9999999998
0.9999999996
0.9999999993
0.9999999988
0.9999999978
0.9999999961
0.9999999935
0.9999999877
0.9999999777
0.9999999614
0.9999999264
0.9999998547
0.9999997169
0.9999994534
0.9999989387
0.9999978501
1
1
1
1
1
1
1
1
1
1
1
1
1
1
1
1
1
1
1
1
1
1
1
0.9999999999
0.9999999998
0.9999999996
0.9999999992
0.9999999987
0.9999999977
0.9999999959
0.9999999932
0.9999999871
0.9999999762
0.9999999584
0.999999923
0.9999998473
0.9999997004
0.9999994169
0.9999988591
0.9999977056
1
1
1
1
1
1
1
1
1
1
1
1
1
1
1
1
1
1
1
1
1
1
0.9999999999
0.9999999999
0.9999999998
0.9999999995
0.9999999992
0.9999999985
0.9999999976
0.9999999956
0.9999999921
0.9999999864
0.9999999748
0.999999953
0.9999999145
0.9999998399
0.9999996839
0.9999993764
0.9999987404
0.999997431
1
1
1
1
1
1
1
1
1
1
1
1
1
1
1
1
1
1
1
1
1
1
0.9999999999
0.9999999998
0.9999999997
0.9999999994
0.9999999991
0.9999999983
0.9999999972
0.9999999951
0.999999991
0.9999999847
0.9999999726
0.9999999477
0.9999999025
0.9999998222
0.9999996634
0.9999993182
0.9999986134
0.9999971563
1
1
1
1
1
1
1
1
1
1
1
1
1
1
1
1
1
1
1
1
1
0.9999999999
0.9999999999
0.9999999998
0.9999999997
0.9999999995
0.999999999
0.9999999983
0.9999999972
0.9999999952
0.9999999912
0.9999999846
0.9999999725
0.9999999484
0.999999904
0.9999998195
0.9999996518
0.999999325
0.9999986276
0.9999971851
1
1
1
1
1
1
1
1
1
1
1
1
1
1
1
1
1
1
1
1
1
0.9999999999
0.9999999999
0.9999999998
0.9999999997
0.9999999995
0.999999999
0.9999999983
0.999999997
0.9999999948
0.9999999913
0.9999999837
0.9999999706
0.9999999491
0.9999999033
0.9999998098
0.9999996304
0.999999288
0.9999986211
0.9999972139
1
1
1
1
1
1
1
1
1
1
1
1
1
1
1
1
1
1
1
1
1
0.9999999999
0.9999999999
0.9999999998
0.9999999996
0.9999999994
0.9999999989
0.9999999982
0.9999999968
0.9999999944
0.9999999908
0.9999999829
0.9999999686
0.9999999452
0.9999998989
0.9999998001
0.999999609
0.999999241
0.9999985185
0.9999970282
1
1
1
1
1
1
1
1
1
1
1
1
1
1
1
1
1
1
1
1
1
0.9999999999
0.9999999999
0.9999999998
0.9999999996
0.9999999993
0.9999999988
0.9999999979
0.9999999967
0.999999994
0.9999999895
0.999999982
0.9999999667
0.9999999382
0.9999998878
0.9999997905
0.9999995875
0.9999991886
0.9999983656
0.9999966754
1
1
1
1
1
1
1
1
1
1
1
1
1
1
1
1
1
1
1
1
1
0.9999999999
0.9999999999
0.9999999997
0.9999999996
0.9999999992
0.9999999987
0.9999999977
0.9999999962
0.9999999934
0.9999999881
0.9999999797
0.9999999638
0.9999999313
0.9999998723
0.9999997676
0.999999561
0.9999991133
0.9999982018
0.9999963226
1
1
1
1
1
1
1
1
1
1
1
1
1
1
1
1
1
1
1
1
1
0.9999999999
0.9999999999
0.9999999997
0.9999999996
0.9999999992
0.9999999987
0.9999999977
0.9999999962
0.9999999935
0.9999999883
0.9999999796
0.9999999637
0.9999999322
0.9999998742
0.999999764
0.999999546
0.9999991221
0.9999982199
0.9999963592
1
1
1
1
1
1
1
1
1
1
1
1
1
1
1
1
1
1
1
1
1
0.9999999999
0.9999999998
0.9999999997
0.9999999995
0.9999999992
0.9999999986
0.9999999978
0.999999996
0.9999999931
0.9999999885
0.9999999785
0.9999999612
0.9999999331
0.9999998733
0.9999997515
0.9999995183
0.9999990744
0.9999982115
0.9999963958
1
1
1
1
1
1
1
1
1
1
1
1
1
1
1
1
1
1
1
1
1
0.9999999999
0.9999999998
0.9999999997
0.9999999995
0.9999999991
0.9999999985
0.9999999976
0.9999999958
0.9999999926
0.9999999879
0.9999999774
0.9999999587
0.999999928
0.9999998676
0.999999739
0.9999994906
0.9999990137
0.9999980796
0.9999961577
1
1
1
1
1
1
1
1
1
1
1
1
1
1
1
1
1
1
1
1
1
0.9999999999
0.9999999998
0.9999999997
0.9999999994
0.999999999
0.9999999984
0.9999999972
0.9999999955
0.9999999921
0.9999999861
0.9999999763
0.9999999562
0.999999919
0.9999998531
0.9999997264
0.9999994629
0.9999989462
0.9999978827
0.9999957052
1
1
1
1
1
1
1
1
1
1
1
1
1
1
1
1
1
1
1
1
0.9999999999
0.9999999999
0.9999999998
0.9999999996
0.9999999993
0.9999999989
0.9999999983
0.9999999969
0.9999999949
0.9999999913
0.9999999843
0.9999999733
0.9999999524
0.9999999099
0.999999833
0.9999996968
0.9999994285
0.999998849
0.999997672
0.9999952528
1
1
1
1
1
1
1
1
1
1
1
1
1
1
1
1
1
1
1
1
1
0.9999999999
0.9999999998
0.9999999996
0.9999999993
0.9999999989
0.9999999982
0.9999999969
0.9999999949
0.9999999914
0.9999999845
0.9999999731
0.9999999523
0.9999999111
0.9999998355
0.9999996922
0.9999994092
0.9999988602
0.9999976951
0.9999952993
1
1
1
1
1
1
1
1
1
1
1
1
1
1
1
1
1
1
1
1
0.9999999999
0.9999999998
0.9999999997
0.9999999996
0.9999999993
0.9999999989
0.9999999981
0.999999997
0.9999999946
0.9999999908
0.9999999847
0.9999999716
0.999999949
0.9999999123
0.9999998342
0.9999996759
0.9999993734
0.9999987989
0.9999976843
0.9999953458
1
1
1
1
1
1
1
1
1
1
1
1
1
1
1
1
1
1
1
1
0.9999999999
0.9999999998
0.9999999997
0.9999999996
0.9999999992
0.9999999988
0.9999999979
0.9999999967
0.9999999943
0.9999999901
0.9999999839
0.9999999702
0.9999999457
0.9999999056
0.9999998269
0.9999996597
0.9999993377
0.9999987207
0.999997515
0.999995041
1
1
1
1
1
1
1
1
1
1
1
1
1
1
1
1
1
1
1
1
0.9999999999
0.9999999998
0.9999999997
0.9999999995
0.9999999992
0.9999999987
0.9999999978
0.9999999963
0.999999994
0.9999999895
0.9999999816
0.9999999687
0.9999999424
0.9999998939
0.9999998081
0.9999996434
0.9999993019
0.9999986336
0.9999972621
0.9999944618
1
1
1
1
1
1
1
1
1
1
1
1
1
1
1
1
1
1
1
0.9999999999
0.9999999999
0.9999999998
0.9999999997
0.9999999994
0.9999999991
0.9999999985
0.9999999977
0.9999999958
0.9999999932
0.9999999884
0.9999999792
0.9999999648
0.9999999375
0.9999998821
0.999999782
0.9999996051
0.9999992575
0.9999985084
0.9999969914
0.9999938827
1
1
1
1
1
1
1
1
1
1
1
1
1
1
1
1
1
1
1
0.9999999999
0.9999999999
0.9999999998
0.9999999997
0.9999999994
0.9999999991
0.9999999985
0.9999999975
0.9999999959
0.9999999932
0.9999999886
0.9999999795
0.9999999646
0.9999999374
0.9999998836
0.9999997852
0.9999995991
0.9999992325
0.9999985228
0.9999970209
0.9999939416
1
1
1
1
1
1
1
1
1
1
1
1
1
1
1
1
1
1
1
0.9999999999
0.9999999999
0.9999999998
0.9999999997
0.9999999994
0.999999999
0.9999999985
0.9999999974
0.9999999959
0.9999999928
0.9999999878
0.9999999798
0.9999999627
0.9999999331
0.9999998851
0.9999997836
0.9999995781
0.9999991864
0.9999984439
0.9999970069
0.9999940004
1
1
1
1
1
1
1
1
1
1
1
1
1
1
1
1
1
1
1
0.9999999999
0.9999999999
0.9999999998
0.9999999996
0.9999999994
0.9999999989
0.9999999985
0.9999999972
0.9999999956
0.9999999925
0.9999999869
0.9999999787
0.9999999608
0.9999999288
0.9999998765
0.9999997741
0.9999995571
0.9999991403
0.9999983434
0.9999967899
0.9999936109
1
1
1
1
1
1
1
1
1
1
1
1
1
1
1
1
1
1
1
0.9999999999
0.9999999998
0.9999999998
0.9999999996
0.9999999993
0.9999999989
0.9999999982
0.999999997
0.999999995
0.9999999921
0.9999999861
0.9999999757
0.9999999589
0.9999999246
0.9999998612
0.9999997497
0.9999995361
0.9999990941
0.9999982315
0.9999964657
0.9999928711
1
1
1
1
1
1
1
1
1
1
1
1
1
1
1
1
1
1
1
0.9999999999
0.9999999998
0.9999999997
0.9999999995
0.9999999992
0.9999999988
0.9999999979
0.9999999969
0.9999999944
0.9999999909
0.9999999847
0.9999999726
0.9999999537
0.9999999182
0.999999846
0.9999997159
0.9999994866
0.9999990368
0.9999980704
0.9999961185
0.9999921313
1
1
1
1
1
1
1
1
1
1
1
1
1
1
1
1
1
1
1
0.9999999999
0.9999999998
0.9999999997
0.9999999995
0.9999999992
0.9999999988
0.999999998
0.9999999967
0.9999999945
0.999999991
0.9999999849
0.999999973
0.9999999535
0.9999999179
0.9999998479
0.9999997201
0.9999994788
0.9999990047
0.9999980888
0.9999961561
0.9999922056
1
1
1
1
1
1
1
1
1
1
1
1
1
1
1
1
1
1
0.9999999999
0.9999999999
0.9999999998
0.9999999997
0.9999999995
0.9999999992
0.9999999987
0.999999998
0.9999999965
0.9999999946
0.9999999905
0.9999999838
0.9999999734
0.999999951
0.9999999124
0.9999998499
0.999999718
0.9999994517
0.9999989453
0.9999979875
0.999996138
0.9999922799
1
1
1
1
1
1
1
1
1
1
1
1
1
1
1
1
1
1
0.9999999999
0.9999999999
0.9999999998
0.9999999997
0.9999999994
0.9999999992
0.9999999986
0.9999999979
0.9999999963
0.9999999941
0.99999999
0.9999999827
0.999999972
0.9999999485
0.9999999069
0.9999998387
0.9999997057
0.9999994245
0.9999988859
0.9999978585
0.9999958603
0.9999917831
1
1
1
1
1
1
1
1
1
1
1
1
1
1
1
1
1
1
0.9999999999
0.9999999999
0.9999999998
0.9999999996
0.9999999994
0.9999999991
0.9999999985
0.9999999976
0.9999999961
0.9999999934
0.9999999895
0.9999999816
0.999999968
0.999999946
0.9999999013
0.999999819
0.9999996742
0.9999993974
0.9999988265
0.9999977148
0.9999954454
0.9999908399
1
1
1
1
1
1
1
1
1
1
1
1
1
1
1
1
1
0.9999999999
0.9999999999
0.9999999998
0.9999999997
0.9999999996
0.9999999993
0.9999999989
0.9999999984
0.9999999972
0.9999999958
0.9999999926
0.999999988
0.9999999798
0.999999964
0.9999999394
0.999999893
0.9999997992
0.9999996306
0.9999993338
0.9999987527
0.9999975079
0.9999950011
0.9999898967
1
1
1
1
1
1
1
1
1
1
1
1
1
1
1
1
1
0.9999999999
0.9999999999
0.9999999998
0.9999999997
0.9999999996
0.9999999994
0.999999999
0.9999999984
0.9999999973
0.9999999956
0.9999999927
0.999999988
0.9999999801
0.9999999645
0.999999939
0.9999998927
0.9999998017
0.999999636
0.9999993236
0.9999987115
0.9999975314
0.9999950486
0.99998999
1
1
1
1
1
1
1
1
1
1
1
1
1
1
1
1
1
0.9999999999
0.9999999999
0.9999999998
0.9999999997
0.9999999996
0.9999999993
0.9999999989
0.9999999982
0.9999999973
0.9999999953
0.9999999928
0.9999999874
0.9999999787
0.999999965
0.9999999358
0.9999998856
0.9999998043
0.9999996331
0.9999992887
0.9999986351
0.9999974016
0.9999950253
0.9999900834
1
1
1
1
1
1
1
1
1
1
1
1
1
1
1
1
1
0.9999999999
0.9999999999
0.9999999998
0.9999999997
0.9999999995
0.9999999992
0.9999999989
0.9999999981
0.9999999972
0.999999995
0.9999999922
0.9999999868
0.9999999772
0.9999999632
0.9999999325
0.9999998784
0.9999997899
0.9999996173
0.9999992537
0.9999985588
0.9999972363
0.9999946706
0.9999894511
1
1
1
1
1
1
1
1
1
1
1
1
1
1
1
1
0.9999999999
0.9999999999
0.9999999998
0.9999999998
0.9999999997
0.9999999995
0.9999999992
0.9999999988
0.999999998
0.9999999968
0.9999999948
0.9999999912
0.9999999861
0.9999999758
0.999999958
0.9999999293
0.9999998712
0.9999997643
0.9999995767
0.9999992188
0.9999984824
0.9999970521
0.9999941406
0.9999882511
1
1
1
1
1
1
1
1
1
1
1
1
1
1
1
1
0.9999999999
0.9999999999
0.9999999998
0.9999999997
0.9999999996
0.9999999994
0.9999999991
0.9999999985
0.9999999978
0.9999999963
0.9999999944
0.9999999902
0.9999999842
0.9999999734
0.9999999528
0.9999999207
0.9999998604
0.9999997387
0.9999995204
0.9999991368
0.9999983876
0.9999967869
0.9999935731
0.9999870511
1
1
1
1
1
1
1
1
1
1
1
1
1
1
1
1
0.9999999999
0.9999999999
0.9999999998
0.9999999997
0.9999999996
0.9999999994
0.9999999991
0.9999999986
0.9999999978
0.9999999964
0.9999999942
0.9999999904
0.9999999842
0.9999999737
0.9999999535
0.9999999202
0.9999998601
0.999999742
0.9999995273
0.9999991237
0.9999983346
0.9999968169
0.9999936332
0.999987168
1
1
1
1
1
1
1
1
1
1
1
1
1
1
1
1
0.9999999999
0.9999999999
0.9999999998
0.9999999997
0.9999999996
0.9999999994
0.999999999
0.9999999985
0.9999999976
0.9999999964
0.9999999938
0.9999999905
0.9999999834
0.9999999719
0.9999999542
0.999999916
0.9999998508
0.9999997452
0.9999995236
0.9999990787
0.9999982366
0.9999966508
0.999993603
0.9999872849
1
1
1
1
1
1
1
1
1
1
1
1
1
1
1
1
0.9999999999
0.9999999999
0.9999999998
0.9999999997
0.9999999995
0.9999999994
0.999999999
0.9999999984
0.9999999974
0.9999999962
0.9999999934
0.9999999898
0.9999999825
0.9999999701
0.9999999518
0.9999999119
0.9999998415
0.9999997267
0.9999995031
0.9999990338
0.9999981387
0.9999964393
0.999993151
0.9999864817
1
1
1
1
1
1
1
1
1
1
1
1
1
1
1
0.9999999999
0.9999999999
0.9999999999
0.9999999998
0.9999999997
0.9999999995
0.9999999993
0.9999999989
0.9999999983
0.9999999973
0.9999999957
0.999999993
0.9999999884
0.9999999817
0.9999999681
0.999999945
0.9999999077
0.9999998322
0.9999996936
0.9999994508
0.9999989888
0.9999980407
0.9999962037
0.9999924752
0.9999849582
1
1
1
1
1
1
1
1
1
1
1
1
1
1
1
0.9999999999
0.9999999999
0.9999999998
0.9999999998
0.9999999996
0.9999999995
0.9999999992
0.9999999987
0.999999998
0.999999997
0.999999995
0.9999999926
0.9999999871
0.9999999792
0.9999999651
0.9999999383
0.9999998965
0.9999998182
0.9999996606
0.9999993784
0.9999988836
0.9999979189
0.9999958643
0.9999917515
0.9999834346
1
1
1
1
1
1
1
1
1
1
1
1
1
1
0.9999999999
0.9999999999
0.9999999999
0.9999999998
0.9999999997
0.9999999996
0.9999999995
0.9999999992
0.9999999988
0.999999998
0.999999997
0.9999999951
0.9999999922
0.9999999873
0.9999999792
0.9999999655
0.9999999391
0.9999998959
0.9999998177
0.9999996647
0.9999993873
0.9999988667
0.9999978511
0.9999959023
0.9999918273
0.9999835802
1
1
1
1
1
1
1
1
1
1
1
1
1
1
0.9999999999
0.9999999999
0.9999999999
0.9999999998
0.9999999997
0.9999999996
0.9999999994
0.9999999991
0.9999999987
0.999999998
0.9999999968
0.9999999951
0.9999999917
0.9999999875
0.9999999781
0.9999999632
0.99999994
0.9999998904
0.9999998058
0.9999996689
0.9999993825
0.9999988089
0.9999977256
0.9999956902
0.9999917882
0.9999837258
1
1
1
1
1
1
1
1
1
1
1
1
1
1
0.9999999999
0.9999999999
0.9999999999
0.9999999998
0.9999999997
0.9999999996
0.9999999994
0.9999999991
0.9999999986
0.9999999979
0.9999999965
0.9999999949
0.9999999912
0.9999999865
0.9999999771
0.9999999608
0.9999999368
0.999999885
0.9999997938
0.999999645
0.9999993561
0.9999987511
0.9999976001
0.9999954201
0.9999912131
0.9999827077
1
1
1
1
1
1
1
1
1
1
1
1
1
1
0.9999999999
0.9999999999
0.9999999998
0.9999999998
0.9999999997
0.9999999996
0.9999999993
0.999999999
0.9999999985
0.9999999977
0.9999999963
0.9999999942
0.9999999908
0.9999999847
0.999999976
0.9999999583
0.9999999281
0.9999998796
0.9999997818
0.9999996024
0.9999992888
0.9999986933
0.9999974746
0.9999951193
0.9999903532
0.9999807778
1
1
1
1
1
1
1
1
1
1
1
1
1
1
0.9999999999
0.9999999999
0.9999999998
0.9999999998
0.9999999997
0.9999999995
0.9999999993
0.9999999989
0.9999999983
0.9999999973
0.999999996
0.9999999934
0.9999999902
0.999999983
0.9999999726
0.9999999543
0.9999999194
0.9999998652
0.9999997637
0.9999995598
0.9999991957
0.9999985584
0.9999973186
0.9999946858
0.9999894323
0.9999788479
1
1
1
1
1
1
1
1
1
1
1
1
1
1
0.9999999999
0.9999999999
0.9999999998
0.9999999998
0.9999999997
0.9999999995
0.9999999992
0.9999999989
0.9999999983
0.9999999974
0.999999996
0.9999999935
0.9999999897
0.9999999832
0.9999999727
0.9999999548
0.9999999205
0.9999998643
0.9999997631
0.9999995652
0.9999992071
0.9999985366
0.9999972318
0.9999947339
0.9999895275
0.9999790287
1
1
1
1
1
1
1
1
1
1
1
1
1
1
0.9999999999
0.9999999999
0.9999999998
0.9999999998
0.9999999996
0.9999999995
0.9999999992
0.9999999989
0.9999999982
0.9999999974
0.9999999957
0.9999999936
0.9999999891
0.9999999834
0.9999999713
0.9999999518
0.9999999216
0.9999998573
0.9999997476
0.9999995706
0.9999992009
0.9999984625
0.9999970713
0.9999944634
0.999989477
0.9999792095
1
1
1
1
1
1
1
1
1
1
1
1
1
1
0.9999999999
0.9999999999
0.9999999998
0.9999999998
0.9999999996
0.9999999994
0.9999999991
0.9999999988
0.9999999981
0.9999999972
0.9999999954
0.9999999933
0.9999999884
0.9999999822
0.9999999699
0.9999999487
0.9999999175
0.9999998503
0.9999997321
0.9999995398
0.999999167
0.9999983883
0.9999969108
0.9999941192
0.9999887468
0.9999779216
1
1
1
1
1
1
1
1
1
1
1
1
1
1
0.9999999999
0.9999999999
0.9999999998
0.9999999997
0.9999999996
0.9999999994
0.9999999991
0.9999999987
0.999999998
0.9999999969
0.9999999952
0.9999999923
0.9999999878
0.9999999799
0.9999999684
0.9999999454
0.9999999062
0.9999998433
0.9999997167
0.999999485
0.9999990806
0.9999983142
0.9999967503
0.9999937357
0.9999876546
0.9999754821
1
1
1
1
1
1
1
1
1
1
1
1
1
1
0.9999999999
0.9999999999
0.9999999998
0.9999999997
0.9999999995
0.9999999993
0.999999999
0.9999999984
0.9999999977
0.9999999964
0.9999999947
0.9999999913
0.9999999871
0.9999999776
0.9999999641
0.9999999404
0.9999998949
0.9999998246
0.9999996933
0.9999994302
0.9999989611
0.9999981415
0.9999965507
0.9999931828
0.9999864848
0.9999730425
1
1
1
1
1
1
1
1
1
1
1
1
1
1
0.9999999999
0.9999999999
0.9999999998
0.9999999997
0.9999999995
0.9999999993
0.999999999
0.9999999985
0.9999999978
0.9999999965
0.9999999947
0.9999999914
0.9999999865
0.9999999779
0.9999999643
0.999999941
0.9999998964
0.9999998235
0.9999996925
0.999999437
0.9999989756
0.9999981135
0.9999964397
0.9999932435
0.9999866038
0.9999732653
1
1
1
1
1
1
1
1
1
1
1
1
1
0.9999999999
0.9999999999
0.9999999999
0.9999999998
0.9999999997
0.9999999995
0.9999999993
0.9999999989
0.9999999984
0.9999999976
0.9999999964
0.9999999943
0.9999999915
0.9999999856
0.9999999782
0.9999999624
0.9999999371
0.9999998979
0.9999998145
0.9999996726
0.9999994439
0.9999989676
0.9999980185
0.9999962348
0.9999928993
0.9999865385
0.9999734882
1
1
1
1
1
1
1
1
1
1
1
1
1
0.9999999999
0.9999999999
0.9999999998
0.9999999998
0.9999999997
0.9999999995
0.9999999992
0.9999999988
0.9999999984
0.9999999974
0.9999999962
0.9999999939
0.9999999912
0.9999999848
0.9999999766
0.9999999606
0.999999933
0.9999998926
0.9999998054
0.9999996527
0.9999994044
0.999998924
0.9999979236
0.9999960299
0.9999924613
0.9999856131
0.9999718628
1
1
1
1
1
1
1
1
1
1
1
1
1
0.9999999999
0.9999999999
0.9999999998
0.9999999997
0.9999999996
0.9999999994
0.9999999991
0.9999999987
0.9999999982
0.9999999972
0.9999999959
0.9999999935
0.9999999899
0.999999984
0.9999999737
0.9999999587
0.9999999289
0.999999878
0.9999997964
0.9999996327
0.9999993339
0.9999988133
0.9999978286
0.999995825
0.9999919733
0.999984229
0.9999687873
1
1
1
1
1
1
1
1
1
1
1
1
0.9999999999
0.9999999999
0.9999999998
0.9999999998
0.9999999997
0.9999999995
0.9999999994
0.999999999
0.9999999986
0.9999999979
0.999999997
0.9999999953
0.999999993
0.9999999885
0.999999983
0.9999999707
0.9999999531
0.9999999222
0.9999998634
0.9999997724
0.9999996027
0.9999992635
0.9999986602
0.9999976079
0.99999557
0.9999912696
0.9999827467
0.9999657118
1
1
1
1
1
1
1
1
1
1
1
0.9999999999
0.9999999999
0.9999999999