/*--------------------------------*- C++ -*----------------------------------*\
| =========                 |                                                 |
| \\      /  F ield         | OpenFOAM: The Open Source CFD Toolbox           |
|  \\    /   O peration     | Version:  v2006                                 |
|   \\  /    A nd           | Website:  www.openfoam.com                      |
|    \\/     M anipulation  |                                                 |
\*---------------------------------------------------------------------------*/
FoamFile
{
    version     2.0;
    format      ascii;
    class       volScalarField;
    location    "0.075";
    object      C2H6;
}
// * * * * * * * * * * * * * * * * * * * * * * * * * * * * * * * * * * * * * //

dimensions      [0 0 0 0 0 0 0];


internalField   nonuniform List<scalar> 
72000
(
0.0005760650933
0.0005769313107
0.0005785649223
0.0005800463688
0.0005812672454
0.0005819384758
0.0005845504018
0.0005901756911
0.0005883169997
0.0005808259154
0.0005782830373
0.000579519637
0.0005805491625
0.0005814268005
0.0005820305856
0.0005827390683
0.0005832853658
0.0005835790587
0.0005840467695
0.0005842774616
0.0005846304512
0.0005847602014
0.0005849452241
0.000584890241
0.000584924759
0.000584811484
0.0005845718399
0.0005842079809
0.0005821970357
0.0005765712431
0.0005652925644
0.0005634018724
0.00056168668
0.0005598763668
0.0005568619513
0.0005510174846
0.0005421816509
0.0005296472849
0.0005118224223
0.0005053661986
0.000501642533
0.0004987921982
0.0004965132914
0.0004945861013
0.0004931053475
0.000491832074
0.0004907308174
0.0004899185837
0.0004891324225
0.0004886131173
0.0004880227337
0.0004876933915
0.0004872406244
0.0004870326055
0.0004867586625
0.0004865195742
0.0004863642688
0.0004861357415
0.0004860857305
0.0004859799849
0.0004857993933
0.0004857691433
0.0004856447357
0.0004856929279
0.0004855667767
0.0004856007014
0.0004855412025
0.0004854492582
0.0004854670816
0.0004853565173
0.0004854120891
0.0004853651463
0.0004853941271
0.0004853503018
0.000485298434
0.0004853218023
0.0004852263178
0.0004853119404
0.0004852725081
0.000485210963
0.0004852159835
0.0004852052318
0.0004850814377
0.0004851388292
0.0004850713006
0.0004851079466
0.0004850916887
0.0004850119509
0.0004850578548
0.0004849460503
0.0004849986081
0.0004849562807
0.0004850603333
0.000484993533
0.0004850883502
0.0004850338154
0.0004851598654
0.0004851458655
0.0004852152608
0.0004852369381
0.0004853446764
0.0004853619322
0.0004854782877
0.0004854729883
0.0004856424106
0.0004857001509
0.0004857087134
0.0004858838733
0.000485977946
0.0004860172973
0.0004862123195
0.0004863200181
0.0004864374785
0.0004866628775
0.0004867833415
0.0004870428725
0.0004872572021
0.0004875402786
0.0004877947281
0.0004881776208
0.0004884502784
0.0004888665716
0.0004892049276
0.00048951968
0.0004899620058
0.0004903353058
0.000490859128
0.0004912504445
0.0004916997826
0.0004922290725
0.0004927723644
0.0004932658168
0.0004938315566
0.000494254746
0.0004946855241
0.000494426143
0.0004935712473
0.0004922031047
0.0004902879269
0.0004876641205
0.0004839811604
0.000478517976
0.0004698148134
0.0004693691867
0.0004699074075
0.0004710836043
0.0004726758139
0.0004747317918
0.0004765567662
0.0004781712386
0.0004791449007
0.0004778886276
0.0004812226172
0.0004847250225
0.0004870657176
0.0004877444343
0.00049059434
0.0004935122887
0.0004966459215
0.0004998197193
0.0005031337947
0.0005064973257
0.0005099602736
0.0005135095121
0.0005190356246
0.0005270107557
0.0005331838643
0.0005391148219
0.0005452532606
0.0005516213325
0.0005582409314
0.0005651171568
0.0005722160667
0.0005794028726
0.0005862932599
0.0005930545546
0.0006003308931
0.0006094386942
0.0006188537613
0.0006291624222
0.0006381598696
0.0006464467127
0.0006567199012
0.0006660696988
0.0006766211357
0.0006881333561
0.0007000125726
0.0007129192411
0.000726687346
0.0007418919348
0.0007579034596
0.0007749736003
0.0007934004498
0.0008124506704
0.0008328434403
0.0008542109669
0.0008771252502
0.0009023792531
0.0009288617941
0.0009570018665
0.00098643406
0.001018333991
0.001053209926
0.001089461891
0.001129361035
0.001170060414
0.001213346569
0.001262785677
0.001319402668
0.001383190314
0.001458917329
0.001548223716
0.001655866766
0.001787173454
0.001949412367
0.00215182893
0.002407342955
0.00273034598
0.003138298444
0.003666673484
0.004516635112
0.005019399449
0.003477032971
0.002435314038
0.001766787059
0.001265807271
0.0009025619209
0.0006325529572
0.0004363887337
0.0002905802735
0.0001924520625
0.0001342089854
0.0001006528453
7.702012552e-05
6.209784138e-05
5.196765871e-05
4.399398626e-05
3.749417948e-05
3.208406912e-05
2.75322699e-05
2.375326979e-05
2.049246405e-05
1.759593407e-05
1.511289214e-05
1.301656299e-05
1.124935978e-05
9.755273697e-06
8.486260695e-06
7.403161043e-06
6.474215599e-06
5.673824711e-06
4.981286206e-06
4.379805092e-06
3.855566618e-06
3.397193402e-06
2.995343304e-06
2.64219743e-06
2.33118244e-06
2.056728987e-06
1.814110423e-06
1.599298478e-06
1.408838059e-06
1.239751587e-06
1.089461865e-06
9.557242141e-07
8.365632438e-07
7.301909261e-07
6.347989859e-07
5.502246968e-07
4.763786781e-07
4.117371166e-07
3.533814655e-07
3.009766881e-07
2.541255571e-07
2.125438797e-07
1.761195183e-07
1.452992362e-07
1.222163349e-07
1.060817064e-07
9.303498029e-08
8.18176732e-08
7.195378187e-08
6.320013703e-08
5.541068368e-08
4.846962679e-08
4.228580201e-08
3.677668785e-08
3.186968764e-08
2.749471796e-08
2.358362845e-08
2.319973313e-08
2.296145929e-08
2.274844883e-08
2.255752037e-08
2.238610435e-08
2.223209275e-08
2.209364514e-08
2.196915378e-08
2.185722437e-08
2.175659956e-08
2.166614883e-08
2.15848561e-08
2.151180819e-08
2.144618463e-08
2.138724727e-08
2.133433009e-08
2.128683304e-08
2.124421669e-08
2.120599714e-08
2.117174062e-08
2.114105816e-08
2.111359756e-08
2.108903679e-08
2.106708812e-08
2.104749421e-08
2.103002406e-08
2.10144698e-08
2.100064408e-08
2.098837811e-08
2.097751998e-08
2.096793309e-08
2.095949461e-08
2.095209398e-08
2.094563161e-08
2.094001765e-08
2.093517106e-08
2.093101869e-08
2.092749457e-08
2.09245393e-08
2.092209939e-08
2.092012673e-08
2.091857798e-08
2.091741414e-08
2.09166e-08
2.091610379e-08
2.09158968e-08
2.091595306e-08
2.091624906e-08
2.091676355e-08
2.091747725e-08
2.09183727e-08
2.091943411e-08
2.092064717e-08
2.092199892e-08
2.092347763e-08
2.092507266e-08
2.09267744e-08
2.092857413e-08
2.093046391e-08
2.093243659e-08
2.093448562e-08
2.093660505e-08
2.093878939e-08
2.094103343e-08
2.094333194e-08
2.094567974e-08
2.09480739e-08
2.095051135e-08
2.095298911e-08
2.095550398e-08
2.095805331e-08
2.096063449e-08
2.09632451e-08
2.096588293e-08
2.096854596e-08
2.09712324e-08
2.097394073e-08
2.097666956e-08
2.09794172e-08
2.098218162e-08
2.098496107e-08
2.098775395e-08
2.099055881e-08
2.099337427e-08
2.099619903e-08
2.099903181e-08
2.100187138e-08
2.100471653e-08
2.100756607e-08
2.101041884e-08
2.10132737e-08
2.101612951e-08
2.101898516e-08
2.102183951e-08
2.102469148e-08
2.102753997e-08
2.103038388e-08
2.103322209e-08
2.103605352e-08
2.103887707e-08
2.104169164e-08
2.104449613e-08
2.104728944e-08
2.105007043e-08
2.105283801e-08
2.105559105e-08
2.10583284e-08
2.106104892e-08
2.106375142e-08
2.106643472e-08
2.106909763e-08
2.107173892e-08
2.107435734e-08
2.107695165e-08
2.107952059e-08
2.108206293e-08
2.108457745e-08
2.108706294e-08
2.108951823e-08
2.109194218e-08
2.109433369e-08
2.109669167e-08
2.109901506e-08
2.110130281e-08
2.110355382e-08
2.110576706e-08
2.110794143e-08
2.111007582e-08
2.111216914e-08
2.111422029e-08
2.111622815e-08
2.111819166e-08
2.11201093e-08
2.112198073e-08
2.112380424e-08
2.112557889e-08
2.112730358e-08
2.11289772e-08
2.113059872e-08
2.113216709e-08
2.113368128e-08
2.113514034e-08
2.113654335e-08
2.113788943e-08
2.113917774e-08
2.114040744e-08
2.114157774e-08
2.114268785e-08
2.1143737e-08
2.11447244e-08
2.114564925e-08
2.114651072e-08
2.114730794e-08
2.114804006e-08
2.114870625e-08
2.11493046e-08
2.114983611e-08
2.115029823e-08
2.115069036e-08
2.115101135e-08
2.115126018e-08
2.115143621e-08
2.115153835e-08
2.115156824e-08
2.115152321e-08
2.115140301e-08
2.115120697e-08
2.115093437e-08
2.115058456e-08
2.115015719e-08
2.114965124e-08
2.11490661e-08
2.114840116e-08
2.114765583e-08
2.114682955e-08
2.114592171e-08
2.114493173e-08
2.114385895e-08
2.114270258e-08
2.114146219e-08
2.114013725e-08
2.113872727e-08
2.113723173e-08
2.113565012e-08
2.113398196e-08
2.113222677e-08
2.113038407e-08
2.112845342e-08
2.112643436e-08
2.112432647e-08
2.112212934e-08
2.111984253e-08
2.111746565e-08
2.11149983e-08
2.111244009e-08
2.110979064e-08
2.110704958e-08
2.110421654e-08
2.110129114e-08
2.109827303e-08
2.109516181e-08
2.109195715e-08
2.108865863e-08
2.10852659e-08
2.108177854e-08
2.107819613e-08
2.107451824e-08
2.107074442e-08
2.106687421e-08
2.106290712e-08
2.105884267e-08
2.105468032e-08
2.105041956e-08
2.104605985e-08
2.104160062e-08
2.103704131e-08
2.103238131e-08
2.102762001e-08
2.102275682e-08
2.101779114e-08
2.101272238e-08
2.100754998e-08
2.100227343e-08
2.099689227e-08
2.09914061e-08
2.098581458e-08
2.098011734e-08
2.097431402e-08
2.096840423e-08
2.096238743e-08
2.095626298e-08
2.09500301e-08
2.094368789e-08
2.093723537e-08
2.093067136e-08
2.092399442e-08
2.091720256e-08
2.091029477e-08
2.090326878e-08
2.089612212e-08
2.088885184e-08
2.088145381e-08
2.087392429e-08
2.086625848e-08
2.085845082e-08
2.085049525e-08
2.084238589e-08
2.083411307e-08
2.082567032e-08
2.081704919e-08
2.08082407e-08
2.079923532e-08
2.079002302e-08
2.078059303e-08
2.077093387e-08
2.076103307e-08
2.075087862e-08
2.074045388e-08
2.072974438e-08
2.071873253e-08
2.07074003e-08
2.069573613e-08
2.068371105e-08
2.067129904e-08
2.065847405e-08
2.064520723e-08
2.063146598e-08
2.061721317e-08
2.060240666e-08
2.058699914e-08
2.057093812e-08
2.055416619e-08
2.053662134e-08
2.051823715e-08
2.049894116e-08
2.047864198e-08
2.045727611e-08
2.043477017e-08
2.041103139e-08
2.038595303e-08
2.035942005e-08
2.033130461e-08
2.030146473e-08
2.02697445e-08
2.023597407e-08
2.019997156e-08
2.016155579e-08
2.012053433e-08
2.007670389e-08
2.00298502e-08
1.997975002e-08
1.992617692e-08
1.986891054e-08
1.98077592e-08
1.974258908e-08
1.967335547e-08
1.960015753e-08
1.952333243e-08
1.944360373e-08
1.936231279e-08
1.928170061e-08
1.920565891e-08
1.914050904e-08
1.90968609e-08
1.909223219e-08
1.915653445e-08
1.933666645e-08
1.970065936e-08
4.208774796e-08
8.053989522e-08
0.0005375033684
0.0005379811495
0.0005388212397
0.0005397587287
0.0005406641525
0.0005415246187
0.0005428026725
0.0005444908302
0.0005441835346
0.000541914982
0.0005406450225
0.0005405762727
0.000540822694
0.0005411502593
0.0005414746326
0.0005417688099
0.0005420142202
0.0005422036504
0.0005423376658
0.0005424105354
0.0005424222609
0.000542362206
0.0005422250498
0.0005419869474
0.0005416302096
0.0005411038281
0.0005403219278
0.0005390953472
0.0005369456958
0.0005334202417
0.0005287941422
0.000525969746
0.0005235913699
0.0005210548191
0.0005177355062
0.0005130494171
0.0005067961752
0.0004989988069
0.0004903821226
0.000484745418
0.0004808965815
0.0004780046464
0.0004757230495
0.000473877842
0.0004723715562
0.0004711253316
0.0004700863353
0.0004692227624
0.0004684985557
0.0004678965899
0.000467389223
0.0004669692965
0.0004666128493
0.0004663188049
0.0004660666195
0.0004658525951
0.0004656706741
0.0004655158638
0.0004653930007
0.0004652875971
0.0004651951392
0.0004651209056
0.0004650594376
0.0004650134188
0.0004649749528
0.0004649487218
0.000464922568
0.0004648972719
0.0004648826033
0.0004648686178
0.0004648644029
0.0004648617015
0.0004648653376
0.000464865274
0.0004648634301
0.0004648662855
0.0004648695448
0.0004648795046
0.0004648866855
0.0004648905028
0.000464899127
0.0004649056809
0.000464909179
0.0004649191471
0.0004649306424
0.0004649497624
0.0004649677194
0.0004649863371
0.0004650201128
0.0004650581645
0.0004651069214
0.0004651628836
0.0004652307305
0.0004653038697
0.0004653902073
0.0004654821927
0.0004655877726
0.0004656989992
0.0004658227945
0.0004659546943
0.000466099849
0.0004662523998
0.0004664182502
0.0004665922576
0.0004667805452
0.0004669764874
0.0004671808312
0.0004674013836
0.0004676310352
0.0004678708792
0.0004681300195
0.0004683988497
0.0004686815285
0.0004689857594
0.0004693065006
0.000469651237
0.0004700149707
0.0004704024024
0.0004708138222
0.0004712504494
0.0004717058482
0.0004721861524
0.0004726825915
0.0004731969013
0.000473733585
0.0004742854625
0.0004748594051
0.0004754445348
0.0004760436276
0.0004766527126
0.0004772608321
0.000477850138
0.0004783972594
0.0004788534286
0.0004791412374
0.0004790892202
0.0004786548652
0.0004778409426
0.0004766286317
0.0004749405958
0.0004726574049
0.0004697049631
0.0004664322986
0.0004657509569
0.0004662105942
0.000467348252
0.0004689292763
0.000470778776
0.0004725682572
0.0004742310878
0.0004756929079
0.0004770739762
0.0004798785434
0.0004829393231
0.0004857257937
0.0004881684588
0.0004912728532
0.0004946308109
0.0004981897114
0.0005019050607
0.0005058089181
0.0005099008738
0.0005142342887
0.0005189613726
0.0005247083423
0.0005315019768
0.000537992653
0.0005444510113
0.0005510645098
0.0005579079527
0.0005650136156
0.000572390183
0.0005800187623
0.0005878364855
0.0005956110218
0.000603473033
0.0006118925842
0.0006214136561
0.0006320297086
0.0006437786266
0.0006554072273
0.0006671437224
0.0006788558753
0.0006906729559
0.0007035759488
0.0007175894056
0.0007321183298
0.0007474141988
0.0007635654122
0.0007812412868
0.00080037396
0.0008212323949
0.0008435573418
0.0008677225517
0.0008921217935
0.0009184312743
0.0009472399032
0.0009785405719
0.00101301623
0.001051165539
0.001091817146
0.001136838262
0.001187418616
0.001244086954
0.001305134915
0.001373616565
0.001450640024
0.001539058643
0.001640537669
0.001759506814
0.001898215961
0.002060935596
0.00225354294
0.002481324482
0.002753606677
0.003079623827
0.003471076259
0.003945302604
0.004529139134
0.005210177804
0.005587956358
0.00469220294
0.003408534955
0.002584786428
0.001922145488
0.001403149233
0.001014808611
0.0007378420091
0.0005422837528
0.0003995371972
0.0003021840737
0.0002346546937
0.0001853759583
0.0001496040587
0.0001225487608
0.000101571766
8.503733225e-05
7.171087505e-05
6.080286978e-05
5.179235475e-05
4.425609618e-05
3.794859961e-05
3.265429876e-05
2.820023886e-05
2.44419149e-05
2.125585802e-05
1.854167417e-05
1.621756921e-05
1.421820656e-05
1.249071577e-05
1.099233325e-05
9.688087922e-06
8.549291643e-06
7.552224398e-06
6.677028997e-06
5.907000916e-06
5.228170797e-06
4.628646183e-06
4.098329511e-06
3.628554957e-06
3.211869401e-06
2.84184692e-06
2.512918481e-06
2.220248801e-06
1.959625265e-06
1.727373835e-06
1.520327034e-06
1.335799625e-06
1.172050772e-06
1.027364181e-06
8.988641952e-07
7.829719204e-07
6.790907522e-07
5.862843706e-07
5.038508721e-07
4.312004858e-07
3.682355618e-07
3.149341793e-07
2.702536224e-07
2.319157315e-07
1.983411493e-07
1.686276377e-07
1.421998215e-07
1.186512922e-07
9.765845694e-08
7.894921119e-08
6.228543327e-08
4.744654744e-08
4.239635792e-08
4.149453193e-08
4.068695882e-08
3.996425491e-08
3.93157743e-08
3.873298573e-08
3.820863612e-08
3.773662763e-08
3.731145684e-08
3.692827646e-08
3.65829325e-08
3.627162458e-08
3.599093838e-08
3.573780572e-08
3.550946959e-08
3.530345418e-08
3.511753368e-08
3.494969719e-08
3.479813258e-08
3.466121104e-08
3.453747225e-08
3.442560741e-08
3.432444612e-08
3.423292836e-08
3.415007611e-08
3.40750225e-08
3.400699246e-08
3.394529007e-08
3.388928877e-08
3.383842378e-08
3.37921862e-08
3.375011813e-08
3.371180807e-08
3.367688626e-08
3.364502014e-08
3.361591021e-08
3.358928648e-08
3.356490553e-08
3.354254779e-08
3.352201553e-08
3.350313079e-08
3.348573368e-08
3.346968054e-08
3.345484233e-08
3.344110301e-08
3.342835815e-08
3.341651369e-08
3.340548475e-08
3.339519488e-08
3.338557499e-08
3.337656277e-08
3.336810192e-08
3.336014166e-08
3.335263607e-08
3.334554383e-08
3.333882764e-08
3.333245391e-08
3.332639232e-08
3.332061562e-08
3.331509922e-08
3.330982097e-08
3.330476095e-08
3.329990114e-08
3.329522528e-08
3.329071865e-08
3.328636752e-08
3.328215785e-08
3.327807364e-08
3.327410989e-08
3.327025873e-08
3.326651224e-08
3.326286295e-08
3.325930412e-08
3.32558295e-08
3.325243344e-08
3.324911084e-08
3.324585715e-08
3.324266854e-08
3.323954202e-08
3.323647542e-08
3.323346539e-08
3.323050695e-08
3.322759632e-08
3.322473043e-08
3.322190653e-08
3.321912211e-08
3.321637481e-08
3.321366239e-08
3.32109827e-08
3.320833371e-08
3.320571345e-08
3.320311999e-08
3.320055147e-08
3.319800606e-08
3.319548198e-08
3.319297749e-08
3.319049081e-08
3.318802027e-08
3.318556415e-08
3.318312071e-08
3.31806883e-08
3.317826521e-08
3.317584973e-08
3.31734402e-08
3.317103488e-08
3.316863202e-08
3.316622993e-08
3.316382682e-08
3.316142089e-08
3.315901029e-08
3.315659308e-08
3.315416732e-08
3.315173094e-08
3.314928186e-08
3.314681785e-08
3.31443367e-08
3.314183615e-08
3.313931392e-08
3.313676779e-08
3.313419555e-08
3.313159503e-08
3.312896417e-08
3.312630096e-08
3.312360342e-08
3.312086961e-08
3.311809751e-08
3.311528509e-08
3.311243024e-08
3.310953076e-08
3.310658435e-08
3.310358868e-08
3.310054132e-08
3.309743978e-08
3.309428151e-08
3.309106391e-08
3.308778448e-08
3.308444045e-08
3.30810291e-08
3.307754767e-08
3.307399341e-08
3.307036356e-08
3.306665542e-08
3.30628663e-08
3.305899359e-08
3.305503474e-08
3.305098735e-08
3.304684898e-08
3.304261725e-08
3.303828979e-08
3.30338642e-08
3.302933804e-08
3.302470882e-08
3.301997389e-08
3.301513049e-08
3.301017564e-08
3.300510622e-08
3.299991895e-08
3.299461034e-08
3.298917726e-08
3.298361574e-08
3.297792188e-08
3.297209114e-08
3.296611922e-08
3.296000425e-08
3.29537378e-08
3.294733109e-08
3.29407683e-08
3.293404973e-08
3.292717148e-08
3.292012965e-08
3.291292031e-08
3.290554153e-08
3.289798731e-08
3.289025406e-08
3.288233773e-08
3.287423429e-08
3.286593971e-08
3.285744938e-08
3.284875928e-08
3.28398644e-08
3.283075907e-08
3.282143937e-08
3.28119003e-08
3.280213703e-08
3.279214447e-08
3.278191742e-08
3.277145056e-08
3.276073843e-08
3.274977543e-08
3.273855582e-08
3.272707376e-08
3.271532318e-08
3.27032979e-08
3.269099153e-08
3.267839752e-08
3.266550912e-08
3.265231935e-08
3.26388211e-08
3.262500694e-08
3.261086924e-08
3.259640014e-08
3.258159149e-08
3.256643487e-08
3.255092153e-08
3.253504242e-08
3.251878813e-08
3.250214885e-08
3.248511443e-08
3.246767428e-08
3.244981733e-08
3.243153217e-08
3.241280683e-08
3.239362891e-08
3.23739855e-08
3.235386318e-08
3.233324796e-08
3.23121253e-08
3.229048007e-08
3.226829649e-08
3.224555816e-08
3.222224804e-08
3.219834846e-08
3.21738411e-08
3.2148707e-08
3.212292659e-08
3.209647968e-08
3.206934546e-08
3.204150235e-08
3.201292798e-08
3.198359899e-08
3.195349077e-08
3.192257743e-08
3.189083157e-08
3.185822422e-08
3.182472489e-08
3.179030148e-08
3.175492038e-08
3.171854551e-08
3.168113632e-08
3.164265707e-08
3.160306368e-08
3.156231094e-08
3.152035105e-08
3.147712831e-08
3.143258934e-08
3.138667382e-08
3.133931706e-08
3.129045005e-08
3.124000703e-08
3.118789673e-08
3.113404727e-08
3.107837162e-08
3.102077939e-08
3.096117565e-08
3.089946054e-08
3.083552875e-08
3.076926904e-08
3.070056381e-08
3.062928851e-08
3.05553102e-08
3.047848771e-08
3.039866914e-08
3.031568925e-08
3.022936258e-08
3.013951838e-08
3.004596928e-08
2.994851036e-08
2.984691929e-08
2.974095395e-08
2.963034986e-08
2.951481796e-08
2.939404322e-08
2.926768389e-08
2.913537153e-08
2.899671125e-08
2.885128248e-08
2.869864235e-08
2.853833838e-08
2.836984444e-08
2.819263614e-08
2.800611617e-08
2.780962146e-08
2.760244797e-08
2.73838214e-08
2.715289172e-08
2.690873178e-08
2.665033208e-08
2.637659334e-08
2.608639395e-08
2.577851419e-08
2.545164392e-08
2.510437345e-08
2.473519119e-08
2.434249503e-08
2.392460347e-08
2.347982363e-08
2.300653897e-08
2.250328005e-08
2.196887683e-08
2.140273851e-08
2.080529701e-08
2.017869821e-08
1.952775988e-08
1.886174487e-08
1.819736623e-08
1.756338801e-08
1.700656918e-08
1.660882046e-08
1.671305809e-08
1.720551505e-08
1.782656801e-08
1.895286785e-08
0.000512599701
0.0005129010256
0.0005134241857
0.0005140583894
0.0005147216052
0.0005153848521
0.0005160964423
0.0005167085645
0.0005166872797
0.0005159905474
0.0005154161856
0.0005152141929
0.0005152191653
0.0005153126994
0.0005154335431
0.0005155459558
0.0005156279199
0.0005156669399
0.0005156544495
0.0005155826465
0.0005154437501
0.0005152268989
0.0005149186111
0.0005144970697
0.0005139325993
0.0005131767348
0.0005121538085
0.0005107433218
0.0005087777659
0.000506187204
0.0005032341501
0.0005006255615
0.0004981280637
0.0004954403791
0.0004922487776
0.0004883065282
0.0004835609897
0.0004781951116
0.0004727823593
0.000468410084
0.0004650162743
0.0004623387893
0.0004601826338
0.0004584221587
0.0004569802058
0.0004557829116
0.0004547818207
0.0004539437491
0.0004532396853
0.0004526489593
0.0004521518441
0.0004517350033
0.0004513840162
0.0004510894446
0.000450839546
0.0004506274247
0.0004504493222
0.0004503000016
0.0004501769939
0.0004500736774
0.0004499865685
0.0004499161387
0.0004498592939
0.0004498156624
0.0004497819387
0.0004497576676
0.0004497384877
0.0004497238096
0.0004497159034
0.0004497127086
0.0004497155467
0.0004497219768
0.0004497324417
0.0004497434916
0.0004497551548
0.0004497701133
0.0004497873678
0.0004498079528
0.0004498291019
0.0004498505163
0.000449874605
0.0004498992087
0.0004499248945
0.0004499544766
0.0004499874821
0.0004500251992
0.0004500649017
0.000450107194
0.0004501261927
0.0004501478895
0.0004501774573
0.0004502144516
0.0004502616715
0.000450319525
0.0004503913281
0.0004504726273
0.0004505648372
0.0004506662212
0.0004507791581
0.0004509027625
0.0004510408677
0.0004511965706
0.0004513735198
0.0004515647767
0.0004517697531
0.0004519853608
0.000452211279
0.0004524495741
0.0004526983617
0.0004529582912
0.0004532319605
0.0004535174927
0.0004538162131
0.0004541313807
0.0004544627752
0.0004548132698
0.0004551827636
0.0004555737891
0.0004559865468
0.000456422041
0.0004568786445
0.0004573570408
0.0004578543199
0.0004583697693
0.0004589039666
0.0004594536647
0.0004600180077
0.0004605918676
0.0004611723629
0.0004617526663
0.0004623216053
0.0004628619353
0.0004633484855
0.0004637388215
0.0004639733336
0.0004639896411
0.0004637534506
0.0004632530725
0.0004624485389
0.0004613372904
0.0004599571714
0.0004584235173
0.0004571025843
0.0004567726475
0.0004572135491
0.0004582168879
0.0004596129145
0.0004612600037
0.0004630112471
0.00046480832
0.0004666518084
0.000468662086
0.0004711996028
0.0004740253188
0.0004769006961
0.0004797949057
0.000482954502
0.0004863512199
0.0004899621177
0.00049377884
0.0004978266537
0.0005021153079
0.000506703885
0.0005117044736
0.000517290841
0.0005234063935
0.0005296820763
0.0005360980767
0.0005427078385
0.0005495543624
0.0005566653975
0.0005640560504
0.0005717294212
0.0005796775164
0.0005878884423
0.0005964719782
0.0006056432611
0.0006156255979
0.0006264776665
0.0006381640938
0.0006504326787
0.0006634313051
0.0006776011862
0.0006924457345
0.0007069072159
0.0007223605706
0.0007387396607
0.0007561712778
0.0007748550496
0.0007950835061
0.0008169305901
0.0008406905355
0.0008664742476
0.0008945604336
0.0009235131201
0.0009541724039
0.0009878401896
0.001024932089
0.001066038644
0.001111092697
0.00115940998
0.001213827705
0.001275087467
0.001341741706
0.001417430128
0.0015011879
0.001596417066
0.001704391126
0.001829163429
0.001972870214
0.002139605558
0.002333223282
0.002559044701
0.002823099313
0.003133728118
0.003499713203
0.003933268541
0.004446922591
0.005020816565
0.005509643666
0.005527583392
0.004751425751
0.003913051872
0.003160125496
0.002464346148
0.001862597803
0.001380210353
0.001020224555
0.0007608637287
0.000591430319
0.0004651471562
0.0003675570976
0.0002923861227
0.0002347959527
0.0001905774064
0.0001562905972
0.0001293611101
0.0001080553132
9.10108371e-05
7.720193807e-05
6.5891772e-05
5.654225846e-05
4.874576954e-05
4.220144703e-05
3.667253782e-05
3.197227203e-05
2.795500493e-05
2.450321554e-05
2.152397056e-05
1.894188253e-05
1.66959989e-05
1.473612781e-05
1.302094946e-05
1.151609004e-05
1.019272767e-05
9.026654718e-06
7.997244755e-06
7.08701079e-06
6.280950597e-06
5.566226546e-06
4.931746785e-06
4.367941891e-06
3.866490803e-06
3.420169233e-06
3.022681446e-06
2.66855617e-06
2.353050962e-06
2.072086134e-06
1.822113981e-06
1.599577972e-06
1.400564321e-06
1.22206163e-06
1.062516434e-06
9.202737714e-07
7.939958731e-07
6.824754162e-07
5.846988268e-07
4.995443241e-07
4.253991597e-07
3.602799955e-07
3.026246214e-07
2.513441364e-07
2.056336615e-07
1.648608575e-07
1.284963268e-07
9.608205786e-08
6.721140422e-08
5.714626843e-08
5.544880268e-08
5.392507092e-08
5.255772754e-08
5.132972367e-08
5.022539831e-08
4.923146751e-08
4.833616888e-08
4.752968646e-08
4.680265682e-08
4.614671239e-08
4.555503179e-08
4.502109732e-08
4.45391042e-08
4.410383383e-08
4.371059788e-08
4.335518968e-08
4.303383927e-08
4.274312741e-08
4.24799702e-08
4.224159465e-08
4.202551734e-08
4.182951087e-08
4.165155855e-08
4.148984416e-08
4.134275623e-08
4.120882926e-08
4.108674714e-08
4.097532819e-08
4.087350788e-08
4.078032584e-08
4.069491601e-08
4.061649901e-08
4.054437482e-08
4.047791497e-08
4.041655477e-08
4.03597858e-08
4.030714987e-08
4.025823386e-08
4.021266529e-08
4.017010858e-08
4.013026199e-08
4.009285463e-08
4.005764344e-08
4.002441043e-08
3.999295987e-08
3.996311592e-08
3.993472034e-08
3.990763071e-08
3.988171883e-08
3.985686919e-08
3.983297769e-08
3.980995046e-08
3.978770296e-08
3.976615899e-08
3.974525002e-08
3.972491439e-08
3.97050967e-08
3.968574716e-08
3.966682111e-08
3.964827842e-08
3.963008307e-08
3.961220277e-08
3.959460853e-08
3.957727436e-08
3.956017705e-08
3.954329612e-08
3.952661449e-08
3.951011923e-08
3.949378847e-08
3.947760734e-08
3.946156344e-08
3.944564557e-08
3.942984371e-08
3.941414886e-08
3.939855295e-08
3.938304871e-08
3.936762974e-08
3.93522906e-08
3.933702744e-08
3.932183981e-08
3.930672485e-08
3.929167341e-08
3.927668083e-08
3.926174372e-08
3.92468591e-08
3.923202433e-08
3.921723703e-08
3.9202495e-08
3.918779627e-08
3.917313895e-08
3.915852135e-08
3.914394185e-08
3.912939898e-08
3.911489129e-08
3.910041746e-08
3.90859762e-08
3.90715663e-08
3.905718661e-08
3.9042836e-08
3.902851335e-08
3.901421765e-08
3.899994785e-08
3.898570299e-08
3.897148208e-08
3.895728416e-08
3.894310827e-08
3.892895351e-08
3.891481891e-08
3.890070348e-08
3.88866062e-08
3.887252593e-08
3.88584615e-08
3.884441159e-08
3.883037475e-08
3.881634944e-08
3.880233402e-08
3.878832674e-08
3.877432586e-08
3.876032965e-08
3.874633643e-08
3.873234459e-08
3.87183526e-08
3.870435906e-08
3.869036263e-08
3.867636195e-08
3.866235562e-08
3.86483421e-08
3.863431972e-08
3.862028661e-08
3.860624068e-08
3.859217974e-08
3.857810138e-08
3.856400309e-08
3.854988227e-08
3.853573616e-08
3.852156193e-08
3.850735653e-08
3.84931168e-08
3.847883951e-08
3.846452133e-08
3.845015893e-08
3.843574894e-08
3.842128803e-08
3.840677299e-08
3.839220066e-08
3.837756798e-08
3.836287195e-08
3.834810959e-08
3.833327788e-08
3.831837373e-08
3.830339394e-08
3.828833517e-08
3.827319385e-08
3.82579661e-08
3.82426477e-08
3.822723403e-08
3.82117201e-08
3.819610079e-08
3.818037087e-08
3.816452474e-08
3.814855643e-08
3.813245813e-08
3.811621954e-08
3.809984044e-08
3.80833163e-08
3.806664386e-08
3.804981435e-08
3.803282266e-08
3.80156624e-08
3.799832682e-08
3.798080512e-08
3.796310105e-08
3.794519801e-08
3.792709124e-08
3.790877277e-08
3.789023476e-08
3.787147042e-08
3.785246963e-08
3.783322571e-08
3.781372968e-08
3.77939677e-08
3.777393411e-08
3.7753618e-08
3.773300986e-08
3.771209923e-08
3.769087544e-08
3.766932748e-08
3.764744399e-08
3.762521329e-08
3.760262332e-08
3.757966164e-08
3.755631543e-08
3.753257144e-08
3.750841598e-08
3.748383488e-08
3.745881354e-08
3.743333688e-08
3.740738925e-08
3.73809545e-08
3.735401589e-08
3.732655611e-08
3.729855723e-08
3.72700006e-08
3.724086693e-08
3.721113617e-08
3.718078745e-08
3.714979909e-08
3.711814849e-08
3.708581216e-08
3.705276558e-08
3.701898328e-08
3.698443873e-08
3.694910429e-08
3.691295126e-08
3.687594972e-08
3.683806853e-08
3.679927523e-08
3.675953607e-08
3.67188158e-08
3.667707779e-08
3.663428388e-08
3.65903944e-08
3.65453682e-08
3.649916257e-08
3.64517333e-08
3.64030347e-08
3.635301951e-08
3.630163883e-08
3.624884187e-08
3.619457566e-08
3.613878462e-08
3.608141031e-08
3.602239111e-08
3.596166209e-08
3.589915488e-08
3.583479783e-08
3.576851671e-08
3.570023524e-08
3.562985412e-08
3.555730571e-08
3.548248852e-08
3.540530479e-08
3.53256581e-08
3.524341962e-08
3.515848375e-08
3.507072156e-08
3.497999816e-08
3.488617073e-08
3.478908896e-08
3.468859096e-08
3.458451183e-08
3.447667616e-08
3.436490001e-08
3.424899062e-08
3.412874587e-08
3.400395367e-08
3.387439102e-08
3.373982322e-08
3.360000302e-08
3.345466954e-08
3.330354713e-08
3.314634284e-08
3.298274387e-08
3.281241736e-08
3.263501944e-08
3.245018821e-08
3.22575394e-08
3.20566623e-08
3.184711438e-08
3.162841664e-08
3.140005013e-08
3.116145382e-08
3.091202433e-08
3.065111703e-08
3.037804709e-08
3.009209075e-08
2.979248734e-08
2.947843853e-08
2.91490891e-08
2.880351699e-08
2.844080567e-08
2.806000473e-08
2.766006551e-08
2.723983312e-08
2.67980633e-08
2.633343781e-08
2.584458288e-08
2.533009328e-08
2.478848321e-08
2.421829443e-08
2.361808987e-08
2.298645466e-08
2.232203415e-08
2.162363836e-08
2.089028401e-08
2.012146306e-08
1.931748425e-08
1.847969395e-08
1.761095138e-08
1.671642054e-08
1.580471314e-08
1.576336387e-08
1.593005928e-08
1.611562709e-08
1.632364246e-08
1.655858172e-08
1.682600206e-08
1.71325984e-08
1.748572697e-08
1.789144791e-08
1.834823759e-08
1.88299208e-08
0.0004893192046
0.0004895221147
0.0004898724392
0.0004903099326
0.0004907803299
0.0004912455264
0.0004916760183
0.0004919812511
0.0004920205619
0.000491789579
0.0004915240524
0.0004913570441
0.0004912800046
0.0004912548342
0.0004912482026
0.0004912348026
0.0004911959575
0.000491118279
0.000490991265
0.0004908050775
0.0004905498264
0.000490213562
0.0004897812722
0.000489232304
0.0004885390286
0.0004876629935
0.0004865527974
0.0004851448179
0.0004833851015
0.0004812834863
0.0004789706571
0.0004766463571
0.0004742657864
0.0004716978369
0.0004687988635
0.0004654753581
0.0004617507632
0.0004577745447