/*--------------------------------*- C++ -*----------------------------------*\
| =========                 |                                                 |
| \\      /  F ield         | OpenFOAM: The Open Source CFD Toolbox           |
|  \\    /   O peration     | Version:  v2006                                 |
|   \\  /    A nd           | Website:  www.openfoam.com                      |
|    \\/     M anipulation  |                                                 |
\*---------------------------------------------------------------------------*/
FoamFile
{
    version     2.0;
    format      ascii;
    class       volScalarField;
    location    "0.075";
    object      CH2(S);
}
// * * * * * * * * * * * * * * * * * * * * * * * * * * * * * * * * * * * * * //

dimensions      [0 0 0 0 0 0 0];


internalField   nonuniform List<scalar> 
72000
(
5.333188463e-14
5.347770143e-14
5.375113432e-14
5.398163281e-14
5.414628494e-14
5.419350933e-14
5.457231919e-14
5.627051549e-14
5.547802796e-14
5.365536645e-14
5.316607477e-14
5.3353117e-14
5.351083677e-14
5.364699709e-14
5.373897165e-14
5.385176387e-14
5.393928213e-14
5.398513113e-14
5.406323936e-14
5.410177486e-14
5.416319944e-14
5.418739554e-14
5.422258859e-14
5.421777805e-14
5.423052715e-14
5.421985721e-14
5.418961389e-14
5.41410335e-14
5.380528324e-14
5.283473888e-14
5.087385935e-14
5.056931859e-14
5.02944009e-14
5.000198593e-14
4.949830459e-14
4.849910923e-14
4.697827704e-14
4.48133973e-14
4.174014932e-14
4.064751682e-14
4.002761403e-14
3.955636022e-14
3.918149468e-14
3.886531555e-14
3.862239881e-14
3.841469099e-14
3.823646237e-14
3.810592532e-14
3.797993794e-14
3.78984745e-14
3.780510859e-14
3.775557063e-14
3.768510302e-14
3.765567962e-14
3.761570588e-14
3.758277237e-14
3.756289586e-14
3.753099731e-14
3.752880232e-14
3.751798447e-14
3.749521744e-14
3.749732181e-14
3.74839207e-14
3.749953499e-14
3.748564527e-14
3.749846126e-14
3.749620705e-14
3.748947379e-14
3.750068291e-14
3.749043179e-14
3.750818503e-14
3.750903561e-14
3.752191863e-14
3.752332869e-14
3.752458303e-14
3.753773826e-14
3.753097955e-14
3.75547482e-14
3.755779041e-14
3.755813122e-14
3.756869073e-14
3.757768304e-14
3.756801927e-14
3.758898053e-14
3.758896122e-14
3.760607068e-14
3.761518259e-14
3.761445592e-14
3.763473677e-14
3.762834486e-14
3.765007011e-14
3.765632533e-14
3.768761921e-14
3.769005229e-14
3.772024383e-14
3.772537864e-14
3.776171175e-14
3.77746006e-14
3.780147191e-14
3.782131612e-14
3.78556134e-14
3.787522524e-14
3.791151852e-14
3.792746814e-14
3.797348644e-14
3.800102738e-14
3.802114359e-14
3.806965315e-14
3.810497632e-14
3.813181059e-14
3.818513248e-14
3.822418075e-14
3.826646357e-14
3.832695096e-14
3.836995298e-14
3.843707546e-14
3.849759471e-14
3.85697253e-14
3.863826614e-14
3.872924499e-14
3.880190565e-14
3.889967613e-14
3.898521842e-14
3.906837709e-14
3.917392713e-14
3.926883674e-14
3.939080826e-14
3.9491144e-14
3.960203085e-14
3.972749712e-14
3.985586583e-14
3.997569388e-14
4.010945376e-14
4.021799054e-14
4.03289772e-14
4.031475523e-14
4.019219818e-14
3.997573154e-14
3.965828492e-14
3.920880068e-14
3.856038886e-14
3.757583174e-14
3.597966808e-14
3.592551369e-14
3.605601046e-14
3.630290432e-14
3.662772504e-14
3.703576921e-14
3.739502588e-14
3.770959243e-14
3.789584901e-14
3.759497241e-14
3.821683365e-14
3.887079443e-14
3.92847453e-14
3.936597067e-14
3.993736019e-14
4.052951049e-14
4.116403332e-14
4.181235605e-14
4.248975716e-14
4.318484549e-14
4.390527993e-14
4.46603137e-14
4.581126777e-14
4.743617243e-14
4.873369811e-14
4.999757776e-14
5.131399874e-14
5.268062215e-14
5.410044296e-14
5.557364712e-14
5.709157153e-14
5.862301494e-14
6.008337411e-14
6.151223869e-14
6.306938104e-14
6.506444125e-14
6.839419462e-14
7.313985188e-14
7.720066299e-14
8.087009723e-14
8.559657789e-14
8.982324533e-14
9.47625399e-14
1.002730586e-13
1.058967624e-13
1.119843199e-13
1.188595491e-13
1.270800368e-13
1.359566784e-13
1.456010244e-13
1.560527172e-13
1.719226522e-13
1.913671988e-13
2.123756122e-13
2.356674244e-13
2.615642953e-13
2.895225002e-13
3.199554907e-13
3.592635415e-13
4.185749571e-13
4.873878361e-13
5.625815494e-13
6.490212889e-13
7.716877964e-13
9.249754572e-13
1.108088432e-12
1.356988932e-12
1.735811668e-12
2.244344679e-12
3.017029631e-12
4.17422882e-12
5.990567314e-12
8.996516367e-12
1.439168464e-11
2.427961386e-11
4.415730636e-11
8.732966854e-11
2.237857129e-10
1.54810499e-09
1.859528917e-10
3.578215614e-11
1.370043311e-11
5.288359909e-12
3.403729e-12
2.251444453e-12
1.447304542e-12
1.021740382e-12
7.842044338e-13
5.868880992e-13
4.351252176e-13
3.357113269e-13
2.595165668e-13
1.949404944e-13
1.497734294e-13
1.166926954e-13
9.18978382e-14
7.3014958e-14
5.850210687e-14
4.822020291e-14
4.031104879e-14
3.367926375e-14
2.828824051e-14
2.393350809e-14
2.039035971e-14
1.747894409e-14
1.506313326e-14
1.304082926e-14
1.133438353e-14
9.884289336e-15
8.644401694e-15
7.578556593e-15
6.657917393e-15
5.859304835e-15
5.164038025e-15
4.556775626e-15
4.02484942e-15
3.557719458e-15
3.146557569e-15
2.783927187e-15
2.463522941e-15
2.179967556e-15
1.928655059e-15
1.705620572e-15
1.5074351e-15
1.331111662e-15
1.173787457e-15
1.033050903e-15
9.08350614e-16
7.992196967e-16
7.008201287e-16
6.12386499e-16
5.330184729e-16
4.618510144e-16
3.980108958e-16
3.407063968e-16
2.898818368e-16
2.459348507e-16
2.079996921e-16
1.746959057e-16
1.452197623e-16
1.190169508e-16
9.569163889e-17
7.491590552e-17
5.641830106e-17
3.995066356e-17
2.529428041e-17
1.223673146e-17
5.704397338e-19
1.912695143e-19
1.87288564e-19
1.837266607e-19
1.805311893e-19
1.776595419e-19
1.750767314e-19
1.727521984e-19
1.706592422e-19
1.687747064e-19
1.670777095e-19
1.655494762e-19
1.641731322e-19
1.629335127e-19
1.618169924e-19
1.608113132e-19
1.599054151e-19
1.590893336e-19
1.583541108e-19
1.576917115e-19
1.570949325e-19
1.565573153e-19
1.560730118e-19
1.556366753e-19
1.552435285e-19
1.548892989e-19
1.545701519e-19
1.542826365e-19
1.540236434e-19
1.537903713e-19
1.535802994e-19
1.533911616e-19
1.532209206e-19
1.530677433e-19
1.529299786e-19
1.528061379e-19
1.526948786e-19
1.525949898e-19
1.525053798e-19
1.524250661e-19
1.523531649e-19
1.522888815e-19
1.522315009e-19
1.521803798e-19
1.521349387e-19
1.520946546e-19
1.520590555e-19
1.520277151e-19
1.520002482e-19
1.519763066e-19
1.519555752e-19
1.519377691e-19
1.519226309e-19
1.519099278e-19
1.518994498e-19
1.518910068e-19
1.51884427e-19
1.518795558e-19
1.51876253e-19
1.518743921e-19
1.518738587e-19
1.51874549e-19
1.518763691e-19
1.518792325e-19
1.518830577e-19
1.518877624e-19
1.518932652e-19
1.518995225e-19
1.519064877e-19
1.519141162e-19
1.519223596e-19
1.519311785e-19
1.519405343e-19
1.519503915e-19
1.519607181e-19
1.519714851e-19
1.519826678e-19
1.519942451e-19
1.520061991e-19
1.520185061e-19
1.520311373e-19
1.520440679e-19
1.520572761e-19
1.520707423e-19
1.520844484e-19
1.520983772e-19
1.521125119e-19
1.521268368e-19
1.521413361e-19
1.521559948e-19
1.52170798e-19
1.521857313e-19
1.522007801e-19
1.522159304e-19
1.52231168e-19
1.52246479e-19
1.522618497e-19
1.522772661e-19
1.522927142e-19
1.523081802e-19
1.523236501e-19
1.523391099e-19
1.523545457e-19
1.523699432e-19
1.523852879e-19
1.524005655e-19
1.524157615e-19
1.524308607e-19
1.52445848e-19
1.524607077e-19
1.524754239e-19
1.524899804e-19
1.525043604e-19
1.525185466e-19
1.525325219e-19
1.525462688e-19
1.525597698e-19
1.525730076e-19
1.525859654e-19
1.525986263e-19
1.526109742e-19
1.526229932e-19
1.526346681e-19
1.52645983e-19
1.526569229e-19
1.526674717e-19
1.526776138e-19
1.526873328e-19
1.52696612e-19
1.527054346e-19
1.527137837e-19
1.527216416e-19
1.527289917e-19
1.527358098e-19
1.527420907e-19
1.527478066e-19
1.527529421e-19
1.527574792e-19
1.527613998e-19
1.527646862e-19
1.527673208e-19
1.527692862e-19
1.527705659e-19
1.527711438e-19
1.527710044e-19
1.527701325e-19
1.527685131e-19
1.527661314e-19
1.527629728e-19
1.527590223e-19
1.52754265e-19
1.527486853e-19
1.527422669e-19
1.527349927e-19
1.527268457e-19
1.527178089e-19
1.527078473e-19
1.526969739e-19
1.526851426e-19
1.52672339e-19
1.526585402e-19
1.526437241e-19
1.526278754e-19
1.526109709e-19
1.525930328e-19
1.525740108e-19
1.525538949e-19
1.525326676e-19
1.525103105e-19
1.524868059e-19
1.52462141e-19
1.52436291e-19
1.524092382e-19
1.52380964e-19
1.523514503e-19
1.523206789e-19
1.522886301e-19
1.522552848e-19
1.522206216e-19
1.521846171e-19
1.521472532e-19
1.521085097e-19
1.520683666e-19
1.520268028e-19
1.519837974e-19
1.519393288e-19
1.518933752e-19
1.518459145e-19
1.517969241e-19
1.517463813e-19
1.516942628e-19
1.51640545e-19
1.515852036e-19
1.515282137e-19
1.514695503e-19
1.514091872e-19
1.513470982e-19
1.512832559e-19
1.512176324e-19
1.511501991e-19
1.510809262e-19
1.510097832e-19
1.509367388e-19
1.508617599e-19
1.50784813e-19
1.507058626e-19
1.506248723e-19
1.50541804e-19
1.504566178e-19
1.503692729e-19
1.502797264e-19
1.501879336e-19
1.500938483e-19
1.499974224e-19
1.498986059e-19
1.497973466e-19
1.496935906e-19
1.495872815e-19
1.494783606e-19
1.493667675e-19
1.492524395e-19
1.491353117e-19
1.490153176e-19
1.488923884e-19
1.487664542e-19
1.486374426e-19
1.485052798e-19
1.483698884e-19
1.482311879e-19
1.480890934e-19
1.479435147e-19
1.477943558e-19
1.476415145e-19
1.474848825e-19
1.473243453e-19
1.471597816e-19
1.469910597e-19
1.468180346e-19
1.466405715e-19
1.464585096e-19
1.462716785e-19
1.460798933e-19
1.458829428e-19
1.456806156e-19
1.454726745e-19
1.452588622e-19
1.450389046e-19
1.448125215e-19
1.4457936e-19
1.443391107e-19
1.440914208e-19
1.438359165e-19
1.435722036e-19
1.432998661e-19
1.430184624e-19
1.427275234e-19
1.424265487e-19
1.42115028e-19
1.417923552e-19
1.414579414e-19
1.411111237e-19
1.407512095e-19
1.403775898e-19
1.399893371e-19
1.395855441e-19
1.391652716e-19
1.387274986e-19
1.382711032e-19
1.377948459e-19
1.372973573e-19
1.367771306e-19
1.362325161e-19
1.356617204e-19
1.350628038e-19
1.344336765e-19
1.337720628e-19
1.33075272e-19
1.323409782e-19
1.31566569e-19
1.307489699e-19
1.298847163e-19
1.289700279e-19
1.280007061e-19
1.269720813e-19
1.25878979e-19
1.247156776e-19
1.234758867e-19
1.221529019e-19
1.20739324e-19
1.192269701e-19
1.176067531e-19
1.158685669e-19
1.140011977e-19
1.11992241e-19
1.098281792e-19
1.074944766e-19
1.049755788e-19
1.022551323e-19
9.931661688e-20
9.614453233e-20
9.27264452e-20
8.905501326e-20
8.513677231e-20
8.099906946e-20
7.671191357e-20
7.241591513e-20
6.838678066e-20
6.505325471e-20
6.293096226e-20
7.444020425e-17
2.06464593e-16
6.739174654e-14
6.75049354e-14
6.770254546e-14
6.791469331e-14
6.810667275e-14
6.82755543e-14
6.854470818e-14
6.891941183e-14
6.877238548e-14
6.813146465e-14
6.776713099e-14
6.772621338e-14
6.777806867e-14
6.785992708e-14
6.794798282e-14
6.803119779e-14
6.810735741e-14
6.817397387e-14
6.822772682e-14
6.826929843e-14
6.829601521e-14
6.830740288e-14
6.829951861e-14
6.826868005e-14
6.820798343e-14
6.810522201e-14
6.793659749e-14
6.765223049e-14
6.712661276e-14
6.623889884e-14
6.505782922e-14
6.435092308e-14
6.376146417e-14
6.312509088e-14
6.227402081e-14
6.104949346e-14
5.939291424e-14
5.730440521e-14
5.49781652e-14
5.346319407e-14
5.243945898e-14
5.167923373e-14
5.108725075e-14
5.06149571e-14
5.023045562e-14
4.991882322e-14
4.966590707e-14
4.945791778e-14
4.928994807e-14
4.915301864e-14
4.90443914e-14
4.895751098e-14
4.889027802e-14
4.883792445e-14
4.880019614e-14
4.877601484e-14
4.875810852e-14
4.874972936e-14
4.874782474e-14
4.875387379e-14
4.876659454e-14
4.878199486e-14
4.88032444e-14
4.882670766e-14
4.885464655e-14
4.888384352e-14
4.891642599e-14
4.895236643e-14
4.898914048e-14
4.902850602e-14
4.906864606e-14
4.911168087e-14
4.915436783e-14
4.919938281e-14
4.924712826e-14
4.929395445e-14
4.934312549e-14
4.939202493e-14
4.944341397e-14
4.94969054e-14
4.954940036e-14
4.96045119e-14
4.966198048e-14
4.971922846e-14
4.977940834e-14
4.983992782e-14
4.990373456e-14
4.997144597e-14
5.004205993e-14
5.011703891e-14
5.019396108e-14
5.027646396e-14
5.036156913e-14
5.045193765e-14
5.054541172e-14
5.064439338e-14
5.074671592e-14
5.085457816e-14
5.096558564e-14
5.108300769e-14
5.120381181e-14
5.135402395e-14
5.154094835e-14
5.173679817e-14
5.193537449e-14
5.214379469e-14
5.236187853e-14
5.258263122e-14
5.281316176e-14
5.305384517e-14
5.329836832e-14
5.355344318e-14
5.382078198e-14
5.409352145e-14
5.437863267e-14
5.46711308e-14
5.497771519e-14
5.529237805e-14
5.562338006e-14
5.596340807e-14
5.631846734e-14
5.66829037e-14
5.706362576e-14
5.746142843e-14
5.786887046e-14
5.829228521e-14
5.872711587e-14
5.917867607e-14
5.963933913e-14
6.010731646e-14
6.057977197e-14
6.105129379e-14
6.151405752e-14
6.195087476e-14
6.233432608e-14
6.260236205e-14
6.273710374e-14
6.273596984e-14
6.258807958e-14
6.225994907e-14
6.17008219e-14
6.087542663e-14
5.990972217e-14
5.992935657e-14
6.039785285e-14
6.113428914e-14
6.206159242e-14
6.310354974e-14
6.413080556e-14
6.511851883e-14
6.604001695e-14
6.695190678e-14
6.84671291e-14
7.034789315e-14
7.219126557e-14
7.385793247e-14
7.578677703e-14
7.787293085e-14
8.008653636e-14
8.241939574e-14
8.48821279e-14
8.749128407e-14
9.026729638e-14
9.330252754e-14
9.690283855e-14
1.010964557e-13
1.05238951e-13
1.094596661e-13
1.138505229e-13
1.184486689e-13
1.232731863e-13
1.283327287e-13
1.336214525e-13
1.391086156e-13
1.452367281e-13
1.5206343e-13
1.594487337e-13
1.677597684e-13
1.770873339e-13
1.875180969e-13
1.982744009e-13
2.097464304e-13
2.301675372e-13
2.514998216e-13
2.754728825e-13
3.022488888e-13
3.32782831e-13
3.678727234e-13
4.063511754e-13
4.498548717e-13
4.986095983e-13
5.534790821e-13
6.140833811e-13
6.816184733e-13
7.951762879e-13
9.369790009e-13
1.100952594e-12
1.28865906e-12
1.50608493e-12
1.764663636e-12
2.188957596e-12
2.73214926e-12
3.387196441e-12
4.202534136e-12
5.553319988e-12
7.316102969e-12
9.875616389e-12
1.36194823e-11
1.951539297e-11
2.82244568e-11
4.243310016e-11
6.561556861e-11
1.037878834e-10
1.726601647e-10
2.955897046e-10
5.361518026e-10
1.099031923e-09
2.778690339e-09
8.29270524e-09
1.359539374e-08
4.99719913e-09
4.981716379e-10
1.050655134e-10
5.256661138e-11
2.394172313e-11
1.422669857e-11
4.98393385e-12
2.761539599e-12
2.286642301e-12
1.817921884e-12
1.430847555e-12
1.107943798e-12
8.240727372e-13
6.072227777e-13
4.500948622e-13
3.384562174e-13
2.654552235e-13
2.150072801e-13
1.763228707e-13
1.461879413e-13
1.222744912e-13
1.031458464e-13
8.765199783e-14
7.49774245e-14
6.450210145e-14
5.576236802e-14
4.840725903e-14
4.217083232e-14
3.684850479e-14
3.228061428e-14
2.834095993e-14
2.492856498e-14
2.196184535e-14
1.93741508e-14
1.711037696e-14
1.512473201e-14
1.337899144e-14
1.184090989e-14
1.048333406e-14
9.28309245e-15
8.220356685e-15
7.278113638e-15
6.441679576e-15
5.698351647e-15
5.037097611e-15
4.448312464e-15
3.923657462e-15
3.455833009e-15
3.039260159e-15
2.669442751e-15
2.340274466e-15
2.043843196e-15
1.777723632e-15
1.539016029e-15
1.325213392e-15
1.13396578e-15
9.637990805e-16
8.137868272e-16
6.830262624e-16
5.687543991e-16
4.679240399e-16
3.78451865e-16
2.98821819e-16
2.278770122e-16
1.646629954e-16
1.083613985e-16
5.825240173e-17
1.366509437e-17
5.070308474e-19
4.918543935e-19
4.782610006e-19
4.660934071e-19
4.551728572e-19
4.453560753e-19
4.365212203e-19
4.285658532e-19
4.21397513e-19
4.149347549e-19
4.091077832e-19
4.038527418e-19
3.991122582e-19
3.948347749e-19
3.909739613e-19
3.874882116e-19
3.843401192e-19
3.814958888e-19
3.789250639e-19
3.766002685e-19
3.744969579e-19
3.725931334e-19
3.70869122e-19
3.693071058e-19
3.678906446e-19
3.666051664e-19
3.654376418e-19
3.643763719e-19
3.634108238e-19
3.625315033e-19
3.617298548e-19
3.609981811e-19
3.603295643e-19
3.597177893e-19
3.591572654e-19
3.586429587e-19
3.581703315e-19
3.577352925e-19
3.573341519e-19
3.569635875e-19
3.566206088e-19
3.563025306e-19
3.560069394e-19
3.557316684e-19
3.554747695e-19
3.552344898e-19
3.550092507e-19
3.547976284e-19
3.545983403e-19
3.544102285e-19
3.542322483e-19
3.540634565e-19
3.539030025e-19
3.537501179e-19
3.53604111e-19
3.534643586e-19
3.533302989e-19
3.532014259e-19
3.530772847e-19
3.529574655e-19
3.528415996e-19
3.527293554e-19
3.526204335e-19
3.525145644e-19
3.524115039e-19
3.523110249e-19
3.522128952e-19
3.521168487e-19
3.520228055e-19
3.519306368e-19
3.518402132e-19
3.517514129e-19
3.51664126e-19
3.515782515e-19
3.514936979e-19
3.514103831e-19
3.513282345e-19
3.512471915e-19
3.511672075e-19
3.510882501e-19
3.510102665e-19
3.509331767e-19
3.50856921e-19
3.507814512e-19
3.507067252e-19
3.506327042e-19
3.505593523e-19
3.504866356e-19
3.504145219e-19
3.503429803e-19
3.502719818e-19
3.502014974e-19
3.501314995e-19
3.500619611e-19
3.499928561e-19
3.499241586e-19
3.498558424e-19
3.497878829e-19
3.497202551e-19
3.496529332e-19
3.49585893e-19
3.495191092e-19
3.494525568e-19
3.493862112e-19
3.493200466e-19
3.492540372e-19
3.491881579e-19
3.491223818e-19
3.490566823e-19
3.489910311e-19
3.489253989e-19
3.488597562e-19
3.487940713e-19
3.487283121e-19
3.486624442e-19
3.485964327e-19
3.485302428e-19
3.484638386e-19
3.48397185e-19
3.483302476e-19
3.48262992e-19
3.481953859e-19
3.481273974e-19
3.480589954e-19
3.479901491e-19
3.479208262e-19
3.478509943e-19
3.477806195e-19
3.47709666e-19
3.476380964e-19
3.475658728e-19
3.47492955e-19
3.474193024e-19
3.473448724e-19
3.47269622e-19
3.471935096e-19
3.471164891e-19
3.470385148e-19
3.469595402e-19
3.46879519e-19
3.467984046e-19
3.467161511e-19
3.466327129e-19
3.465480452e-19
3.464621047e-19
3.463748498e-19
3.462862385e-19
3.461962296e-19
3.461047818e-19
3.460118534e-19
3.459174015e-19
3.458213823e-19
3.457237494e-19
3.456244539e-19
3.455234433e-19
3.454206624e-19
3.453160534e-19
3.452095544e-19
3.451011095e-19
3.449906483e-19
3.448781015e-19
3.447633889e-19
3.446464338e-19
3.445272004e-19
3.444055417e-19
3.442816438e-19
3.441552335e-19
3.440263116e-19
3.438948063e-19
3.437606464e-19
3.436237596e-19
3.434841073e-19
3.433415815e-19
3.431961151e-19
3.430476321e-19
3.428960575e-19
3.427413156e-19
3.425833202e-19
3.424219952e-19
3.422572471e-19
3.420889711e-19
3.419170913e-19
3.417415136e-19
3.415621459e-19
3.413788918e-19
3.411916522e-19
3.410003255e-19
3.408048075e-19
3.40604991e-19
3.404007662e-19
3.401920205e-19
3.399786375e-19
3.397604981e-19
3.395374791e-19
3.393094539e-19
3.39076292e-19
3.388378585e-19
3.385940151e-19
3.383446179e-19
3.380895187e-19
3.378285645e-19
3.375615967e-19
3.372884513e-19
3.370089578e-19
3.367229396e-19
3.36430213e-19
3.36130587e-19
3.35823863e-19
3.355098343e-19
3.35188285e-19
3.348589916e-19
3.345217205e-19
3.341762292e-19
3.338222649e-19
3.334595649e-19
3.330878554e-19
3.327068513e-19
3.323162558e-19
3.319157593e-19
3.3150504e-19
3.31083763e-19
3.306515803e-19
3.30208131e-19
3.297530409e-19
3.292859231e-19
3.288063773e-19
3.283139898e-19
3.278083314e-19
3.272889561e-19
3.267553977e-19
3.262071659e-19
3.256437443e-19
3.250645875e-19
3.244691194e-19
3.238567337e-19
3.232267921e-19
3.22578626e-19
3.219115196e-19
3.212246761e-19
3.205173742e-19
3.197887452e-19
3.190378945e-19
3.182638766e-19
3.174656045e-19
3.166420229e-19
3.157919495e-19
3.149141195e-19
3.140071848e-19
3.130698423e-19
3.121003439e-19
3.110972601e-19
3.100588906e-19
3.089834645e-19
3.078691196e-19
3.067138934e-19
3.055157143e-19
3.042723917e-19
3.029816061e-19
3.016408996e-19
3.002476472e-19
2.987990594e-19
2.97292136e-19
2.957236201e-19
2.940898768e-19
2.92387487e-19
2.906127099e-19
2.887614621e-19
2.868293164e-19
2.84811456e-19
2.827026246e-19
2.804970827e-19
2.781885755e-19
2.757703135e-19
2.732349621e-19
2.705746365e-19
2.677809028e-19
2.648448222e-19
2.617571541e-19
2.58507239e-19
2.550842718e-19
2.514759957e-19
2.476687963e-19
2.436480932e-19
2.393977963e-19
2.349001641e-19
2.301357238e-19
2.250831137e-19
2.197188745e-19
2.140185209e-19
2.079551167e-19
2.014992662e-19
1.946187791e-19
1.872784134e-19
1.794398009e-19
1.710612994e-19
1.62098746e-19
1.525064389e-19
1.422376672e-19
1.312464517e-19
1.194912406e-19
1.069410976e-19
9.358573405e-20
7.944955182e-20
6.461909146e-20
4.929114569e-20
3.384782186e-20
1.89538184e-20
5.855911536e-21
5.240569708e-22
5.396574467e-22
5.593316981e-22
7.208133938e-21
9.707880634e-14
9.719997678e-14
9.740938428e-14
9.765766932e-14
9.790791945e-14
9.814844686e-14
9.840534285e-14
9.861483086e-14
9.853657462e-14
9.816084556e-14
9.786099253e-14
9.775180749e-14
9.775543746e-14
9.781480059e-14
9.789901005e-14
9.79881994e-14
9.807254074e-14
9.814509454e-14
9.819914869e-14
9.823124478e-14
9.823594747e-14
9.820884954e-14
9.814209043e-14
9.802624622e-14
9.784583385e-14
9.757799756e-14
9.718536928e-14
9.660982456e-14
9.577063551e-14
9.463163048e-14
9.331427365e-14
9.215640179e-14
9.104593586e-14
8.983444643e-14
8.836726404e-14
8.652028907e-14
8.426256262e-14
8.167949356e-14
7.905519174e-14
7.693914099e-14
7.530900901e-14
7.403726005e-14
7.302724147e-14
7.221529497e-14
7.156018622e-14
7.10289036e-14
7.059766515e-14
7.024724973e-14
6.996530079e-14
6.973963656e-14
6.956278273e-14
6.942598961e-14
6.932427796e-14
6.925125255e-14
6.920408834e-14
6.917919174e-14
6.917153308e-14
6.91802503e-14
6.920251859e-14
6.923810871e-14
6.928522113e-14
6.934102152e-14
6.940570984e-14
6.947712782e-14
6.955577577e-14
6.963982303e-14
6.973020107e-14
6.982639575e-14
6.992660946e-14
7.003150744e-14
7.013974307e-14
7.025217072e-14
7.036738444e-14
7.048672055e-14
7.061006274e-14
7.073574136e-14
7.086495483e-14
7.099666772e-14
7.113257915e-14
7.127244108e-14
7.141494847e-14
7.156177671e-14
7.171317002e-14
7.186772816e-14
7.202706551e-14
7.219038557e-14
7.23594698e-14
7.253472862e-14
7.277777092e-14
7.303388815e-14
7.329726203e-14
7.357132275e-14
7.385484838e-14
7.41517397e-14
7.446096978e-14
7.478333821e-14
7.511655898e-14
7.546305032e-14
7.582121687e-14
7.619399342e-14
7.658061163e-14
7.698673965e-14
7.741145178e-14
7.785369019e-14
7.831021299e-14
7.878421128e-14
7.92751161e-14
7.977989395e-14
8.030184475e-14
8.084154904e-14
8.13966716e-14
8.197093971e-14
8.256548249e-14
8.317778731e-14
8.381126916e-14
8.446519112e-14
8.514365049e-14
8.584578257e-14
8.657589535e-14
8.733190994e-14
8.811706857e-14
8.892990961e-14
8.97743631e-14
9.065059886e-14
9.155487549e-14
9.248883038e-14
9.344952944e-14
9.443717389e-14
9.544502706e-14
9.646699405e-14
9.749528846e-14
9.851806128e-14
9.951683325e-14
1.004596902e-13
1.013004268e-13
1.019907085e-13
1.025002224e-13
1.028139722e-13
1.031109e-13
1.033194196e-13
1.033093488e-13
1.031632643e-13
1.031737967e-13
1.039912067e-13
1.054705678e-13
1.074561915e-13
1.098273782e-13
1.124655349e-13
1.152467873e-13
1.181283169e-13
1.211187785e-13
1.243357958e-13
1.281191156e-13
1.322666255e-13
1.365660105e-13
1.409960326e-13
1.458040768e-13
1.509772363e-13
1.565006483e-13
1.620925166e-13
1.68883208e-13
1.762451743e-13
1.841591318e-13
1.927859442e-13
2.023566835e-13
2.12850749e-13
2.238748644e-13
2.354186441e-13
2.475610464e-13
2.603716699e-13
2.739071016e-13
2.882131644e-13
3.033247185e-13
3.193117716e-13
3.392600654e-13
3.605925039e-13
3.837304743e-13
4.091644534e-13
4.371832331e-13
4.679200609e-13
5.011244701e-13
5.372585426e-13
5.774616981e-13
6.32837253e-13
7.206779603e-13
8.1895191e-13
9.280759642e-13
1.049519005e-12
1.185379393e-12
1.342672717e-12
1.539960036e-12
1.765275373e-12
2.022074094e-12
2.315573004e-12
2.74948251e-12
3.353072221e-12
4.065703761e-12
4.90767948e-12
5.93177917e-12
7.356872689e-12
9.414104917e-12
1.19364291e-11
1.53760226e-11
2.052727727e-11
2.733490279e-11
3.779921899e-11
5.247109869e-11
7.582030474e-11
1.101495618e-10
1.658896882e-10
2.528341844e-10
3.979193306e-10
6.396517464e-10
1.073144192e-09
1.864084997e-09
3.537826056e-09
7.935889124e-09
1.929371744e-08
3.544221033e-08
2.973864021e-08
9.159630924e-09
1.367998759e-09
4.213275247e-10
1.865863762e-10
8.431577726e-11
4.178683235e-11
2.010485787e-11
1.057281853e-11
3.67907458e-12
2.801831474e-12
2.26791503e-12
1.693832113e-12
1.221775206e-12
8.791850793e-13
6.58208459e-13
5.160374981e-13
4.122034924e-13
3.350916209e-13
2.765073937e-13
2.309837067e-13
1.949163858e-13
1.65871847e-13
1.42080714e-13
1.224187384e-13
1.059736102e-13
9.210962967e-14
8.033035232e-14
7.0260202e-14
6.16033836e-14
5.412655853e-14
4.764193294e-14
4.199741165e-14
3.706855619e-14
3.275260398e-14
2.896389239e-14
2.563070461e-14
2.269240365e-14
2.009759785e-14
1.780237826e-14
1.57692813e-14
1.396603988e-14
1.236488653e-14
1.094171531e-14
9.675612294e-15
8.54835712e-15
7.544087994e-15
6.648998799e-15
5.851152141e-15
5.140163862e-15
4.50624783e-15
3.939105011e-15
3.430321731e-15
2.974700634e-15
2.567089797e-15
2.203148566e-15
1.879021378e-15
1.59155325e-15
1.337852356e-15
1.114536604e-15
9.173067003e-16
7.422640138e-16
5.864607833e-16
4.475834427e-16
3.23751803e-16
2.133661305e-16
1.150315624e-16
2.750618214e-17
7.543296932e-19
7.254472995e-19
6.99517536e-19
6.762458174e-19
6.553425508e-19
6.365416567e-19
6.196174347e-19
6.043700115e-19
5.906325914e-19
5.782460462e-19
5.670681536e-19
5.569829755e-19
5.478797232e-19
5.396597187e-19
5.322342442e-19
5.255235911e-19
5.194562369e-19
5.139680803e-19
5.090009801e-19
5.045024937e-19
5.004254638e-19
4.967276551e-19
4.933711858e-19
4.903217549e-19
4.8754847e-19
4.850239201e-19
4.827231763e-19
4.8062385e-19
4.787058386e-19
4.769510316e-19
4.753430905e-19
4.738672805e-19
4.725103409e-19
4.712603612e-19
4.701066487e-19
4.690395948e-19
4.680505492e-19
4.671317156e-19
4.662760652e-19
4.654772601e-19
4.647295909e-19
4.640279238e-19
4.633676502e-19
4.627446352e-19
4.621551708e-19
4.615959279e-19
4.610639156e-19
4.605564431e-19
4.600710888e-19
4.596056727e-19
4.591582315e-19
4.587269959e-19
4.583103705e-19
4.579069188e-19
4.575153467e-19
4.571344903e-19
4.567633027e-19
4.564008435e-19
4.560462683e-19
4.556988193e-19
4.553578167e-19
4.550226502e-19
4.546927728e-19
4.543676944e-19
4.540469754e-19
4.537302238e-19
4.534170941e-19
4.531072989e-19
4.528006215e-19
4.524966923e-19
4.521952615e-19
4.518961214e-19
4.515990843e-19
4.513039833e-19
4.510106684e-19
4.507190056e-19
4.504288744e-19
4.501401696e-19
4.498528019e-19
4.495667093e-19
4.492818879e-19
4.489982927e-19
4.487157713e-19
4.484342479e-19
4.48153668e-19
4.478739846e-19
4.475951566e-19
4.473171468e-19
4.470399215e-19
4.467634506e-19
4.464877059e-19
4.462126619e-19
4.45938295e-19
4.456645834e-19
4.453915065e-19
4.451190452e-19
4.448471815e-19
4.445758981e-19
4.443051794e-19
4.440350096e-19
4.437653735e-19
4.434962573e-19
4.432276471e-19
4.4295953e-19
4.426918929e-19
4.42424723e-19
4.421580076e-19
4.418917352e-19
4.416258925e-19
4.413604662e-19
4.410954426e-19
4.408308057e-19
4.405665389e-19
4.403026231e-19
4.400390367e-19
4.39775757e-19
4.395127587e-19
4.392500154e-19
4.389875001e-19
4.387251862e-19
4.384630481e-19
4.382010606e-19
4.379392008e-19
4.376774471e-19
4.374157788e-19
4.371541755e-19
4.368926153e-19
4.36631074e-19
4.363695252e-19
4.361079389e-19
4.358462811e-19
4.355845159e-19
4.353226039e-19
4.350605035e-19
4.347981715e-19
4.34535562e-19
4.342726275e-19
4.340093167e-19
4.337455765e-19
4.334813522e-19
4.332165873e-19
4.329512253e-19
4.326852089e-19
4.32418481e-19
4.321509868e-19
4.31882672e-19
4.316134841e-19
4.313433712e-19
4.310722816e-19
4.308001632e-19
4.305269619e-19
4.30252622e-19
4.299770851e-19
4.297002887e-19
4.294221649e-19
4.291426393e-19
4.288616312e-19
4.285790529e-19
4.282948141e-19
4.280088229e-19
4.277209805e-19
4.274311817e-19
4.271392895e-19
4.268451237e-19
4.26548677e-19
4.262498677e-19
4.259486363e-19
4.25644828e-19
4.253383505e-19
4.250290891e-19
4.247169235e-19
4.244016625e-19
4.240833654e-19
4.23761741e-19
4.234367015e-19
4.231081034e-19
4.227758058e-19
4.224396846e-19
4.220995588e-19
4.217553054e-19
4.214067627e-19
4.210536838e-19
4.20695963e-19
4.203334035e-19
4.199658319e-19
4.195930588e-19
4.192148899e-19
4.188311251e-19
4.184415578e-19
4.180459751e-19
4.176441574e-19
4.172358778e-19
4.168209024e-19
4.16398989e-19
4.159698878e-19
4.155333398e-19
4.15089078e-19
4.146368261e-19
4.141762979e-19
4.137071975e-19
4.132292182e-19
4.127420424e-19
4.122453411e-19
4.117387725e-19
4.112219819e-19
4.106946013e-19
4.101562474e-19
4.096065215e-19
4.090450085e-19
4.084712761e-19
4.078848737e-19
4.072853324e-19
4.06672164e-19
4.060448597e-19
4.054028907e-19
4.047457058e-19
4.040727308e-19
4.033833671e-19
4.026769916e-19
4.01952954e-19
4.012105776e-19
4.004491568e-19
3.99667958e-19
3.988662198e-19
3.980431504e-19
3.9719793e-19
3.963297098e-19
3.954376108e-19
3.945207228e-19
3.93578099e-19
3.926087511e-19
3.916116421e-19
3.905856809e-19
3.895297176e-19
3.884425401e-19
3.873228719e-19
3.86169374e-19
3.849806577e-19
3.837552921e-19
3.824914432e-19
3.811878151e-19
3.798425214e-19
3.784537309e-19
3.770196278e-19
3.755378269e-19
3.740063341e-19
3.724227421e-19
3.707845287e-19
3.69089023e-19
3.673334104e-19
3.655146624e-19
3.636296828e-19
3.61675177e-19
3.596476847e-19
3.575435733e-19
3.553590276e-19
3.530900362e-19
3.50732375e-19
3.482815895e-19
3.457329788e-19
3.430815741e-19
3.403221159e-19
3.374490069e-19
3.344562642e-19
3.313375115e-19
3.280861315e-19
3.246951388e-19
3.211570999e-19
3.17464056e-19
3.136074223e-19
3.095778992e-19
3.053654026e-19
3.00959016e-19
2.963469742e-19
2.915166683e-19
2.864546496e-19
2.811466339e-19
2.755775173e-19
2.697313422e-19
2.635909367e-19
2.57137711e-19
2.503528861e-19
2.432167703e-19
2.357075909e-19
2.278012998e-19
2.194718011e-19
2.106911487e-19
2.014297817e-19
1.916568486e-19
1.813392259e-19
1.704432768e-19
1.589345753e-19
1.46777725e-19
1.339367859e-19
1.203768276e-19
1.060643348e-19
9.097153383e-20
7.508196388e-20
5.839382966e-20
4.092777311e-20
2.27402167e-20
3.942960049e-21
4.939717383e-22
4.992524591e-22
5.051310363e-22
5.117207267e-22
5.191633349e-22
5.276349072e-22
5.373475304e-22
5.485342416e-22
5.613870193e-22
5.75857597e-22
5.91116773e-22
1.376091082e-13
1.377463778e-13
1.379831915e-13
1.382767135e-13
1.385875755e-13
1.388891492e-13
1.391626076e-13
1.393410163e-13
1.39319745e-13
1.391025308e-13
1.388824097e-13
1.38766478e-13
1.387469316e-13
1.387910363e-13
1.388692335e-13
1.389581327e-13
1.390414334e-13
1.39106422e-13
1.391419475e-13
1.391386862e-13
1.390868396e-13
1.389761161e-13
1.387928468e-13
1.385196045e-13
1.38132131e-13
1.375975746e-13
1.368711819e-13
1.358976094e-13
1.346297305e-13
1.330719431e-13
1.313293241e-13
1.2956687e-13
1.277451348e-13