/*--------------------------------*- C++ -*----------------------------------*\
| =========                 |                                                 |
| \\      /  F ield         | OpenFOAM: The Open Source CFD Toolbox           |
|  \\    /   O peration     | Version:  v2006                                 |
|   \\  /    A nd           | Website:  www.openfoam.com                      |
|    \\/     M anipulation  |                                                 |
\*---------------------------------------------------------------------------*/
FoamFile
{
    version     2.0;
    format      ascii;
    class       volScalarField;
    location    "0.075";
    object      CH2O;
}
// * * * * * * * * * * * * * * * * * * * * * * * * * * * * * * * * * * * * * //

dimensions      [0 0 0 0 0 0 0];


internalField   nonuniform List<scalar> 
72000
(
4.020713584e-08
4.030403439e-08
4.048725306e-08
4.065820837e-08
4.0805804e-08
4.089859559e-08
4.12066553e-08
4.215747609e-08
4.184362222e-08
4.086724601e-08
4.059882324e-08
4.074329106e-08
4.08642081e-08
4.096760065e-08
4.104029229e-08
4.11234374e-08
4.118824304e-08
4.122496143e-08
4.127994009e-08
4.130866382e-08
4.135012502e-08
4.136685662e-08
4.138903655e-08
4.138460043e-08
4.138924014e-08
4.137701495e-08
4.134990239e-08
4.130749084e-08
4.108211379e-08
4.045729071e-08
3.92103297e-08
3.89944213e-08
3.879935939e-08
3.859343784e-08
3.825345824e-08
3.759951018e-08
3.66127207e-08
3.521538656e-08
3.323388952e-08
3.250639953e-08
3.208492091e-08
3.176268819e-08
3.150535017e-08
3.128817076e-08
3.1121017e-08
3.097762691e-08
3.085392429e-08
3.07624659e-08
3.067441625e-08
3.061602528e-08
3.055021314e-08
3.051331583e-08
3.046312142e-08
3.043996128e-08
3.040977437e-08
3.038364171e-08
3.036672782e-08
3.034191191e-08
3.033674974e-08
3.03256013e-08
3.030634532e-08
3.030360683e-08
3.029061636e-08
3.029661239e-08
3.028349855e-08
3.028796591e-08
3.028224057e-08
3.0273043e-08
3.027587632e-08
3.026464461e-08
3.027168183e-08
3.026750999e-08
3.027162692e-08
3.026781019e-08
3.026321039e-08
3.026681994e-08
3.02573967e-08
3.026788417e-08
3.026466176e-08
3.025909073e-08
3.02607594e-08
3.026078422e-08
3.024841784e-08
3.025598991e-08
3.024985443e-08
3.025515624e-08
3.02547235e-08
3.024739269e-08
3.025389439e-08
3.024306927e-08
3.025038786e-08
3.024734842e-08
3.026047507e-08
3.025482932e-08
3.026704436e-08
3.026286656e-08
3.02786631e-08
3.027909347e-08
3.028873284e-08
3.029323973e-08
3.030724492e-08
3.031133689e-08
3.03263375e-08
3.032797923e-08
3.034895549e-08
3.035769404e-08
3.03611265e-08
3.038299743e-08
3.039602285e-08
3.040313423e-08
3.042749486e-08
3.044232399e-08
3.045843436e-08
3.048653152e-08
3.050316221e-08
3.053528333e-08
3.056260096e-08
3.059759932e-08
3.062965383e-08
3.067604943e-08
3.071040262e-08
3.076078439e-08
3.080273064e-08
3.084230329e-08
3.089613957e-08
3.09425454e-08
3.100583339e-08
3.105465671e-08
3.111007002e-08
3.117452681e-08
3.124067461e-08
3.130135998e-08
3.137018679e-08
3.142304286e-08
3.147653624e-08
3.145223508e-08
3.136052042e-08
3.121050176e-08
3.099821665e-08
3.070520783e-08
3.029154925e-08
2.967518809e-08
2.868941797e-08
2.864074795e-08
2.870699852e-08
2.884757561e-08
2.903728043e-08
2.928181587e-08
2.950362924e-08
2.970441509e-08
2.983529597e-08
2.972740136e-08
3.013328741e-08
3.056109105e-08
3.086269811e-08
3.098264535e-08
3.135185294e-08
3.173303383e-08
3.214261395e-08
3.256115704e-08
3.29999031e-08
3.344886219e-08
3.391322136e-08
3.439090219e-08
3.508805945e-08
3.605453394e-08
3.683297763e-08
3.759890165e-08
3.8402441e-08
3.92454348e-08
4.013103961e-08
4.106123187e-08
4.203431902e-08
4.303837091e-08
4.403511337e-08
4.504278043e-08
4.612416376e-08
4.740971782e-08
4.91873184e-08
5.150208268e-08
5.359595727e-08
5.560293983e-08
5.802087924e-08
6.032693479e-08
6.287408631e-08
6.56196653e-08
6.854617811e-08
7.179762841e-08
7.539006081e-08
7.931592344e-08
8.344591321e-08
8.783061912e-08
9.278079867e-08
9.960360742e-08
1.07851853e-07
1.165639591e-07
1.25985011e-07
1.367366671e-07
1.48148038e-07
1.604781887e-07
1.751573395e-07
1.945526141e-07
2.164979041e-07
2.396521359e-07
2.65748306e-07
2.967219555e-07
3.314922681e-07
3.717681779e-07
4.22487685e-07
4.88256981e-07
5.706908723e-07
6.837701221e-07
8.383732148e-07
1.057610756e-06
1.381630663e-06
1.902005622e-06
2.804014931e-06
4.705243065e-06
1.022408096e-05
3.738632111e-05
0.0003769440704
0.005470338391
0.004971683282
0.004061511621
0.003279134613
0.0025402565
0.001926705991
0.001423605517
0.001027641124
0.0007096413293
0.0004797783307
0.0003374953077
0.0002535519448
0.0001946698913
0.0001574191248
0.0001319069371
0.0001118002944
9.537097395e-05
8.165650963e-05
7.007254459e-05
6.052687332e-05
5.232509226e-05
4.502551256e-05
3.87424013e-05
3.341682706e-05
2.891305348e-05
2.509569766e-05
2.1846796e-05
1.906923233e-05
1.66836827e-05
1.462586441e-05
1.284356832e-05
1.129428955e-05
9.942964757e-06
8.76065193e-06
7.723541481e-06
6.811675218e-06
6.008246702e-06
5.298990272e-06
4.671785274e-06
4.116291904e-06
3.623632713e-06
3.186150352e-06
2.797210679e-06
2.451028153e-06
2.142499194e-06
1.866975652e-06
1.619719978e-06
1.400947255e-06
1.210534133e-06
1.043722665e-06
8.930959585e-07
7.578688773e-07
6.370865549e-07
5.301260478e-07
4.368969831e-07
3.590077525e-07
3.030451469e-07
2.66450292e-07
2.375780226e-07
2.129608208e-07
1.913713105e-07
1.722255443e-07
1.55191532e-07
1.400103871e-07
1.264822283e-07
1.144268746e-07
1.036859453e-07
9.410693974e-08
8.554188866e-08
8.44737453e-08
8.374236164e-08
8.308876965e-08
8.250315942e-08
8.197761773e-08
8.150565589e-08
8.108160989e-08
8.070053236e-08
8.035813281e-08
8.005054202e-08
7.977428103e-08
7.952622299e-08
7.930355768e-08
7.910376009e-08
7.892455853e-08
7.876390327e-08
7.861994756e-08
7.849103121e-08
7.83756649e-08
7.827251352e-08
7.818037992e-08
7.809817997e-08
7.802492243e-08
7.795972161e-08
7.790178535e-08
7.785040257e-08
7.780493323e-08
7.77648006e-08
7.772948496e-08
7.769851851e-08
7.767148059e-08
7.764799287e-08
7.762771484e-08
7.76103396e-08
7.759559035e-08
7.75832173e-08
7.757299494e-08
7.75647199e-08
7.755820889e-08
7.755329698e-08
7.754983562e-08
7.754769104e-08
7.754674271e-08
7.754688193e-08
7.754801043e-08
7.755003939e-08
7.755288845e-08
7.755648484e-08
7.756076269e-08
7.756566223e-08
7.757112931e-08
7.757711487e-08
7.758357443e-08
7.75904677e-08
7.759775815e-08
7.76054126e-08
7.761340105e-08
7.762169623e-08
7.763027335e-08
7.763910992e-08
7.76481854e-08
7.765748107e-08
7.766697961e-08
7.767666459e-08
7.76865195e-08
7.769652799e-08
7.770668069e-08
7.77169677e-08
7.772737946e-08
7.773790576e-08
7.774853802e-08
7.775926782e-08
7.777008732e-08
7.778098931e-08
7.77919672e-08
7.78030151e-08
7.781412791e-08
7.782530098e-08
7.783652872e-08
7.784780451e-08
7.785912251e-08
7.787047749e-08
7.788186456e-08
7.789327911e-08
7.790471673e-08
7.791617312e-08
7.792764412e-08
7.79391256e-08
7.795061355e-08
7.796210402e-08
7.797359311e-08
7.798507694e-08
7.799655171e-08
7.800801359e-08
7.801945882e-08
7.803088367e-08
7.804228439e-08
7.805365719e-08
7.806499835e-08
7.807630412e-08
7.808757076e-08
7.809879456e-08
7.810997171e-08
7.812109843e-08
7.813217095e-08
7.814318549e-08
7.815413816e-08
7.816502509e-08
7.817584233e-08
7.818658594e-08
7.81972519e-08
7.820783611e-08
7.821833445e-08
7.822874279e-08
7.823905701e-08
7.824927302e-08
7.825938678e-08
7.826939436e-08
7.827929187e-08
7.828907558e-08
7.829874186e-08
7.830828721e-08
7.831770809e-08
7.83270011e-08
7.833616271e-08
7.834518953e-08
7.835407803e-08
7.836282469e-08
7.837142598e-08
7.837987844e-08
7.838817847e-08
7.839632272e-08
7.840430645e-08
7.841212854e-08
7.841978364e-08
7.842726886e-08
7.843458073e-08
7.844171589e-08
7.844867109e-08
7.845544314e-08
7.84620289e-08
7.846842547e-08
7.847463007e-08
7.848064007e-08
7.848645292e-08
7.849206618e-08
7.84974775e-08
7.850268461e-08
7.85076852e-08
7.851247707e-08
7.851705791e-08
7.852142533e-08
7.852557688e-08
7.852951019e-08
7.853322289e-08
7.853670943e-08
7.853997311e-08
7.854300644e-08
7.854580784e-08
7.854837415e-08
7.855070256e-08
7.855279152e-08
7.855463806e-08
7.855624766e-08
7.855761256e-08
7.855873248e-08
7.855960581e-08
7.856023092e-08
7.856060632e-08
7.856073154e-08
7.8560604e-08
7.856022251e-08
7.855958579e-08
7.855869278e-08
7.855754247e-08
7.855613369e-08
7.855446547e-08
7.855253656e-08
7.855034544e-08
7.854789164e-08
7.854517445e-08
7.854219332e-08
7.853894764e-08
7.853543692e-08
7.853166072e-08
7.852761867e-08
7.85233105e-08
7.8518736e-08
7.851389511e-08
7.850878775e-08
7.850341404e-08
7.849777406e-08
7.849186803e-08
7.848569627e-08
7.847925912e-08
7.847255709e-08
7.846559068e-08
7.845836054e-08
7.845086735e-08
7.844311189e-08
7.843509496e-08
7.842681755e-08
7.841828056e-08
7.840948507e-08
7.840043208e-08
7.839112274e-08
7.838155823e-08
7.837173969e-08
7.836166845e-08
7.835134582e-08
7.834077318e-08
7.832995197e-08
7.831888376e-08
7.830757017e-08
7.82960129e-08
7.828421376e-08
7.827217465e-08
7.825989758e-08
7.824738473e-08
7.823463851e-08
7.82216615e-08
7.820845658e-08
7.819502695e-08
7.818137623e-08
7.816750835e-08
7.815342774e-08
7.813913894e-08
7.812464683e-08
7.810995632e-08
7.809507229e-08
7.80799995e-08
7.806474266e-08
7.804930639e-08
7.803369534e-08
7.801791404e-08
7.800196645e-08
7.798585534e-08
7.796958679e-08
7.795316354e-08
7.793658811e-08
7.791986202e-08
7.79029837e-08
7.788595327e-08
7.786876815e-08
7.785142404e-08
7.783391573e-08
7.781623918e-08
7.779837944e-08
7.778033209e-08
7.776208748e-08
7.774363506e-08
7.772496357e-08
7.770606108e-08
7.768691449e-08
7.766750941e-08
7.764782975e-08
7.762786192e-08
7.760757942e-08
7.758696387e-08
7.756598874e-08
7.754462784e-08
7.75228766e-08
7.750067871e-08
7.747798899e-08
7.745476441e-08
7.743095572e-08
7.740650471e-08
7.738134211e-08
7.735538639e-08
7.73285435e-08
7.730070717e-08
7.727176026e-08
7.724157596e-08
7.721001894e-08
7.7176941e-08
7.714214186e-08
7.710551433e-08
7.706692862e-08
7.702620413e-08
7.698312724e-08
7.693747022e-08
7.688897896e-08
7.683737077e-08
7.678233724e-08
7.672354704e-08
7.666065489e-08
7.659334487e-08
7.652129833e-08
7.644420104e-08
7.636175017e-08
7.627366971e-08
7.617973999e-08
7.6079841e-08
7.597404147e-08
7.586271413e-08
7.574666565e-08
7.562735111e-08
7.550722651e-08
7.53902943e-08
7.528294255e-08
7.519500019e-08
7.514233438e-08
7.514969778e-08
7.525718798e-08
7.552958103e-08
7.607554536e-08
7.706634454e-08
7.875836968e-08
1.27415962e-07
2.10185616e-07
3.747022587e-08
3.752892368e-08
3.763274278e-08
3.77508127e-08
3.786813508e-08
3.798315978e-08
3.815029547e-08
3.836859165e-08
3.834919167e-08
3.809229351e-08
3.795179289e-08
3.795298846e-08
3.799085124e-08
3.803767873e-08
3.808348817e-08
3.81249849e-08
3.816016252e-08
3.818820366e-08
3.820908303e-08
3.82222612e-08
3.822764258e-08
3.822406942e-08
3.8210777e-08
3.818499779e-08
3.814444309e-08
3.808292641e-08
3.798992837e-08
3.784249125e-08
3.758292124e-08
3.715664234e-08
3.65967673e-08
3.625348059e-08
3.596389988e-08
3.565472044e-08
3.525013604e-08
3.467907353e-08
3.391676887e-08
3.296560407e-08
3.191324076e-08
3.122255592e-08
3.075031764e-08
3.039556379e-08
3.011592213e-08
2.989001458e-08
2.97056441e-08
2.955338138e-08
2.942673095e-08
2.932156722e-08
2.923364908e-08
2.916069256e-08
2.909948698e-08
2.904896515e-08
2.900635614e-08
2.89713465e-08
2.894161923e-08
2.891671273e-08
2.88956689e-08
2.887804799e-08
2.886427263e-08
2.885277135e-08
2.884298708e-08
2.883536139e-08
2.882939905e-08
2.882526506e-08
2.882215462e-08
2.882047228e-08
2.881892991e-08
2.88176135e-08
2.881752671e-08
2.881761848e-08
2.881884321e-08
2.882035012e-08
2.882256024e-08
2.882444256e-08
2.88262277e-08
2.882851063e-08
2.883092854e-08
2.883409483e-08
2.883704093e-08
2.883968692e-08
2.884283965e-08
2.884585672e-08
2.884861716e-08
2.885210436e-08
2.885587545e-08
2.886052535e-08
2.886516848e-08
2.887003491e-08
2.88767331e-08
2.888408345e-08
2.889272754e-08
2.890240058e-08
2.891352704e-08
2.89254562e-08
2.893900895e-08
2.895341596e-08
2.89695024e-08
2.898644621e-08
2.900494908e-08
2.902462297e-08
2.9045946e-08
2.906926815e-08
2.909556097e-08
2.912313561e-08
2.915245819e-08
2.918304282e-08
2.921497131e-08
2.924887371e-08
2.92842098e-08
2.932112161e-08
2.936041263e-08
2.940124454e-08
2.94441585e-08
2.948978074e-08
2.953780248e-08
2.958889588e-08
2.964274604e-08
2.969967002e-08
2.976001299e-08
2.982364897e-08
2.989007285e-08
2.995977886e-08
3.003202933e-08
3.010705914e-08
3.018511374e-08
3.026561876e-08
3.034919619e-08
3.04348106e-08
3.052250286e-08
3.061175777e-08
3.07012163e-08
3.078862706e-08
3.087100683e-08
3.094209728e-08
3.099196477e-08
3.099858212e-08
3.095630688e-08
3.086525519e-08
3.072276865e-08
3.051857807e-08
3.023685314e-08
2.986745214e-08
2.945496588e-08
2.937919416e-08
2.945343341e-08
2.961779078e-08
2.984247557e-08
3.010484226e-08
3.036238538e-08
3.060660707e-08
3.082785746e-08
3.104202213e-08
3.14469054e-08
3.189700031e-08
3.231674568e-08
3.269950955e-08
3.317730562e-08
3.369467813e-08
3.424512319e-08
3.482338921e-08
3.543405271e-08
3.607763169e-08
3.676072457e-08
3.750316749e-08
3.838813907e-08
3.942211401e-08
4.042977549e-08
4.145185035e-08
4.251535407e-08
4.363187149e-08
4.480771521e-08
4.604657547e-08
4.734893611e-08
4.870951852e-08
5.010776611e-08
5.155875222e-08
5.311501567e-08
5.484840565e-08
5.676292542e-08
5.887742122e-08
6.103743729e-08
6.331068708e-08
6.683047393e-08
7.045526033e-08
7.444635879e-08
7.882480142e-08
8.349943841e-08
8.856783512e-08
9.403884494e-08
1.000854293e-07
1.067099319e-07
1.140423516e-07
1.221142027e-07
1.310988488e-07
1.435989925e-07
1.581762776e-07
1.745220891e-07
1.928036353e-07
2.134281232e-07
2.368791153e-07
2.688942628e-07
3.079088365e-07
3.533078539e-07
4.070863607e-07
4.81178308e-07
5.644645369e-07
6.736328811e-07
8.142389226e-07
1.008510284e-06
1.270259171e-06
1.643003453e-06
2.190961826e-06
3.025447901e-06
4.444315266e-06
7.117552231e-06
1.341445892e-05
3.316401162e-05
0.0001140212664
0.0004789020053
0.001763713956
0.004138277546
0.005498677941
0.004880928142
0.00419390184
0.003441038378
0.002701933246
0.002111027608
0.001597692021
0.001199348397
0.0008934103874
0.0006775599659
0.0005264116984
0.0004163092964
0.0003365679348
0.0002764562513
0.0002298588059
0.0001931773038
0.0001635805652
0.0001392217154
0.0001189802678
0.0001019515704
8.761791107e-05
7.552523511e-05
6.531015578e-05
5.66645485e-05
4.931855017e-05
4.304964144e-05
3.767425423e-05
3.304478412e-05
2.904108565e-05
2.556562838e-05
2.253838796e-05
1.989356715e-05
1.757666952e-05
1.554200339e-05
1.375105694e-05
1.217162053e-05
1.077624003e-05
9.541564344e-06
8.447542517e-06
7.47691927e-06
6.614807186e-06
5.848298005e-06
5.166179585e-06
4.558680777e-06
4.01728064e-06
3.534652453e-06
3.104656397e-06
2.72354883e-06
2.387328336e-06
2.088868977e-06
1.819594607e-06
1.578382976e-06
1.363205943e-06
1.17263421e-06
1.00553966e-06
8.620483243e-07
7.423617276e-07
6.435263102e-07
5.593384218e-07
4.858356885e-07
4.208564513e-07
3.630780052e-07
3.115916441e-07
2.65683767e-07
2.247590031e-07
1.882974356e-07
1.558186928e-07
1.4416666e-07
1.413934835e-07
1.389104654e-07
1.366886646e-07
1.346953026e-07
1.329041182e-07
1.312927901e-07
1.298425533e-07
1.285364722e-07
1.273596308e-07
1.262992465e-07
1.253436247e-07
1.244822586e-07
1.237057066e-07
1.230054845e-07
1.223739734e-07
1.218043236e-07
1.212903469e-07
1.208264665e-07
1.204076701e-07
1.200294635e-07
1.19687819e-07
1.193791345e-07
1.19100148e-07
1.188478494e-07
1.186195708e-07
1.184129269e-07
1.182257757e-07
1.18056189e-07
1.179024283e-07
1.177629274e-07
1.176362768e-07
1.175212098e-07
1.174165883e-07
1.173213883e-07
1.17234688e-07
1.17155656e-07
1.170835428e-07
1.170176723e-07
1.169574356e-07
1.169022845e-07
1.168517265e-07
1.168053191e-07
1.167626646e-07
1.167234054e-07
1.166872197e-07
1.166538175e-07
1.16622937e-07
1.165943425e-07
1.165678209e-07
1.165431798e-07
1.165202456e-07
1.164988614e-07
1.164788854e-07
1.1646019e-07
1.164426599e-07
1.164261911e-07
1.1641069e-07
1.163960722e-07
1.163822615e-07
1.163691893e-07
1.163567938e-07
1.16345019e-07
1.163338145e-07
1.163231345e-07
1.163129362e-07
1.163031761e-07
1.162938043e-07
1.162848051e-07
1.162761537e-07
1.162678253e-07
1.162597966e-07
1.162520463e-07
1.162445546e-07
1.162373039e-07
1.162302778e-07
1.16223462e-07
1.162168443e-07
1.162104149e-07
1.162041669e-07
1.161980893e-07
1.161921664e-07
1.161863861e-07
1.161807386e-07
1.16175215e-07
1.161698071e-07
1.161645071e-07
1.161593078e-07
1.161542021e-07
1.161491832e-07
1.161442449e-07
1.161393805e-07
1.16134584e-07
1.161298494e-07
1.161251707e-07
1.161205421e-07
1.161159578e-07
1.16111412e-07
1.161068993e-07
1.161024137e-07
1.160979498e-07
1.160935019e-07
1.160890643e-07
1.160846315e-07
1.160801977e-07
1.160757571e-07
1.160713042e-07
1.16066833e-07
1.160623376e-07
1.160578119e-07
1.160532495e-07
1.160486442e-07
1.160439891e-07
1.160392776e-07
1.160345024e-07
1.160296563e-07
1.160247322e-07
1.160197226e-07
1.160146203e-07
1.160094185e-07
1.160041099e-07
1.15998688e-07
1.159931465e-07
1.159874789e-07
1.15981679e-07
1.159757403e-07
1.159696566e-07
1.159634209e-07
1.159570265e-07
1.15950466e-07
1.159437321e-07
1.159368171e-07
1.159297134e-07
1.15922413e-07
1.159149076e-07
1.159071896e-07
1.158992504e-07
1.158910816e-07
1.158826745e-07
1.158740207e-07
1.158651118e-07
1.158559393e-07
1.158464951e-07
1.158367712e-07
1.158267597e-07
1.158164533e-07
1.158058447e-07
1.157949265e-07
1.157836917e-07
1.157721329e-07
1.157602429e-07
1.15748014e-07
1.157354385e-07
1.157225079e-07
1.157092134e-07
1.156955455e-07
1.156814945e-07
1.1566705e-07
1.156522026e-07
1.156369403e-07
1.156212517e-07
1.156051231e-07
1.155885416e-07
1.155715021e-07
1.155539789e-07
1.15536007e-07
1.155175384e-07
1.154985746e-07
1.154791039e-07
1.154591151e-07
1.154385967e-07
1.154175434e-07
1.153959373e-07
1.153737683e-07
1.153510246e-07
1.153276945e-07
1.153037665e-07
1.152792273e-07
1.152540653e-07
1.152282661e-07
1.152018132e-07
1.151746956e-07
1.151468988e-07
1.151184092e-07
1.150892123e-07
1.150592931e-07
1.150286366e-07
1.149972272e-07
1.14965049e-07
1.149320858e-07
1.148983209e-07
1.148637373e-07
1.148283174e-07
1.147920432e-07
1.147548961e-07
1.147168571e-07
1.146779067e-07
1.146380246e-07
1.145971901e-07
1.145553816e-07
1.14512577e-07
1.144687534e-07
1.144238872e-07
1.143779538e-07
1.143309277e-07
1.142827825e-07
1.142334908e-07
1.141830239e-07
1.141313521e-07
1.140784443e-07
1.140242684e-07
1.13968791e-07
1.13911977e-07
1.138537902e-07
1.13794193e-07
1.13733146e-07
1.136706084e-07
1.136065378e-07
1.135408898e-07
1.134736183e-07
1.134046756e-07
1.133340121e-07
1.132615764e-07
1.131873154e-07
1.131111743e-07
1.130330968e-07
1.129530246e-07
1.128708976e-07
1.127866535e-07
1.12700227e-07
1.126115497e-07
1.12520549e-07
1.124271484e-07
1.123312669e-07
1.12232819e-07
1.121317147e-07
1.120278597e-07
1.119211527e-07
1.11811479e-07
1.11698739e-07
1.115828081e-07
1.114635587e-07
1.113408558e-07
1.112145405e-07
1.110844619e-07
1.109504481e-07
1.108123147e-07
1.106698644e-07
1.105229109e-07
1.103711901e-07
1.102144984e-07
1.100525863e-07
1.098851953e-07
1.097120535e-07
1.095328751e-07
1.093473587e-07
1.091551857e-07
1.089560193e-07
1.087495026e-07
1.085352545e-07
1.0831287e-07
1.080819128e-07
1.078419074e-07
1.075923178e-07
1.073326557e-07
1.070623837e-07
1.067809131e-07
1.064876039e-07
1.061817583e-07
1.058626129e-07
1.055293322e-07
1.051810041e-07
1.04816639e-07
1.044351694e-07
1.040354514e-07
1.036162679e-07
1.031763391e-07
1.027143629e-07
1.022288179e-07
1.017181969e-07
1.011807777e-07
1.006146468e-07
1.000177768e-07
9.938793844e-08
9.872268531e-08
9.80193523e-08
9.727504224e-08
9.648660644e-08
9.565085672e-08
9.47643369e-08
9.38233528e-08
9.282395164e-08
9.176192454e-08
9.063285334e-08
8.943216008e-08
8.815533606e-08
8.679823748e-08
8.535733668e-08
8.383023572e-08
8.22165888e-08
8.051955142e-08
7.874802624e-08
7.691977936e-08
7.506714784e-08
7.324666218e-08
7.155377654e-08
7.014204624e-08
6.927733558e-08
7.003586389e-08
7.209524865e-08
7.469240362e-08
7.902001229e-08
3.590998832e-08
3.595111954e-08
3.602300521e-08
3.611136179e-08
3.620559042e-08
3.630184474e-08
3.640616994e-08
3.649876441e-08
3.650860812e-08
3.64288207e-08
3.636387074e-08
3.634682135e-08
3.635626146e-08
3.637679014e-08
3.640043148e-08
3.642247488e-08
3.644011468e-08
3.645173278e-08
3.645616012e-08
3.645241459e-08
3.6439434e-08
3.641581951e-08
3.637973471e-08
3.632830482e-08
3.625751304e-08
3.616088194e-08
3.60282576e-08
3.584355155e-08
3.558446237e-08
3.524164561e-08
3.484995042e-08
3.450347195e-08
3.417132119e-08
3.381326973e-08
3.338733639e-08
3.286037517e-08
3.222511284e-08
3.150585272e-08
3.07793714e-08
3.01918476e-08
2.9735701e-08
2.937609201e-08
2.908689702e-08
2.885117991e-08
2.865844009e-08
2.849884406e-08
2.83658586e-08
2.825490842e-08
2.816213913e-08
2.808469253e-08
2.801997773e-08
2.796612191e-08
2.792124693e-08
2.788402111e-08
2.785295556e-08
2.782711251e-08
2.780588136e-08
2.778861033e-08
2.777491325e-08
2.776399477e-08
2.775538225e-08
2.77490398e-08
2.774460557e-08
2.774196547e-08
2.774074184e-08
2.774082091e-08
2.774171329e-08
2.774333214e-08
2.774589018e-08
2.774916396e-08
2.77532677e-08
2.775793815e-08
2.776318272e-08
2.776863305e-08
2.777428874e-08
2.778041622e-08
2.778693494e-08
2.779393507e-08
2.780114088e-08
2.780850886e-08
2.781628488e-08
2.782426508e-08
2.78325254e-08
2.784135791e-08
2.785075825e-08
2.786085532e-08
2.787138062e-08
2.788242013e-08
2.78938883e-08
2.790621027e-08
2.791972971e-08
2.793451991e-08
2.795086416e-08
2.796895322e-08
2.798913773e-08
2.801092648e-08
2.803440172e-08
2.805944955e-08
2.80862905e-08
2.811492926e-08
2.814578719e-08
2.817943636e-08
2.821627023e-08
2.825543633e-08
2.829674689e-08
2.833995951e-08
2.838501834e-08
2.843205598e-08
2.848097513e-08
2.85318748e-08
2.858497501e-08
2.864019504e-08
2.869773303e-08
2.875788036e-08
2.882073835e-08
2.888661708e-08
2.895565557e-08
2.902811949e-08
2.910419047e-08
2.918391258e-08
2.926721627e-08
2.935413076e-08
2.944446249e-08
2.953813874e-08
2.963509663e-08
2.973502283e-08
2.983771732e-08
2.994259634e-08
3.004908744e-08
3.015618115e-08
3.026229926e-08
3.036500793e-08
3.046070899e-08
3.054331072e-08
3.060420545e-08
3.063439067e-08
3.062877969e-08
3.058547216e-08
3.050624755e-08
3.038843253e-08
3.023188858e-08
3.005309908e-08
2.990529781e-08
2.990263312e-08
3.001445025e-08
3.021104057e-08
3.046846003e-08
3.07661801e-08
3.108291711e-08
3.141050908e-08
3.174936148e-08
3.211751231e-08
3.256876595e-08
3.306840279e-08
3.35814383e-08
3.41035546e-08
3.467213641e-08
3.528357841e-08
3.59348672e-08
3.662936515e-08
3.738073932e-08
3.818106004e-08
3.903824003e-08
3.997019364e-08
4.100470677e-08
4.21360197e-08
4.331138545e-08
4.453100864e-08
4.580575542e-08
4.714466915e-08
4.85546555e-08
5.004100108e-08
5.16073998e-08
5.325655053e-08
5.504277437e-08
5.693649009e-08
5.897379401e-08
6.119400503e-08
6.36146131e-08
6.624251991e-08
6.905129345e-08
7.207595431e-08
7.53996967e-08
7.935037593e-08
8.501084862e-08
9.117828026e-08
9.786576966e-08
1.051516049e-07
1.131378458e-07
1.219964467e-07
1.31966061e-07
1.430835729e-07
1.555040765e-07
1.694432892e-07
1.881794351e-07
2.112431029e-07
2.374976551e-07
2.675168341e-07
3.021674739e-07
3.449491794e-07
4.026450734e-07
4.707425851e-07
5.531857134e-07
6.675209785e-07
8.084361361e-07
9.924231514e-07
1.230350911e-06
1.565303447e-06
2.024025354e-06
2.68759328e-06
3.666031778e-06
5.178648629e-06
7.716068279e-06
1.250650194e-05
2.302132264e-05
5.247237091e-05
0.0001509082329
0.0004700563414
0.00132795384
0.00293509304
0.004721645611
0.005433945566
0.005225325415
0.004694948784
0.003994680226
0.00325801634
0.002593419056
0.00203301842
0.001626132896
0.001275915698
0.00100546524
0.000795155814
0.0006336293284
0.0005102008221
0.0004155983638
0.0003422019422
0.0002843223309
0.0002383087737
0.0002013142659
0.0001711987272
0.0001464225863
0.0001258606512
0.0001086586258
9.417831803e-05
8.191849009e-05
7.147710485e-05
6.254007409e-05
5.485143407e-05
4.820839603e-05
4.244561874e-05
3.742921627e-05
3.304856973e-05
2.921247173e-05
2.584489903e-05
2.288200353e-05
2.027010656e-05
1.796339188e-05
1.59230021e-05
1.411556704e-05
1.251250099e-05
1.108908464e-05
9.823973134e-06
8.698600056e-06
7.696843936e-06
6.80465629e-06
6.009837292e-06
5.301829233e-06
4.671566964e-06
4.111167178e-06
3.612548517e-06
3.166697432e-06
2.766853877e-06
2.409754641e-06
2.091817193e-06
1.81019221e-06
1.562291767e-06
1.345918496e-06
1.158466404e-06
9.959622049e-07
8.535639714e-07
7.276097575e-07
6.156151472e-07
5.157835642e-07
4.267220366e-07
3.472719359e-07
2.764340642e-07
2.133223099e-07
1.902083894e-07
1.849864235e-07
1.802992144e-07
1.76093363e-07
1.723163824e-07
1.689200708e-07
1.658635432e-07
1.631105998e-07
1.606310312e-07
1.583960187e-07
1.563798103e-07
1.545614135e-07
1.529207686e-07
1.514400107e-07
1.501030786e-07
1.488955429e-07
1.478044569e-07
1.468182174e-07
1.459263009e-07
1.451192159e-07
1.443884278e-07
1.437262929e-07
1.431259559e-07
1.425812096e-07
1.42086464e-07
1.416367592e-07
1.412275846e-07
1.408548892e-07
1.405150358e-07
1.402047479e-07
1.399210693e-07
1.396613342e-07
1.394231435e-07
1.392043424e-07
1.390029962e-07
1.388173666e-07
1.386458882e-07
1.384871505e-07
1.383398816e-07
1.382029343e-07
1.380752756e-07
1.379559762e-07
1.378442016e-07
1.377392034e-07
1.376403101e-07
1.375469186e-07
1.374584872e-07
1.373745282e-07
1.372946028e-07
1.372183157e-07
1.37145311e-07
1.370752675e-07
1.370078958e-07
1.369429352e-07
1.368801504e-07
1.368193301e-07
1.367602839e-07
1.367028407e-07
1.366468468e-07
1.36592164e-07
1.365386684e-07
1.364862485e-07
1.364348045e-07
1.363842465e-07
1.36334494e-07
1.362854751e-07
1.362371262e-07
1.361893943e-07
1.361422389e-07
1.360955922e-07
1.36049408e-07
1.360036477e-07
1.35958276e-07
1.359132618e-07
1.358685768e-07
1.358241956e-07
1.357800954e-07
1.35736256e-07
1.356926601e-07
1.356492953e-07
1.356061598e-07
1.355632442e-07
1.355205199e-07
1.354779721e-07
1.354355897e-07
1.353933631e-07
1.353512837e-07
1.353093437e-07
1.352675357e-07
1.352258533e-07
1.351842901e-07
1.351428404e-07
1.351014988e-07
1.350602602e-07
1.350191197e-07
1.349780727e-07
1.349371147e-07
1.348962416e-07
1.348554494e-07
1.348147339e-07
1.347740915e-07
1.347335183e-07
1.346930109e-07
1.346525656e-07
1.346121789e-07
1.345718476e-07
1.345315681e-07
1.344913372e-07
1.344511514e-07
1.344110073e-07
1.343709012e-07
1.343308293e-07
1.342907875e-07
1.342507713e-07
1.342107758e-07
1.341707958e-07
1.34130826e-07
1.340908606e-07
1.340508938e-07
1.340109199e-07
1.339709334e-07
1.339309291e-07
1.338909019e-07
1.338508471e-07
1.338107604e-07
1.337706373e-07
1.337304733e-07
1.336902632e-07
1.336500018e-07
1.336096831e-07
1.335693004e-07
1.335288468e-07
1.334883147e-07
1.334476962e-07
1.334069833e-07
1.333661672e-07
1.333252391e-07
1.332841896e-07
1.332430089e-07
1.332016869e-07
1.331602134e-07
1.331185781e-07
1.330767706e-07
1.330347806e-07
1.329925984e-07
1.329502142e-07
1.329076187e-07
1.328648027e-07
1.328217571e-07
1.327784729e-07
1.327349405e-07
1.326911504e-07
1.326470923e-07
1.326027556e-07
1.325581286e-07
1.325131983e-07
1.324679511e-07
1.324223716e-07
1.323764446e-07
1.323301542e-07
1.322834836e-07
1.322364148e-07
1.321889243e-07
1.321409806e-07
1.320925836e-07
1.320437199e-07
1.3199438e-07
1.319445374e-07
1.318941771e-07
1.318432799e-07
1.317918258e-07
1.317397822e-07
1.316871614e-07
1.31633913e-07
1.315800231e-07
1.315254681e-07
1.314702248e-07
1.314142731e-07
1.313575828e-07
1.313001343e-07
1.312419011e-07
1.311828416e-07
1.311229396e-07
1.310621625e-07
1.310004824e-07
1.309378683e-07
1.308742887e-07
1.308097111e-07
1.307441019e-07
1.306774266e-07
1.306096497e-07
1.305407345e-07
1.304706431e-07
1.303993365e-07
1.303267744e-07
1.30252915e-07
1.301777153e-07
1.301011308e-07
1.300231154e-07
1.299436217e-07
1.298626004e-07
1.297800004e-07
1.29695769e-07
1.296098513e-07
1.295221906e-07
1.294327278e-07
1.293414016e-07
1.292481481e-07
1.291529008e-07
1.290555906e-07
1.289561453e-07
1.288544899e-07
1.287505463e-07
1.286442332e-07
1.285354661e-07
1.284241569e-07
1.283102139e-07
1.281935417e-07
1.280740408e-07
1.279516075e-07
1.278261339e-07
1.276975078e-07
1.275656125e-07
1.274303267e-07
1.27291525e-07
1.271490773e-07
1.270028493e-07
1.268527021e-07
1.266984922e-07
1.265400704e-07
1.263772812e-07
1.262099615e-07
1.260379394e-07
1.258610339e-07
1.256790542e-07
1.254917991e-07
1.252990579e-07
1.251006122e-07
1.248962381e-07
1.24685641e-07
1.244686243e-07
1.24244888e-07
1.240141439e-07
1.237761085e-07
1.235303995e-07
1.232767062e-07
1.230146474e-07
1.227438238e-07
1.224638128e-07
1.221741692e-07
1.218744135e-07
1.215640573e-07
1.212425813e-07
1.209094407e-07
1.205640647e-07
1.202058548e-07
1.198341829e-07
1.194483891e-07
1.190477784e-07
1.186316187e-07
1.181991378e-07
1.177495195e-07
1.172818961e-07
1.167953409e-07
1.162888675e-07
1.157614579e-07
1.152120408e-07
1.146394789e-07
1.140425564e-07
1.134199623e-07
1.127702769e-07
1.120919612e-07
1.113833506e-07
1.106426546e-07
1.098679602e-07
1.090572363e-07
1.082083376e-07
1.073190117e-07
1.063868974e-07
1.054094663e-07
1.043839931e-07
1.033077796e-07
1.021780346e-07
1.009916769e-07
9.974531251e-08
9.843528871e-08
9.705774371e-08
9.560866619e-08
9.408397285e-08
9.247936083e-08
9.079064577e-08
8.901374769e-08
8.71447014e-08
8.517978214e-08
8.311583837e-08
8.095043352e-08
7.868269089e-08
7.631436719e-08
7.385056029e-08
7.130120877e-08
6.868357782e-08
6.602584166e-08
6.606437804e-08
6.676147446e-08
6.75374926e-08
6.840738324e-08
6.93898657e-08
7.050817947e-08
7.179032165e-08
7.326705497e-08
7.496372209e-08
7.687395145e-08
7.888828196e-08
3.457011154e-08
3.45998351e-08
3.465149951e-08
3.471675833e-08
3.478804942e-08
3.485998175e-08
3.492825832e-08
3.497984413e-08
3.499450561e-08
3.497110348e-08
3.494266196e-08
3.492793879e-08
3.492579266e-08
3.493087725e-08
3.493847952e-08
3.494499002e-08
3.494777926e-08
3.494493644e-08
3.493492728e-08
3.491634428e-08
3.488774963e-08
3.484744125e-08
3.479324482e-08
3.472220142e-08
3.463031451e-08
3.451204861e-08
3.435998439e-08
3.416495769e-08
3.391922136e-08
3.362413787e-08
3.329836255e-08
3.297049212e-08
3.263411791e-08
3.227036921e-08
3.185853852e-08
3.138506887e-08