/*--------------------------------*- C++ -*----------------------------------*\
| =========                 |                                                 |
| \\      /  F ield         | OpenFOAM: The Open Source CFD Toolbox           |
|  \\    /   O peration     | Version:  v2006                                 |
|   \\  /    A nd           | Website:  www.openfoam.com                      |
|    \\/     M anipulation  |                                                 |
\*---------------------------------------------------------------------------*/
FoamFile
{
    version     2.0;
    format      ascii;
    class       volScalarField;
    location    "0.075";
    object      CH3;
}
// * * * * * * * * * * * * * * * * * * * * * * * * * * * * * * * * * * * * * //

dimensions      [0 0 0 0 0 0 0];


internalField   nonuniform List<scalar> 
72000
(
2.159402619e-09
2.164223476e-09
2.17333984e-09
2.18183302e-09
2.189133832e-09
2.193680271e-09
2.208902587e-09
2.257427641e-09
2.241073929e-09
2.191733209e-09
2.178354951e-09
2.18552012e-09
2.191571192e-09
2.19678053e-09
2.200489475e-09
2.204700238e-09
2.208019303e-09
2.209965255e-09
2.21279973e-09
2.214349332e-09
2.216517241e-09
2.217475684e-09
2.218692999e-09
2.218607805e-09
2.21896265e-09
2.218486624e-09
2.217262091e-09
2.215250822e-09
2.204109036e-09
2.17307783e-09
2.111272524e-09
2.100565812e-09
2.090948705e-09
2.080763555e-09
2.063868549e-09
2.031336604e-09
1.98223388e-09
1.912818497e-09
1.815055132e-09
1.778902023e-09
1.757976358e-09
1.74205136e-09
1.729382499e-09
1.718736279e-09
1.710522836e-09
1.70352019e-09
1.697524282e-09
1.693087909e-09
1.688859559e-09
1.68606277e-09
1.682945864e-09
1.681219883e-09
1.678882123e-09
1.677837326e-09
1.67648463e-09
1.675359523e-09
1.67465822e-09
1.673598543e-09
1.67346908e-09
1.673078016e-09
1.672321796e-09
1.672341993e-09
1.67188938e-09
1.672337164e-09
1.671881936e-09
1.672254994e-09
1.672160983e-09
1.671924446e-09
1.672247058e-09
1.671910268e-09
1.67243906e-09
1.672447597e-09
1.672832905e-09
1.672859944e-09
1.672875444e-09
1.673263142e-09
1.673039182e-09
1.673756593e-09
1.673834168e-09
1.673822307e-09
1.674131886e-09
1.674386815e-09
1.674065662e-09
1.674688503e-09
1.674667926e-09
1.675179579e-09
1.675440683e-09
1.675395802e-09
1.676002173e-09
1.675792272e-09
1.676449039e-09
1.676631957e-09
1.677586985e-09
1.677659097e-09
1.678586353e-09
1.678747091e-09
1.679867432e-09
1.6802709e-09
1.681109303e-09
1.681730829e-09
1.68280035e-09
1.683415771e-09
1.684543332e-09
1.685048541e-09
1.686478754e-09
1.687344119e-09
1.687982055e-09
1.689497422e-09
1.690611611e-09
1.691468536e-09
1.693146259e-09
1.694390787e-09
1.695735164e-09
1.69764892e-09
1.699036636e-09
1.701172771e-09
1.703113043e-09
1.705421219e-09
1.707626413e-09
1.71052764e-09
1.71287815e-09
1.71600534e-09
1.718763276e-09
1.721450937e-09
1.724831834e-09
1.727893728e-09
1.731788368e-09
1.735029111e-09
1.738601909e-09
1.742627877e-09
1.746749814e-09
1.750615931e-09
1.754895851e-09
1.75839303e-09
1.761915645e-09
1.761562718e-09
1.757834265e-09
1.751176068e-09
1.741381955e-09
1.727518604e-09
1.707583824e-09
1.677519021e-09
1.629302437e-09
1.627541573e-09
1.631885945e-09
1.640093507e-09
1.650949911e-09
1.664707328e-09
1.677719301e-09
1.689981362e-09
1.699026561e-09
1.695320903e-09
1.717346133e-09
1.740567626e-09
1.757544293e-09
1.76571876e-09
1.787285658e-09
1.809713284e-09
1.833665342e-09
1.858285699e-09
1.884041792e-09
1.910550665e-09
1.937996933e-09
1.966430041e-09
2.005347054e-09
2.056906653e-09
2.100348008e-09
2.143928896e-09
2.189998967e-09
2.238471454e-09
2.289473242e-09
2.343109888e-09
2.399314468e-09
2.457515626e-09
2.515854969e-09
2.575294969e-09
2.639047205e-09
2.713564236e-09
2.815923967e-09
2.948228788e-09
3.069875123e-09
3.187906758e-09
3.327771669e-09
3.463153119e-09
3.611719653e-09
3.771417979e-09
3.942488691e-09
4.132816146e-09
4.348501155e-09
4.588974836e-09
4.843051523e-09
5.113240229e-09
5.419451484e-09
5.83641017e-09
6.33958635e-09
6.872944e-09
7.45390602e-09
8.11892716e-09
8.829159327e-09
9.600902816e-09
1.052053182e-08
1.177284177e-08
1.321558756e-08
1.475782314e-08
1.651689218e-08
1.86524311e-08
2.1104013e-08
2.397169523e-08
2.760594617e-08
3.25134924e-08
3.874100366e-08
4.730177732e-08
5.89999981e-08
7.552285885e-08
9.976257864e-08
1.372304069e-07
1.964962337e-07
2.968155414e-07
4.820546203e-07
9.904094243e-07
6.065221376e-06
2.139816075e-05
1.469294359e-05
1.026621742e-05
7.25211264e-06
5.621742893e-06
4.2336617e-06
3.093038765e-06
2.288951877e-06
1.695790379e-06
1.25448124e-06
9.500044672e-07
7.521651238e-07
6.026852156e-07
4.82131013e-07
3.945976501e-07
3.266806751e-07
2.724328293e-07
2.282832329e-07
1.919649265e-07
1.626227106e-07
1.382599514e-07
1.173009525e-07
9.978787037e-08
8.52936295e-08
7.326548196e-08
6.322305893e-08
5.478105171e-08
4.763784811e-08
4.155615241e-08
3.634908388e-08
3.186837701e-08
2.799556902e-08
2.463463185e-08
2.170731688e-08
1.914981575e-08
1.690920128e-08
1.494134164e-08
1.320915309e-08
1.168135366e-08
1.033142852e-08
9.136761196e-09
8.077961387e-09
7.13833082e-09
6.303404688e-09
5.560543354e-09
4.898452335e-09
4.305932511e-09
3.780170725e-09
3.320194255e-09
2.915981973e-09
2.551065612e-09
2.223443906e-09
1.930480762e-09
1.670032363e-09
1.440760386e-09
1.244061622e-09
1.090004533e-09
9.750900701e-10
8.801134716e-10
7.978703359e-10
7.253918484e-10
6.610386058e-10
6.037706605e-10
5.527529782e-10
5.073161015e-10
4.668521492e-10
4.308261669e-10
3.987208268e-10
3.700325844e-10
3.679095521e-10
3.668068109e-10
3.658258807e-10
3.649511462e-10
3.641702002e-10
3.634729257e-10
3.628505126e-10
3.622952742e-10
3.618005453e-10
3.613603132e-10
3.60969171e-10
3.606222575e-10
3.603152029e-10
3.600440798e-10
3.598053541e-10
3.595958362e-10
3.594126518e-10
3.592532164e-10
3.59115211e-10
3.589965561e-10
3.588953864e-10
3.588100119e-10
3.58738887e-10
3.5868063e-10
3.586340047e-10
3.58597901e-10
3.585713189e-10
3.585533566e-10
3.585432008e-10
3.585401187e-10
3.585434505e-10
3.585526019e-10
3.585670373e-10
3.585862731e-10
3.586098719e-10
3.586374385e-10
3.586686149e-10
3.587030775e-10
3.587405335e-10
3.587807188e-10
3.588233943e-10
3.588683438e-10
3.589153718e-10
3.58964301e-10
3.590149701e-10
3.590672328e-10
3.591209558e-10
3.591760175e-10
3.592323072e-10
3.592897237e-10
3.593481747e-10
3.594075758e-10
3.594678496e-10
3.595289255e-10
3.595907389e-10
3.596532301e-10
3.597163447e-10
3.597800326e-10
3.598442475e-10
3.599089466e-10
3.599740905e-10
3.600396424e-10
3.601055677e-10
3.601718335e-10
3.602384064e-10
3.603052536e-10
3.603723532e-10
3.604396826e-10
3.605072194e-10
3.605749405e-10
3.606428253e-10
3.607108533e-10
3.607790051e-10
3.608472622e-10
3.609156071e-10
3.609840236e-10
3.610524963e-10
3.611210109e-10
3.611895516e-10
3.612581007e-10
3.613266421e-10
3.613951606e-10
3.614636414e-10
3.615320703e-10
3.616004334e-10
3.616687169e-10
3.617369074e-10
3.618049915e-10
3.61872956e-10
3.619407877e-10
3.620084737e-10
3.62076001e-10
3.621433568e-10
3.622105283e-10
3.622775029e-10
3.623442678e-10
3.624108104e-10
3.624771182e-10
3.625431785e-10
3.626089788e-10
3.626745068e-10
3.627397499e-10
3.628046957e-10
3.628693319e-10
3.629336461e-10
3.629976261e-10
3.630612596e-10
3.631245344e-10
3.631874384e-10
3.632499593e-10
3.633120852e-10
3.633738039e-10
3.634351035e-10
3.634959721e-10
3.635563981e-10
3.6361637e-10
3.636758766e-10
3.637349071e-10
3.637934509e-10
3.638514978e-10
3.63909038e-10
3.639660621e-10
3.640225608e-10
3.640785253e-10
3.641339468e-10
3.641888169e-10
3.642431271e-10
3.642968694e-10
3.643500359e-10
3.644026188e-10
3.644546106e-10
3.645060042e-10
3.645567908e-10
3.646069674e-10
3.646565245e-10
3.647054567e-10
3.647537581e-10
3.64801423e-10
3.648484464e-10
3.648948232e-10
3.649405492e-10
3.649856203e-10
3.650300331e-10
3.650737847e-10
3.651168725e-10
3.651592945e-10
3.652010489e-10
3.652421345e-10
3.652825502e-10
3.653222955e-10
3.653613698e-10
3.653997731e-10
3.654375051e-10
3.654745664e-10
3.655109576e-10
3.65546675e-10
3.655817288e-10
3.656161127e-10
3.656498303e-10
3.656828828e-10
3.657152726e-10
3.657470043e-10
3.657780807e-10
3.658085183e-10
3.658383133e-10
3.658674739e-10
3.658960069e-10
3.659239193e-10
3.659512189e-10
3.659779156e-10
3.660040166e-10
3.660295315e-10
3.660544704e-10
3.660788446e-10
3.661026655e-10
3.661259452e-10
3.661486966e-10
3.661709327e-10
3.661926669e-10
3.662139146e-10
3.662346918e-10
3.662550151e-10
3.66274902e-10
3.662943706e-10
3.663134403e-10
3.663321309e-10
3.663504634e-10
3.663684597e-10
3.663861428e-10
3.664035366e-10
3.66420666e-10
3.66437557e-10
3.664542369e-10
3.664707339e-10
3.664870775e-10
3.665032986e-10
3.66519429e-10
3.665355022e-10
3.665515529e-10
3.665676173e-10
3.665837327e-10
3.665999386e-10
3.666162755e-10
3.666327857e-10
3.666495132e-10
3.666665038e-10
3.66683805e-10
3.667014662e-10
3.667195389e-10
3.667380768e-10
3.667571355e-10
3.667767732e-10
3.667970502e-10
3.668180298e-10
3.668397773e-10
3.668623615e-10
3.668858534e-10
3.669103277e-10
3.66935862e-10
3.669625374e-10
3.669904388e-10
3.670196549e-10
3.670502785e-10
3.670824071e-10
3.671161425e-10
3.671515913e-10
3.67188865e-10
3.6722808e-10
3.672693576e-10
3.673128243e-10
3.673586115e-10
3.674068561e-10
3.674577008e-10
3.675112945e-10
3.675677922e-10
3.67627355e-10
3.676901491e-10
3.677563533e-10
3.678261491e-10
3.67899726e-10
3.679772805e-10
3.680590137e-10
3.681451387e-10
3.682358747e-10
3.683314491e-10
3.684320992e-10
3.685380759e-10
3.686496263e-10
3.687670269e-10
3.688905606e-10
3.690205239e-10
3.691572285e-10
3.693010019e-10
3.694521881e-10
3.696111487e-10
3.69778263e-10
3.699539366e-10
3.701385787e-10
3.703326364e-10
3.705365714e-10
3.707508756e-10
3.709761067e-10
3.71212774e-10
3.714614413e-10
3.71722716e-10
3.719972393e-10
3.722856852e-10
3.725887622e-10
3.729072155e-10
3.732418327e-10
3.735934495e-10
3.739629593e-10
3.743513226e-10
3.747595776e-10
3.751888434e-10
3.756402688e-10
3.761152784e-10
3.766154024e-10
3.771422486e-10
3.776975518e-10
3.782832285e-10
3.789013863e-10
3.795543544e-10
3.802447278e-10
3.809754203e-10
3.817497364e-10
3.825715103e-10
3.834451404e-10
3.84375705e-10
3.853691046e-10
3.864322499e-10
3.875733153e-10
3.888020728e-10
3.901303778e-10
3.915728042e-10
3.931474518e-10
3.948771012e-10
3.967908962e-10
3.989267914e-10
4.01335159e-10
4.040838254e-10
4.072673403e-10
4.110196074e-10
4.155375187e-10
4.211188842e-10
4.282354893e-10
4.376457822e-10
4.506072494e-10
6.425262523e-10
9.756197574e-10
2.386841027e-09
2.39022747e-09
2.396237039e-09
2.403105457e-09
2.409971855e-09
2.416747053e-09
2.426571781e-09
2.439462924e-09
2.438573092e-09
2.423977648e-09
2.4161725e-09
2.416567514e-09
2.419141886e-09
2.422291159e-09
2.425424102e-09
2.428298568e-09
2.430845378e-09
2.433013658e-09
2.43475443e-09
2.436073045e-09
2.43692584e-09
2.437282079e-09
2.437058988e-09
2.436134482e-09
2.434338763e-09
2.431325406e-09
2.426459007e-09
2.418397279e-09
2.403801709e-09
2.379507053e-09
2.347418481e-09
2.327830373e-09
2.311348569e-09
2.293641189e-09
2.270267896e-09
2.237052311e-09
2.192509558e-09
2.13677347e-09
2.075034851e-09
2.034443436e-09
2.006762923e-09
1.986100466e-09
1.96995411e-09
1.957038e-09
1.946527578e-09
1.93797975e-09
1.931010861e-09
1.9252778e-09
1.920617781e-09
1.916812123e-09
1.913758854e-09
1.911306029e-09
1.909372684e-09
1.907853546e-09
1.906712362e-09
1.905919315e-09
1.905312621e-09
1.904951948e-09
1.904777681e-09
1.904800536e-09
1.904986955e-09
1.905259506e-09
1.905676788e-09
1.90616558e-09
1.906762157e-09
1.907404205e-09
1.908120501e-09
1.908911448e-09
1.909735787e-09
1.910618663e-09
1.911532828e-09
1.912512499e-09
1.913494552e-09
1.914523122e-09
1.915609212e-09
1.916683603e-09
1.917810241e-09
1.918941327e-09
1.920123387e-09
1.921347987e-09
1.922558822e-09
1.923824713e-09
1.925139321e-09
1.926459743e-09
1.927847133e-09
1.929253486e-09
1.930731489e-09
1.932297146e-09
1.933946937e-09
1.935699077e-09
1.937509438e-09
1.939451324e-09
1.941466757e-09
1.94360516e-09
1.94582953e-09
1.948182893e-09
1.950627571e-09
1.95320216e-09
1.955862918e-09
1.958675321e-09
1.961579829e-09
1.964960562e-09
1.968905989e-09
1.973037959e-09
1.977254204e-09
1.98167299e-09
1.986293252e-09
1.991001404e-09
1.995915216e-09
2.001044404e-09
2.006289915e-09
2.011757824e-09
2.017488444e-09
2.023369656e-09
2.029521411e-09
2.03586567e-09
2.042517085e-09
2.049372989e-09
2.056586601e-09
2.064024767e-09
2.071786477e-09
2.079777893e-09
2.088110565e-09
2.096802517e-09
2.105724601e-09
2.114981577e-09
2.124501387e-09
2.134363268e-09
2.144431646e-09
2.15466639e-09
2.164995016e-09
2.175284987e-09
2.185349556e-09
2.194785376e-09
2.202956135e-09
2.208439135e-09
2.210849062e-09
2.210165303e-09
2.206191403e-09
2.198229181e-09
2.185216799e-09
2.166479727e-09
2.144932202e-09
2.145637259e-09
2.156618888e-09
2.173882193e-09
2.195689689e-09
2.220442174e-09
2.245394888e-09
2.270022408e-09
2.293736077e-09
2.317673332e-09
2.354574569e-09
2.397194575e-09
2.438935752e-09
2.477779877e-09
2.522741145e-09
2.571098194e-09
2.622316098e-09
2.67616963e-09
2.732914217e-09
2.792769514e-09
2.856063428e-09
2.924324685e-09
3.00334986e-09
3.093877595e-09
3.183918101e-09
3.276508386e-09
3.37358088e-09
3.475953192e-09
3.584118405e-09
3.698420145e-09
3.818988606e-09
3.945528068e-09
4.080962857e-09
4.226375016e-09
4.382528097e-09
4.555208183e-09
4.745643984e-09
4.956169476e-09
5.175130011e-09
5.40850332e-09
5.757322273e-09
6.121608575e-09
6.524198029e-09
6.968254337e-09
7.458448033e-09
8.005799397e-09
8.60344445e-09
9.269093514e-09
1.000538673e-08
1.082745051e-08
1.174090338e-08
1.276605148e-08
1.421141425e-08
1.593078505e-08
1.788821237e-08
2.01113702e-08
2.265718958e-08
2.561610745e-08
2.976210441e-08
3.487975888e-08
4.095525353e-08
4.82855033e-08
5.868064565e-08
7.104684104e-08
8.746475875e-08
1.093599818e-07
1.401811993e-07
1.822301719e-07
2.431350976e-07
3.323521069e-07
4.649432916e-07
6.757764578e-07
1.016783495e-06
1.626846443e-06
2.960764396e-06
6.968983718e-06
2.283717608e-05
6.611759618e-05
9.183664541e-05
5.672168856e-05
3.28458402e-05
2.403088563e-05
1.607976813e-05
1.157080326e-05
6.876659129e-06
4.980355628e-06
3.992201882e-06
3.163679725e-06
2.521978781e-06
2.011773842e-06
1.581608628e-06
1.243198748e-06
9.880852502e-07
7.954304455e-07
6.507001008e-07
5.388837954e-07
4.500355004e-07
3.786528524e-07
3.204753808e-07
2.728660187e-07
2.33579125e-07
2.009600244e-07
1.736916418e-07
1.507358044e-07
1.312785234e-07
1.146835014e-07
1.004514792e-07
8.818591677e-08
7.756940256e-08
6.834505488e-08
6.030348151e-08
5.327235136e-08
4.710823403e-08
4.169110445e-08
3.692044515e-08
3.271103051e-08
2.899067488e-08
2.569757389e-08
2.277867129e-08
2.018829882e-08
1.788693944e-08
1.584032884e-08
1.40186525e-08
1.239592932e-08
1.094970012e-08
9.660730604e-09
8.515725552e-09
7.50231944e-09
6.600919148e-09
5.788428559e-09
5.05991496e-09
4.408407241e-09
3.828330502e-09
3.314794444e-09
2.865993348e-09
2.480994786e-09
2.153964717e-09
1.871572926e-09
1.623616801e-09
1.403972515e-09
1.208573879e-09
1.034474315e-09
8.79299316e-10
7.410383628e-10
6.179289713e-10
5.083350062e-10
4.727987192e-10
4.684976473e-10
4.646527063e-10
4.612173746e-10
4.581400256e-10
4.553794311e-10
4.529006483e-10
4.506743203e-10
4.486739569e-10
4.468762373e-10
4.452611769e-10
4.438104838e-10
4.425077248e-10
4.4133813e-10
4.402884254e-10
4.393466894e-10
4.38502203e-10
4.37745281e-10
4.370671945e-10
4.364600969e-10
4.359169521e-10
4.354314537e-10
4.349979615e-10
4.346113657e-10
4.342669501e-10
4.339605348e-10
4.336883816e-10
4.334471333e-10
4.332337664e-10
4.330455545e-10
4.328800401e-10
4.32735011e-10
4.326084779e-10
4.324986525e-10
4.324039249e-10
4.323228442e-10
4.322541014e-10
4.321965149e-10
4.321490178e-10
4.321106482e-10
4.320805388e-10
4.320579094e-10
4.320420575e-10
4.320323512e-10
4.320282208e-10
4.320291526e-10
4.320346826e-10
4.320443911e-10
4.320578991e-10
4.320748629e-10
4.320949717e-10
4.321179436e-10
4.321435233e-10
4.321714791e-10
4.322016016e-10
4.322337007e-10
4.322676043e-10
4.323031563e-10
4.323402152e-10
4.323786525e-10
4.324183516e-10
4.324592067e-10
4.32501121e-10
4.325440066e-10
4.325877826e-10
4.326323732e-10
4.326777012e-10
4.327236794e-10
4.327702748e-10
4.328174401e-10
4.328651276e-10
4.32913292e-10
4.329618913e-10
4.330108862e-10
4.3306024e-10
4.331099188e-10
4.331598916e-10
4.332101306e-10
4.332606121e-10
4.333113167e-10
4.333622187e-10
4.33413285e-10
4.334644882e-10
4.335158044e-10
4.335672112e-10
4.336186876e-10
4.33670213e-10
4.337217678e-10
4.337733325e-10
4.338248884e-10
4.338764171e-10
4.339279003e-10
4.339793203e-10
4.340306594e-10
4.340819002e-10
4.341330254e-10
4.341840178e-10
4.342348604e-10
4.342855364e-10
4.343360287e-10
4.343863206e-10
4.344363953e-10
4.344862362e-10
4.345358265e-10
4.345851496e-10
4.346341887e-10
4.346829273e-10
4.347313486e-10
4.34779436e-10
4.348271724e-10
4.348745408e-10
4.349215241e-10
4.349681048e-10
4.350142655e-10
4.350599883e-10
4.351052555e-10
4.351500494e-10
4.351943524e-10
4.352381474e-10
4.352814177e-10
4.353241469e-10
4.353663194e-10
4.3540792e-10
4.354489342e-10
4.354893476e-10
4.355291459e-10
4.35568315e-10
4.356068406e-10
4.356447082e-10
4.356819034e-10
4.357184116e-10
4.357542181e-10
4.357893083e-10
4.358236675e-10
4.358572811e-10
4.358901353e-10
4.359222152e-10
4.359535065e-10
4.35983995e-10
4.360136669e-10
4.360425086e-10
4.360705071e-10
4.360976498e-10
4.361239249e-10
4.36149321e-10
4.361738279e-10
4.361974355e-10
4.362201346e-10
4.362419159e-10
4.362627707e-10
4.362826904e-10
4.363016664e-10
4.363196899e-10
4.363367519e-10
4.363528427e-10
4.363679522e-10
4.363820704e-10
4.363951862e-10
4.36407291e-10
4.364183725e-10
4.364284192e-10
4.36437417e-10
4.364453535e-10
4.364522286e-10
4.36458011e-10
4.364627648e-10
4.364664241e-10
4.364690014e-10
4.364704893e-10
4.364708812e-10
4.364701709e-10
4.364683625e-10
4.36465441e-10
4.364614037e-10
4.364562464e-10
4.364499657e-10
4.364425589e-10
4.364340211e-10
4.364243512e-10
4.364135439e-10
4.364015916e-10
4.36388496e-10
4.363742544e-10
4.363588657e-10
4.363423286e-10
4.36324642e-10
4.363058053e-10
4.362858181e-10
4.362646806e-10
4.36242393e-10
4.362189563e-10
4.361943716e-10
4.361686404e-10
4.361417647e-10
4.361137466e-10
4.360845889e-10
4.360542943e-10
4.360228666e-10
4.359903092e-10
4.359566264e-10
4.359218225e-10
4.358859025e-10
4.358488715e-10
4.35810735e-10
4.357714986e-10
4.357311684e-10
4.356897505e-10
4.356472515e-10
4.356036779e-10
4.355590363e-10
4.355133341e-10
4.354665786e-10
4.354187774e-10
4.353699386e-10
4.353200705e-10
4.352691818e-10
4.352172819e-10
4.351643802e-10
4.351104866e-10
4.350556118e-10
4.349997671e-10
4.349429645e-10
4.348852171e-10
4.348265395e-10
4.347669477e-10
4.347064593e-10
4.346450942e-10
4.345828737e-10
4.345198206e-10
4.344559588e-10
4.343913122e-10
4.343259046e-10
4.342597592e-10
4.341928986e-10
4.341253453e-10
4.340571214e-10
4.339882498e-10
4.3391875e-10
4.338486283e-10
4.337779238e-10
4.337066447e-10
4.336348041e-10
4.335624132e-10
4.334894561e-10
4.334159401e-10
4.333418514e-10
4.332671682e-10
4.331918616e-10
4.331159331e-10
4.330392762e-10
4.329618945e-10
4.328837358e-10
4.328047498e-10
4.327248837e-10
4.326440815e-10
4.325622826e-10
4.324794214e-10
4.323954258e-10
4.323102171e-10
4.322237037e-10
4.321357846e-10
4.320463392e-10
4.319552165e-10
4.318622043e-10
4.317672037e-10
4.31670078e-10
4.315706522e-10
4.314687173e-10
4.313640235e-10
4.312562721e-10
4.311451105e-10
4.31030131e-10
4.309108746e-10
4.307868381e-10
4.306574846e-10
4.305222568e-10
4.303806055e-10
4.30232065e-10
4.300759516e-10
4.29911754e-10
4.297387821e-10
4.295562264e-10
4.29363308e-10
4.291591654e-10
4.289428648e-10
4.287134368e-10
4.28469903e-10
4.282113012e-10
4.279370971e-10
4.27646899e-10
4.273406098e-10
4.270185214e-10
4.266814771e-10
4.263311462e-10
4.259703562e-10
4.256037911e-10
4.252388964e-10
4.248868494e-10
4.245641459e-10
4.24295126e-10
4.241157567e-10
4.240793097e-10
4.24264329e-10
4.247882931e-10
4.25829909e-10
4.276634393e-10
4.307063173e-10
4.3563446e-10
4.445913857e-10
4.575552767e-10
4.739044478e-10
4.962362136e-10
2.811253037e-09
2.814217572e-09
2.819433082e-09
2.825903721e-09
2.832883786e-09
2.840102987e-09
2.848000345e-09
2.85514992e-09
2.856419091e-09
2.851301614e-09
2.847329165e-09
2.846875255e-09
2.84841057e-09
2.850820947e-09
2.853517842e-09
2.856132716e-09
2.858477162e-09
2.860428201e-09
2.861874247e-09
2.862751692e-09
2.862965369e-09
2.862425025e-09
2.860980156e-09
2.858432968e-09
2.854472365e-09
2.848626001e-09
2.840134525e-09
2.827816057e-09
2.810043037e-09
2.78612092e-09
2.758563446e-09
2.734221261e-09
2.710849257e-09
2.685469866e-09
2.654981229e-09
2.61691963e-09
2.57072171e-09
2.518173449e-09
2.464971306e-09
2.421976632e-09
2.388741151e-09
2.362744692e-09
2.342061331e-09
2.325414677e-09
2.311974233e-09
2.301061745e-09
2.292192112e-09
2.284979836e-09
2.279165303e-09
2.274503681e-09
2.270834891e-09
2.267985258e-09
2.265846721e-09
2.264292895e-09
2.263258384e-09
2.262670272e-09
2.262434137e-09
2.262527446e-09
2.262896099e-09
2.263528168e-09
2.264387664e-09
2.26542404e-09
2.266637128e-09
2.267987636e-09
2.269480645e-09
2.271082556e-09
2.272805561e-09
2.274639896e-09
2.276555554e-09
2.27856265e-09
2.28063819e-09
2.282795192e-09
2.285008763e-09
2.287299815e-09
2.289666416e-09
2.292081036e-09
2.294564287e-09
2.297098391e-09
2.299711526e-09
2.302399253e-09
2.3051401e-09
2.307962679e-09
2.310872114e-09
2.313845611e-09
2.31691188e-09
2.320057561e-09
2.323313018e-09
2.326686364e-09
2.330739464e-09
2.334983091e-09
2.339361409e-09
2.343927087e-09
2.348666381e-09
2.353641127e-09
2.358841313e-09
2.364270886e-09
2.369896472e-09
2.375752794e-09
2.381819139e-09
2.388139938e-09
2.394710149e-09
2.401624862e-09
2.408875554e-09
2.416431441e-09
2.424239748e-09
2.432345451e-09
2.44073957e-09
2.449378237e-09
2.458310382e-09
2.467546326e-09
2.47705368e-09
2.48688801e-09
2.497069107e-09
2.50756272e-09
2.518421798e-09
2.529638476e-09
2.541275804e-09
2.553323033e-09
2.565846523e-09
2.578814421e-09
2.59227404e-09
2.606202592e-09
2.620656547e-09
2.635637239e-09
2.651087344e-09
2.66702838e-09
2.683414094e-09
2.700242063e-09
2.717405708e-09
2.734804164e-09
2.752306034e-09
2.769711696e-09
2.786712962e-09
2.802782219e-09
2.817162546e-09
2.829074774e-09
2.838053798e-09
2.843901331e-09
2.848120947e-09
2.850066108e-09
2.848746861e-09
2.845613798e-09
2.84543206e-09
2.858531789e-09
2.882476594e-09
2.914744341e-09
2.953383505e-09
2.996557203e-09
3.042376323e-09
3.090174918e-09
3.140037311e-09
3.193619729e-09
3.255833971e-09
3.323630555e-09
3.393889371e-09
3.466256318e-09
3.54426342e-09
3.627678546e-09
3.716266585e-09
3.807401537e-09
3.909833735e-09
4.019367067e-09
4.136291615e-09
4.262600534e-09
4.401289083e-09
4.552156939e-09
4.710269788e-09
4.875887264e-09
5.050313723e-09
5.234656497e-09
5.429842614e-09
5.636678658e-09
5.855847708e-09
6.088153642e-09
6.35289597e-09
6.635332617e-09
6.940060638e-09
7.272338019e-09
7.635366023e-09
8.031277451e-09
8.458328059e-09
8.922077664e-09
9.434594711e-09
1.006407341e-08
1.094855128e-08
1.192316726e-08
1.299333896e-08
1.41732958e-08
1.548119519e-08
1.695663213e-08
1.868205366e-08
2.062961494e-08
2.283230529e-08
2.533441157e-08
2.866488479e-08
3.287929606e-08
3.77553963e-08
4.341949366e-08
5.009848229e-08
5.85757214e-08
6.991957117e-08
8.354257105e-08
1.006737189e-07
1.24251092e-07
1.539015926e-07
1.937268332e-07
2.459029488e-07
3.199291146e-07
4.214501784e-07
5.688045015e-07
7.815863666e-07
1.101099417e-06
1.592330798e-06
2.394605746e-06
3.78005423e-06
6.635087363e-06
1.432646871e-05
3.774753116e-05
9.591689475e-05
0.000168095517
0.0001788168221
0.0001229095187
8.931206403e-05
6.509566443e-05
4.357484412e-05
2.796079957e-05
1.676477641e-05
1.096102299e-05
6.288516351e-06
5.007952881e-06
4.069828898e-06
3.182910349e-06
2.458919323e-06
1.909173203e-06
1.504773275e-06
1.207336895e-06
9.819718834e-07
8.094252032e-07
6.750890251e-07
5.686376723e-07
4.829721314e-07
4.13126225e-07
3.553822978e-07
3.072803446e-07
2.668095715e-07
2.325170803e-07
2.032600828e-07
1.781560568e-07
1.565063028e-07
1.377537657e-07
1.214481782e-07
1.0722219e-07
9.477398156e-08
8.385309588e-08
7.424984163e-08
6.578809347e-08
5.831826949e-08
5.171331787e-08
4.586433485e-08
4.067810616e-08
3.607412085e-08
3.198290471e-08
2.834403661e-08
2.510502425e-08
2.222009242e-08
1.964940258e-08
1.735834305e-08
1.531705801e-08
1.349955215e-08
1.188030492e-08
1.043171649e-08
9.132343064e-09
7.970204612e-09
6.932910567e-09
6.010253262e-09
5.193081624e-09
4.473775619e-09
3.844430943e-09
3.294349307e-09
2.810265997e-09
2.381293183e-09
1.999642592e-09
1.659441337e-09
1.356021239e-09
1.085451867e-09
8.44323187e-10
6.296044713e-10
5.580010546e-10
5.498076152e-10
5.424586436e-10
5.358696678e-10
5.299576208e-10
5.246464573e-10
5.198716905e-10
5.155762638e-10
5.117125631e-10
5.082351239e-10
5.051033491e-10
5.022841629e-10
4.997459277e-10
4.974604722e-10
4.954024648e-10
4.935491453e-10
4.918800889e-10
4.903769893e-10
4.890232418e-10
4.878038685e-10
4.867054002e-10
4.85715773e-10
4.848241653e-10
4.840207778e-10
4.832967852e-10
4.826443567e-10
4.82056369e-10
4.81526424e-10
4.810487758e-10
4.806182473e-10
4.802301667e-10
4.798803198e-10
4.795649132e-10
4.792805381e-10
4.790241332e-10
4.787929461e-10
4.785844976e-10
4.783965516e-10
4.782270912e-10
4.780742956e-10
4.779365237e-10
4.77812298e-10
4.777002904e-10
4.775993083e-10
4.775082802e-10
4.774262428e-10
4.773523292e-10
4.772857579e-10
4.772258246e-10
4.771718934e-10
4.771233908e-10
4.770797984e-10
4.770406476e-10
4.770055154e-10
4.769740192e-10
4.769458141e-10
4.769205883e-10
4.768980608e-10
4.768779778e-10
4.768601107e-10
4.768442529e-10
4.768302178e-10
4.76817837e-10
4.768069585e-10
4.767974446e-10
4.767891714e-10
4.767820282e-10
4.767759211e-10
4.767707764e-10
4.767664764e-10
4.76762938e-10
4.767600901e-10
4.767578672e-10
4.767562101e-10
4.767550642e-10
4.767543794e-10
4.767541097e-10
4.767542135e-10
4.767546537e-10
4.767554011e-10
4.767564431e-10
4.767577552e-10
4.767592821e-10
4.767609905e-10
4.767628536e-10
4.767648465e-10
4.767669459e-10
4.767691299e-10
4.767713775e-10
4.767736687e-10
4.767759842e-10
4.767783054e-10
4.767806144e-10
4.767828936e-10
4.76785126e-10
4.76787295e-10
4.767893842e-10
4.767913776e-10
4.767932596e-10
4.767950147e-10
4.767966274e-10
4.767980829e-10
4.767993663e-10
4.768004628e-10
4.76801358e-10
4.768020374e-10
4.768024867e-10
4.768026921e-10
4.768026391e-10
4.768023138e-10
4.768017019e-10
4.768007887e-10
4.767995596e-10
4.767979995e-10
4.767960927e-10
4.767938233e-10
4.767911751e-10
4.767881317e-10
4.767846769e-10
4.767807947e-10
4.767764699e-10
4.767716875e-10
4.767664336e-10
4.76760695e-10
4.767544589e-10
4.767477131e-10
4.767404452e-10
4.767326426e-10
4.767242923e-10
4.767153806e-10
4.767058932e-10
4.766958155e-10
4.766851321e-10
4.766738277e-10
4.766618866e-10
4.766492928e-10
4.766360303e-10
4.766220823e-10
4.766074318e-10
4.765920618e-10
4.765759554e-10
4.765590957e-10
4.765414661e-10
4.765230506e-10
4.765038341e-10
4.764838022e-10
4.764629413e-10
4.764412384e-10
4.764186811e-10
4.763952573e-10
4.763709547e-10
4.763457611e-10
4.763196639e-10
4.7629265e-10
4.762647051e-10
4.762358137e-10
4.762059588e-10
4.761751221e-10
4.761432853e-10
4.761104298e-10
4.760765359e-10
4.760415825e-10
4.760055401e-10
4.759683673e-10
4.759300734e-10
4.758906467e-10
4.758500822e-10
4.758083488e-10
4.757654337e-10
4.757213186e-10
4.756759842e-10
4.756293919e-10
4.75581575e-10
4.755324681e-10
4.754820643e-10
4.754303418e-10
4.753772804e-10
4.753228655e-10
4.752670674e-10
4.752098737e-10
4.75151262e-10
4.750911867e-10
4.750296433e-10
4.749666025e-10
4.749020429e-10
4.748359395e-10
4.74768267e-10
4.74699e-10
4.74628112e-10
4.745555765e-10
4.744813661e-10
4.744054527e-10
4.743278078e-10
4.742484019e-10
4.741672049e-10
4.740841857e-10
4.739993125e-10
4.739125526e-10
4.738238723e-10
4.737332369e-10
4.736406105e-10
4.735459564e-10
4.734492363e-10
4.733504108e-10
4.732494389e-10
4.731462783e-10
4.730408847e-10
4.72933212e-10
4.728232122e-10
4.727108351e-10
4.725960284e-10
4.724787375e-10
4.723589056e-10
4.722364734e-10
4.721113794e-10
4.719835594e-10
4.718529465e-10
4.71719471e-10
4.715830605e-10
4.714436389e-10
4.713011277e-10
4.711554449e-10
4.710065054e-10
4.708542218e-10
4.706985037e-10
4.705392582e-10
4.703763907e-10
4.702098044e-10
4.700394e-10
4.698650754e-10
4.696867238e-10
4.695042322e-10
4.693174809e-10
4.691263415e-10
4.689306772e-10
4.687303423e-10
4.685251833e-10
4.683150428e-10
4.680997625e-10
4.678790811e-10
4.67652902e-10
4.674209739e-10
4.671830742e-10
4.669389991e-10
4.666883977e-10
4.664310459e-10
4.661666187e-10
4.65894776e-10
4.656151539e-10
4.653273671e-10
4.650309905e-10
4.647256012e-10
4.644107436e-10
4.640859393e-10
4.637506872e-10
4.634044625e-10
4.630467139e-10
4.626768615e-10
4.622942939e-10
4.618983654e-10
4.614883931e-10
4.610636527e-10
4.606233685e-10
4.601667025e-10
4.596927566e-10
4.592006202e-10
4.58689338e-10
4.581578925e-10
4.576051871e-10
4.570300245e-10
4.564310877e-10
4.558069285e-10
4.551559623e-10
4.544764736e-10
4.537666284e-10
4.530244875e-10
4.522480221e-10
4.514351342e-10
4.505836653e-10
4.496913136e-10
4.487556004e-10
4.477742502e-10
4.467450145e-10
4.456653752e-10
4.445325329e-10
4.43343526e-10
4.42095347e-10
4.407850806e-10
4.394100801e-10
4.379677873e-10
4.364563565e-10
4.348747217e-10
4.332227241e-10
4.315014555e-10
4.297139731e-10
4.278657281e-10
4.259662336e-10
4.240311773e-10
4.220840406e-10
4.201591661e-10
4.183066514e-10
4.165993398e-10
4.19590759e-10
4.239790026e-10
4.288640609e-10
4.343400495e-10
4.40524807e-10
4.475646269e-10
4.556357517e-10
4.649318338e-10
4.75612406e-10
4.876373591e-10
5.003176322e-10
3.302970865e-09
3.305697448e-09
3.310480117e-09
3.316604365e-09
3.323412863e-09
3.330431189e-09
3.337274933e-09
3.342761814e-09
3.345064422e-09
3.344061641e-09
3.342720892e-09
3.342722933e-09
3.343962587e-09
3.345949528e-09
3.348244379e-09
3.350503117e-09
3.35248536e-09
3.354008491e-09
3.354915843e-09
3.355073261e-09
3.354338706e-09
3.352556155e-09
3.34951761e-09
3.344950939e-09
3.338478591e-09
3.329585721e-09
3.317575731e-09
3.301592029e-09
3.280915323e-09
3.255651542e-09
3.227486882e-09
3.199029952e-09
3.169684473e-09
3.137689637e-09