/*--------------------------------*- C++ -*----------------------------------*\
| =========                 |                                                 |
| \\      /  F ield         | OpenFOAM: The Open Source CFD Toolbox           |
|  \\    /   O peration     | Version:  v2006                                 |
|   \\  /    A nd           | Website:  www.openfoam.com                      |
|    \\/     M anipulation  |                                                 |
\*---------------------------------------------------------------------------*/
FoamFile
{
    version     2.0;
    format      ascii;
    class       volScalarField;
    location    "0.075";
    object      CH3OCH3;
}
// * * * * * * * * * * * * * * * * * * * * * * * * * * * * * * * * * * * * * //

dimensions      [0 0 0 0 0 0 0];


internalField   nonuniform List<scalar> 
72000
(
8.605504351e-12
8.637486803e-12
8.698236385e-12
8.75778491e-12
8.813137736e-12
8.854435233e-12
8.96581404e-12
9.44627907e-12
9.291540173e-12
8.900409417e-12
8.82145249e-12
8.872796522e-12
8.91592003e-12
8.952830504e-12
8.979472131e-12
9.008887545e-12
9.032058444e-12
9.045974088e-12
9.06527586e-12
9.07599085e-12
9.090408893e-12
9.09673588e-12
9.104473755e-12
9.103489647e-12
9.104991223e-12
9.100706345e-12
9.0911032e-12
9.075731673e-12
9.000916212e-12
8.797418369e-12
8.394316383e-12
8.320422552e-12
8.253913155e-12
8.183801951e-12
8.070056992e-12
7.854503651e-12
7.530463016e-12
7.072838151e-12
6.425313993e-12
6.182624899e-12
6.040771685e-12
5.932288323e-12
5.845653009e-12
5.772646411e-12
5.716351684e-12
5.668115927e-12
5.626535312e-12
5.595664953e-12
5.566088486e-12
5.546299688e-12
5.524231342e-12
5.511657793e-12
5.494859555e-12
5.486915808e-12
5.476732819e-12
5.467885317e-12
5.462098146e-12
5.453773103e-12
5.451877094e-12
5.448040372e-12
5.441570221e-12
5.440499705e-12
5.436105897e-12
5.437903379e-12
5.433503328e-12
5.43483806e-12
5.432844011e-12
5.429698889e-12
5.4304898e-12
5.426706212e-12
5.428875889e-12
5.427394758e-12
5.428634857e-12
5.427271636e-12
5.425624147e-12
5.426671971e-12
5.423477411e-12
5.426772367e-12
5.425593145e-12
5.423621907e-12
5.424036776e-12
5.423888693e-12
5.419691465e-12
5.421997549e-12
5.419838515e-12
5.421426926e-12
5.421124197e-12
5.418553153e-12
5.42051007e-12
5.416822876e-12
5.419058651e-12
5.417912127e-12
5.422046905e-12
5.420062428e-12
5.423911829e-12
5.422413409e-12
5.427436843e-12
5.427445849e-12
5.430479653e-12
5.431822645e-12
5.436283285e-12
5.437488062e-12
5.442262085e-12
5.442669132e-12
5.449403589e-12
5.452135619e-12
5.453122275e-12
5.460160967e-12
5.464307533e-12
5.466517128e-12
5.474399801e-12
5.47916701e-12
5.484340788e-12
5.493476706e-12
5.498876811e-12
5.509378696e-12
5.518314003e-12
5.529805404e-12
5.540340041e-12
5.55560467e-12
5.566943138e-12
5.583565465e-12
5.597427152e-12
5.610506431e-12
5.628295171e-12
5.643656398e-12
5.664577344e-12
5.680763415e-12
5.699145187e-12
5.720524818e-12
5.742488229e-12
5.762680236e-12
5.785521289e-12
5.803091088e-12
5.820742833e-12
5.812683802e-12
5.782242874e-12
5.732381011e-12
5.661759943e-12
5.564244485e-12
5.426578252e-12
5.221472905e-12
4.89285886e-12
4.875628921e-12
4.897527388e-12
4.944886648e-12
5.009174912e-12
5.092594554e-12
5.169803472e-12
5.241181218e-12
5.291559945e-12
5.294001425e-12
5.446981415e-12
5.609294611e-12
5.738651615e-12
5.818679775e-12
5.974127114e-12
6.136565886e-12
6.311420134e-12
6.492623755e-12
6.68392887e-12
6.881966364e-12
7.088084279e-12
7.300004273e-12
7.574389693e-12
7.924418572e-12
8.229504399e-12
8.543552635e-12
8.881396672e-12
9.243612886e-12
9.631953492e-12
1.004844884e-11
1.049483024e-11
1.097106758e-11
1.147126998e-11
1.199976517e-11
1.256318835e-11
1.317931205e-11
1.433762669e-11
1.603828702e-11
1.764597934e-11
1.927024349e-11
2.117890592e-11
2.311380984e-11
2.520628388e-11
2.743125591e-11
2.991542606e-11
3.276919197e-11
3.60540312e-11
3.958059858e-11
4.32856812e-11
4.71971667e-11
5.189264071e-11
6.08969771e-11
7.311107633e-11
8.637946651e-11
1.010421323e-10
1.185686342e-10
1.37609595e-10
1.587227086e-10
1.898911158e-10
2.416105295e-10
3.032229872e-10
3.706906635e-10
4.497662349e-10
5.804060696e-10
7.433116894e-10
9.362921563e-10
1.246808611e-09
1.765610986e-09
2.526728108e-09
4.01448308e-09
6.940738789e-09
1.323922941e-08
2.809416251e-08
7.334132005e-08
2.233013164e-07
8.524846096e-07
4.072491315e-06
2.684980455e-05
0.0004077030106
0.02533517189
0.04474689568
0.05838582633
0.06708765325
0.07299628187
0.07707305505
0.08000473644
0.08233468769
0.08441344706
0.08573965379
0.08625718377
0.08647834271
0.08648907489
0.08623455028
0.0859104313
0.08560035158
0.08531715337
0.0850635642
0.08483713861
0.0846384436
0.08448840002
0.08437741825
0.08429333737
0.08422742268
0.08417437038
0.08413050683
0.08409353984
0.0840618907
0.08403443893
0.0840103725
0.08398910518
0.08397019118
0.08395333705
0.08393831966
0.08392490353
0.08391289932
0.08390215267
0.08389254694
0.08388398078
0.08387636331
0.08386961852
0.08386368492
0.08385851671
0.08385408867
0.08385040665
0.08384753192
0.08384566986
0.08384538112
0.08384699914
0.08384338097
0.08383906186
0.08383499411
0.08383154054
0.08382879813
0.08382680607
0.08382556244
0.08382498757
0.08382478061
0.08382469499
0.08382467177
0.08382468479
0.08382472863
0.08382479439
0.08382488464
0.08382499785
0.08382513384
0.08382529331
0.08382547825
0.08382569307
0.08382592197
0.08382616465
0.08382641433
0.08382666829
0.0838269257
0.08382718629
0.08382744996
0.08382771669
0.08382798647
0.08382825929
0.08382853512
0.08382881392
0.08382909567
0.08382938033
0.08382966785
0.0838299582
0.08383025135
0.08383054723
0.08383084583
0.0838311471
0.083831451
0.0838317575
0.08383206654
0.08383237809
0.08383269211
0.08383300856
0.08383332741
0.0838336486
0.08383397211
0.08383429788
0.08383462588
0.08383495605
0.08383528836
0.08383562274
0.08383595915
0.08383629755
0.08383663787
0.08383698005
0.08383732405
0.08383766981
0.08383801727
0.08383836636
0.08383871703
0.08383906922
0.08383942287
0.08383977792
0.0838401343
0.08384049195
0.08384085083
0.08384121086
0.08384157198
0.08384193414
0.08384229729
0.08384266135
0.08384302628
0.08384339201
0.08384375849
0.08384412567
0.08384449349
0.08384486189
0.08384523081
0.08384560021
0.08384597003
0.0838463402
0.08384671069
0.08384708143
0.08384745237
0.08384782346
0.08384819465
0.08384856588
0.0838489371
0.08384930825
0.08384967929
0.08385005016
0.08385042082
0.08385079119
0.08385116125
0.08385153093
0.08385190018
0.08385226894
0.08385263718
0.08385300483
0.08385337185
0.08385373818
0.08385410377
0.08385446858
0.08385483254
0.08385519562
0.08385555776
0.08385591891
0.08385627902
0.08385663804
0.08385699592
0.08385735261
0.08385770806
0.08385806222
0.08385841505
0.08385876649
0.0838591165
0.08385946502
0.08385981201
0.08386015743
0.08386050122
0.08386084333
0.08386118373
0.08386152236
0.08386185918
0.08386219415
0.08386252722
0.08386285835
0.0838631875
0.08386351462
0.08386383967
0.08386416262
0.08386448344
0.08386480207
0.08386511849
0.08386543266
0.08386574456
0.08386605414
0.08386636138
0.08386666625
0.08386696872
0.08386726877
0.08386756638
0.08386786151
0.08386815416
0.0838684443
0.08386873191
0.08386901698
0.0838692995
0.08386957944
0.08386985681
0.08387013158
0.08387040376
0.08387067334
0.08387094031
0.08387120467
0.08387146642
0.08387172557
0.0838719821
0.08387223604
0.08387248738
0.08387273614
0.08387298232
0.08387322593
0.083873467
0.08387370554
0.08387394157
0.0838741751
0.08387440616
0.08387463478
0.08387486098
0.08387508479
0.08387530626
0.0838755254
0.08387574226
0.08387595687
0.08387616929
0.08387637955
0.08387658771
0.08387679381
0.08387699792
0.08387720008
0.08387740035
0.08387759881
0.08387779552
0.08387799054
0.08387818396
0.08387837584
0.08387856627
0.08387875533
0.08387894311
0.08387912971
0.08387931521
0.08387949973
0.08387968335
0.0838798662
0.08388004839
0.08388023003
0.08388041124
0.08388059216
0.08388077292
0.08388095365
0.0838811345
0.08388131562
0.08388149716
0.08388167929
0.08388186217
0.08388204598
0.08388223089
0.08388241709
0.08388260478
0.08388279416
0.08388298544
0.08388317884
0.08388337458
0.0838835729
0.08388377405
0.08388397826
0.08388418582
0.08388439699
0.08388461206
0.08388483132
0.08388505507
0.08388528365
0.08388551738
0.0838857566
0.08388600168
0.08388625299
0.08388651092
0.08388677586
0.08388704826
0.08388732854
0.08388761716
0.0838879146
0.08388822135
0.08388853794
0.0838888649
0.0838892028
0.08388955222
0.08388991377
0.0838902881
0.08389067586
0.08389107776
0.08389149453
0.08389192691
0.0838923757
0.08389284174
0.08389332587
0.08389382901
0.0838943521
0.08389489612
0.0838954621
0.08389605113
0.08389666433
0.08389730287
0.083897968
0.083898661
0.08389938323
0.0839001361
0.08390092109
0.08390173976
0.08390259374
0.08390348473
0.08390441452
0.08390538501
0.08390639815
0.08390745602
0.0839085608
0.08390971477
0.08391092035
0.08391218007
0.08391349658
0.08391487271
0.08391631142
0.08391781584
0.08391938925
0.08392103517
0.08392275727
0.08392455947
0.08392644591
0.08392842099
0.08393048937
0.08393265601
0.0839349262
0.08393730556
0.08393980013
0.08394241634
0.08394516109
0.08394804177
0.08395106634
0.08395424339
0.08395758216
0.08396109266
0.08396478574
0.08396867322
0.08397276796
0.08397708402
0.08398163681
0.08398644324
0.083991522
0.08399689379
0.0840025816
0.0840086111
0.08401501108
0.08402181398
0.08402905653
0.08403678054
0.08404503391
0.08405387186
0.0840633585
0.08407356882
0.08408459134
0.08409653151
0.08410951624
0.08412370007
0.08413927361
0.08415647544
0.08417560912
0.08419706839
0.08422137532
0.08424924051
0.08428166162
0.084320093
0.0843667559
0.08442524791
0.0845018509
0.08460846772
0.0847711215
7.361541303e-12
7.381960064e-12
7.41834417e-12
7.460828538e-12
7.504679614e-12
7.5493692e-12
7.612437085e-12
7.693264165e-12
7.695936233e-12
7.618231703e-12
7.577211345e-12
7.581942463e-12
7.598004693e-12
7.616405248e-12
7.633951198e-12
7.649693274e-12
7.662934156e-12
7.673443676e-12
7.681323217e-12
7.686355399e-12
7.68858443e-12
7.687571505e-12
7.683122432e-12
7.674243881e-12
7.660209129e-12
7.638889367e-12
7.606763505e-12
7.556116883e-12
7.467659363e-12
7.323209494e-12
7.133895897e-12
7.016688274e-12
6.917385254e-12
6.811550058e-12
6.673786069e-12
6.48025504e-12
6.222614109e-12
5.901615542e-12
5.54640946e-12
5.312167218e-12
5.151334783e-12
5.030115889e-12
4.93425672e-12
4.856569533e-12
4.793108552e-12
4.740459059e-12
4.696410191e-12
4.659742223e-12
4.628847124e-12
4.603103173e-12
4.581252954e-12
4.56309907e-12
4.54754392e-12
4.534642338e-12
4.523416004e-12
4.513710631e-12
4.505404036e-12
4.498180679e-12
4.492343808e-12
4.487161894e-12
4.482446977e-12
4.47854794e-12
4.475126552e-12
4.472399236e-12
4.469930247e-12
4.468022735e-12
4.466037366e-12
4.464011927e-12
4.462480388e-12
4.460919092e-12
4.459812993e-12
4.458709855e-12
4.457922424e-12
4.45689738e-12
4.455717637e-12
4.454788015e-12
4.453819499e-12
4.453183804e-12
4.452349562e-12
4.451297237e-12
4.450502788e-12
4.449540298e-12
4.448367211e-12
4.447515739e-12
4.446664709e-12
4.446179163e-12
4.445552878e-12
4.444859992e-12
4.444842599e-12
4.444926706e-12
4.445492327e-12
4.446274277e-12
4.447581387e-12
4.449019456e-12
4.451037357e-12
4.453199113e-12
4.455956691e-12
4.458858765e-12
4.462313259e-12
4.466014215e-12
4.470298734e-12
4.474686839e-12
4.47950189e-12
4.484561331e-12
4.49026546e-12
4.496176943e-12
4.502336502e-12
4.509240445e-12
4.516428335e-12
4.523948168e-12
4.532347874e-12
4.541054348e-12
4.55023957e-12
4.560396724e-12
4.571166658e-12
4.583000582e-12
4.595545892e-12
4.609138738e-12
4.623653663e-12
4.639283763e-12
4.655619058e-12
4.673059865e-12
4.691067509e-12
4.709718445e-12
4.729367374e-12
4.749563734e-12
4.770726652e-12
4.792243087e-12
4.814386341e-12
4.836998824e-12
4.859596363e-12
4.881396213e-12
4.901378171e-12
4.917423218e-12
4.926162376e-12
4.920158038e-12
4.897497909e-12
4.858217242e-12
4.801414303e-12
4.723614774e-12
4.619432471e-12
4.48530941e-12
4.336113284e-12
4.300648757e-12
4.315695414e-12
4.361284097e-12
4.427013874e-12
4.505607241e-12
4.582688735e-12
4.655353085e-12
4.720191843e-12
4.782337862e-12
4.90994903e-12
5.049869796e-12
5.178810282e-12
5.311864082e-12
5.489557257e-12
5.682709075e-12
5.890187088e-12
6.110304269e-12
6.345062888e-12
6.594200803e-12
6.859606938e-12
7.1458088e-12
7.477729222e-12
7.859331582e-12
8.241274925e-12
8.640533652e-12
9.067270126e-12
9.526589128e-12
1.002222774e-11
1.055756879e-11
1.113552937e-11
1.175754744e-11
1.240669833e-11
1.30850307e-11
1.381123849e-11
1.460132053e-11
1.545689311e-11
1.63942897e-11
1.738757024e-11
1.848885753e-11
2.111838173e-11
2.388871959e-11
2.698640949e-11
3.04346607e-11
3.416871941e-11
3.828771467e-11
4.284308234e-11
4.792942691e-11
5.35608365e-11
5.988883811e-11
6.708142338e-11
7.534702401e-11
9.235988693e-11
1.137258734e-10
1.384270184e-10
1.669820948e-10
2.000911628e-10
2.385286272e-10
3.174146466e-10
4.261477667e-10
5.582702679e-10
7.337741302e-10
1.114072099e-09
1.541073767e-09
2.374103778e-09
3.633886962e-09
6.397523682e-09
1.16056099e-08
2.307249982e-08
5.094598872e-08
1.218742832e-07
3.390322508e-07
1.041865978e-06
3.705595615e-06
1.549928816e-05
7.815193128e-05
0.0004558743406
0.002573431982
0.01086146003
0.02998243248
0.04576149654
0.05758234577
0.06596943636
0.07202057112
0.07641813102
0.07949974719
0.0817338608
0.08330044508
0.08428147824
0.08475903474
0.08481880442
0.08472524853
0.08453270956
0.08433543545
0.08416741214
0.0840371586
0.08394138798
0.08387546158
0.08383655427
0.08381921461
0.08381429709
0.0838173561
0.08382400598
0.08383228801
0.08384065526
0.08384861559
0.08385581245
0.08386216921
0.08386765528
0.08387233931
0.08387629995
0.08387959882
0.08388234671
0.08388469821
0.08388670281
0.08388843377
0.08388993921
0.08389127182
0.08389248122
0.08389361033
0.08389470041
0.08389579064
0.08389692112
0.08389813526
0.08389945794
0.08390091315
0.08390235831
0.08390333196
0.08390260113
0.08390187117
0.08390127145
0.08390097834
0.08390099811
0.08390134218
0.08390186759
0.08390250785
0.08390309934
0.08390361862
0.08390409551
0.0839045434
0.08390497201
0.08390538557
0.08390578879
0.08390618436
0.08390657513
0.08390696418
0.08390729071
0.08390759885
0.08390791769
0.08390823919
0.08390856145
0.08390888381
0.08390920642
0.0839095295
0.08390985332
0.08391017816
0.08391050429
0.08391083189
0.08391116115
0.08391149221
0.08391182518
0.08391216017
0.08391249727
0.08391283654
0.08391317806
0.08391352185
0.08391386798
0.08391421646
0.08391456733
0.08391492061
0.08391527629
0.08391563439
0.08391599491
0.08391635785
0.08391672319
0.08391709092
0.08391746103
0.08391783349
0.08391820829
0.08391858538
0.08391896474
0.08391934633
0.08391973011
0.08392011602
0.08392050403
0.08392089408
0.08392128613
0.0839216801
0.08392207595
0.08392247362
0.08392287303
0.08392327414
0.08392367688
0.08392408117
0.08392448697
0.0839248942
0.08392530279
0.08392571269
0.08392612383
0.08392653614
0.08392694956
0.08392736403
0.08392777948
0.08392819585
0.08392861307
0.08392903109
0.08392944984
0.08392986925
0.08393028928
0.08393070985
0.0839311309
0.08393155237
0.08393197421
0.08393239635
0.08393281872
0.08393324128
0.08393366396
0.0839340867
0.08393450944
0.08393493212
0.08393535469
0.08393577707
0.08393619923
0.08393662108
0.08393704258
0.08393746367
0.08393788428
0.08393830436
0.08393872385
0.08393914269
0.08393956082
0.08393997818
0.08394039473
0.08394081039
0.08394122511
0.08394163884
0.08394205151
0.08394246307
0.08394287346
0.08394328263
0.08394369052
0.08394409707
0.08394450222
0.08394490593
0.08394530813
0.08394570876
0.08394610778
0.08394650513
0.08394690075
0.08394729458
0.08394768658
0.0839480767
0.08394846486
0.08394885104
0.08394923517
0.0839496172
0.08394999708
0.08395037476
0.0839507502
0.08395112335
0.08395149416
0.08395186258
0.08395222858
0.08395259211
0.08395295313
0.0839533116
0.08395366749
0.08395402075
0.08395437135
0.08395471927
0.08395506446
0.08395540691
0.08395574657
0.08395608343
0.08395641747
0.08395674865
0.08395707696
0.08395740238
0.08395772489
0.08395804449
0.08395836115
0.08395867486
0.08395898562
0.08395929342
0.08395959825
0.08395990011
0.083960199
0.08396049492
0.08396078787
0.08396107786
0.0839613649
0.08396164898
0.08396193014
0.08396220837
0.08396248369
0.08396275613
0.08396302571
0.08396329244
0.08396355635
0.08396381747
0.08396407583
0.08396433147
0.08396458442
0.08396483472
0.08396508242
0.08396532755
0.08396557016
0.08396581032
0.08396604806
0.08396628345
0.08396651656
0.08396674743
0.08396697615
0.08396720279
0.08396742741
0.08396765011
0.08396787095
0.08396809004
0.08396830745
0.08396852329
0.08396873766
0.08396895065
0.08396916239
0.08396937297
0.08396958253
0.08396979117
0.08396999904
0.08397020627
0.08397041299
0.08397061935
0.0839708255
0.0839710316
0.08397123781
0.0839714443
0.08397165124
0.08397185882
0.08397206723
0.08397227667
0.08397248733
0.08397269944
0.08397291321
0.08397312887
0.08397334667
0.08397356684
0.08397378965
0.08397401535
0.08397424424
0.08397447659
0.0839747127
0.08397495289
0.08397519748
0.0839754468
0.0839757012
0.08397596104
0.08397622671
0.08397649858
0.08397677708
0.08397706263
0.08397735566
0.08397765663
0.08397796604
0.08397828436
0.08397861213
0.08397894988
0.08397929819
0.08397965762
0.08398002881
0.08398041238
0.08398080901
0.08398121938
0.08398164423
0.08398208431
0.08398254041
0.08398301336
0.08398350401
0.08398401326
0.08398454205
0.08398509136
0.08398566223
0.0839862557
0.08398687292
0.08398751504
0.08398818329
0.08398887895
0.08398960335
0.0839903579
0.08399114407
0.08399196338
0.08399281744
0.08399370794
0.08399463664
0.08399560539
0.08399661613
0.08399767088
0.08399877178
0.08399992107
0.0840011211
0.08400237434
0.08400368338
0.08400505095
0.08400647993
0.08400797333
0.08400953435
0.08401116634
0.08401287284
0.08401465759
0.08401652455
0.08401847789
0.08402052204
0.08402266168
0.08402490178
0.08402724762
0.08402970481
0.08403227934
0.08403497755
0.08403780626
0.08404077272
0.08404388472
0.0840471506
0.08405057935
0.08405418061
0.08405796481
0.08406194321
0.08406612802
0.08407053251
0.08407517111
0.08408005958
0.08408521515
0.08409065678
0.08409640533
0.08410248389
0.08410891808
0.08411573648
0.08412297103
0.0841306577
0.0841388371
0.08414755534
0.08415686512
0.08416682696
0.08417751093
0.08418899863
0.08420138593
0.08421478642
0.08422933596
0.08424519876
0.08426257562
0.08428171519
0.08430292989
0.0843266182
0.08435329785
0.08438365484
0.08441861787
0.08445947337
0.08450804314
0.08456694795
0.08463994204
0.08473199719
0.08484733635
5.984267629e-12
5.998439708e-12
6.023350158e-12
6.054420578e-12
6.088261454e-12
6.123580528e-12
6.162144082e-12
6.19733508e-12
6.205792748e-12
6.184594678e-12
6.167249022e-12
6.164557162e-12
6.169738675e-12
6.177927017e-12
6.186637353e-12
6.19444106e-12
6.200438386e-12
6.204143965e-12
6.205249362e-12
6.203439926e-12
6.198414693e-12
6.189705395e-12
6.176746383e-12
6.158578272e-12
6.133916352e-12
6.100636164e-12
6.05544814e-12
5.993115449e-12
5.906383212e-12
5.792249817e-12
5.662124027e-12
5.54667067e-12
5.435899103e-12
5.316794611e-12
5.175723658e-12
5.001920967e-12
4.793030001e-12
4.556933832e-12
4.318517208e-12
4.125285912e-12
3.974770129e-12
3.855625998e-12
3.759351635e-12
3.680464421e-12
3.615628375e-12
3.561531036e-12
3.516032645e-12
3.477720661e-12
3.445280301e-12
3.417836449e-12
3.394477411e-12
3.374655439e-12
3.357694201e-12
3.343209903e-12
3.330627297e-12
3.319645051e-12
3.31015778e-12
3.301901695e-12
3.294799184e-12
3.288498307e-12
3.282845845e-12
3.277922725e-12
3.273558598e-12
3.269775801e-12
3.266386177e-12
3.263401041e-12
3.260565584e-12
3.257857714e-12
3.255436294e-12
3.253176326e-12
3.251176532e-12
3.249287218e-12
3.247560234e-12
3.245780614e-12
3.24395187e-12
3.242253748e-12
3.240608074e-12
3.239092171e-12
3.237520488e-12
3.235881039e-12
3.234332242e-12
3.232721738e-12
3.231075644e-12
3.229577226e-12
3.228168588e-12
3.226937183e-12
3.225696354e-12
3.224471259e-12
3.222717329e-12
3.221058158e-12
3.21971534e-12
3.218630507e-12
3.217958149e-12
3.217678008e-12
3.217969096e-12
3.21859922e-12
3.219664962e-12
3.221053646e-12
3.22290337e-12
3.225139033e-12
3.227963929e-12
3.231475812e-12
3.23587145e-12
3.240812509e-12
3.246305412e-12
3.252160717e-12
3.258369448e-12
3.26507045e-12
3.27213418e-12
3.279589089e-12
3.287594275e-12
3.296016286e-12
3.304912849e-12
3.314479604e-12
3.324671788e-12
3.335647414e-12
3.347361355e-12
3.359956477e-12
3.373401687e-12
3.387775098e-12
3.402963476e-12
3.41902227e-12
3.435765081e-12
3.453158337e-12
3.471276294e-12
3.489939099e-12
3.509138205e-12
3.528610644e-12
3.548281458e-12
3.567862898e-12
3.586856577e-12
3.604486271e-12
3.619624932e-12
3.630373157e-12
3.634062744e-12
3.627873545e-12
3.61023805e-12
3.5805902e-12
3.537898167e-12
3.481815343e-12
3.413412333e-12
3.337754617e-12
3.271241027e-12
3.249060465e-12
3.261404111e-12
3.29897095e-12
3.354119824e-12
3.420577334e-12
3.491796077e-12
3.565190384e-12
3.640838013e-12
3.72430538e-12
3.832292617e-12
3.953994289e-12
4.078541493e-12
4.204552127e-12
4.343489726e-12
4.494161678e-12
4.655658085e-12
4.858833744e-12
5.074815875e-12
5.305490506e-12
5.553858092e-12
5.824317075e-12
6.124378265e-12
6.453675558e-12
6.800377984e-12
7.166858266e-12
7.557713536e-12
7.97679648e-12
8.427382888e-12
8.912414384e-12
9.434457742e-12
9.995320257e-12
1.059342197e-11
1.123535571e-11
1.192831912e-11
1.268067443e-11
1.349821921e-11
1.438834946e-11
1.535260443e-11
1.640215108e-11
1.755477114e-11
1.910221131e-11
2.238817934e-11
2.602830197e-11
3.004720208e-11
3.451170824e-11
3.949704144e-11
4.507202084e-11
5.124878143e-11
5.823281498e-11
6.618405877e-11
7.527938972e-11
9.380435611e-11
1.195129321e-10
1.497888017e-10
1.855726297e-10
2.275235632e-10
2.887312212e-10
4.120143634e-10
5.638802485e-10
7.482226549e-10
1.206581385e-09
1.816308631e-09
2.975425962e-09
4.800805062e-09
8.948337319e-09
1.725571994e-08
3.552180728e-08
8.041214734e-08
1.928809472e-07
5.312566209e-07
1.607014908e-06
5.305932582e-06
2.023040763e-05
8.705991375e-05
0.0003810334717
0.001572684739
0.005437841894
0.01463682273
0.02905235131
0.04183856204
0.05261253583
0.06121364336
0.06792201488
0.07301594133
0.07678879087
0.07955775718
0.08141455334
0.08259128899
0.08317023516
0.08335581945
0.08336694824
0.0833030207
0.0832531416
0.08323571035
0.08324773994
0.083279509
0.08332423932
0.08337667967
0.08343326805
0.08348734555
0.08354044488
0.08358888224
0.08363335462
0.0836730123
0.083708524
0.08374003187
0.0837680349
0.08379279494
0.08381470145
0.08383408402
0.08385124322
0.08386644454
0.08387989456
0.08389184115
0.0839024629
0.0839119345
0.08392039727
0.08392798267
0.08393479882
0.08394094436
0.08394650017
0.08395153318
0.08395608929
0.08396018711
0.08396380813
0.08396688488
0.08396935259
0.08397129587
0.08397317252
0.08397496744
0.08397674454
0.08397847335
0.08398012801
0.08398164771
0.08398299878
0.08398416486
0.08398519178
0.08398612021
0.08398697322
0.08398776566
0.08398850683
0.08398920411
0.08398986314
0.08399048921
0.08399096598
0.08399137625
0.08399178359
0.08399218708
0.08399258566
0.08399297994
0.08399337054
0.08399375833
0.083994144
0.083994528
0.08399491093
0.08399529338
0.08399567574
0.08399605841
0.08399644171
0.08399682593
0.0839972113
0.08399759804
0.08399798632
0.08399837633
0.08399876819
0.08399916203
0.08399955795
0.08399995604
0.08400035638
0.08400075903
0.08400116406
0.0840015715
0.0840019814
0.08400239377
0.08400280862
0.08400322598
0.08400364584
0.08400406819
0.08400449303
0.08400492032
0.08400535005
0.08400578219
0.08400621669
0.08400665351
0.08400709261
0.08400753393
0.08400797743
0.08400842303
0.08400887069
0.08400932033
0.0840097719
0.08401022532
0.08401068052
0.08401113744
0.08401159601
0.08401205615
0.08401251779
0.08401298087
0.08401344531
0.08401391104
0.08401437799
0.0840148461
0.08401531528
0.08401578548
0.08401625661
0.08401672862
0.08401720144
0.08401767498
0.0840181492
0.084018624
0.08401909934
0.08401957514
0.08402005133
0.08402052785
0.08402100462
0.08402148159
0.08402195867
0.08402243581
0.08402291293
0.08402338998
0.08402386688
0.08402434356
0.08402481997
0.08402529602
0.08402577167
0.08402624683
0.08402672145
0.08402719545
0.08402766878
0.08402814136
0.08402861312
0.08402908401
0.08402955396
0.0840300229
0.08403049077
0.0840309575
0.08403142303
0.0840318873
0.08403235023
0.08403281176
0.08403327184
0.08403373039
0.08403418735
0.08403464267
0.08403509626
0.08403554808
0.08403599806
0.08403644614
0.08403689224
0.08403733632
0.08403777831
0.08403821815
0.08403865578
0.08403909113
0.08403952416
0.0840399548
0.08404038299
0.08404080869
0.08404123183
0.08404165236
0.08404207023
0.08404248538
0.08404289778
0.08404330737
0.0840437141
0.08404411794
0.08404451883
0.08404491675
0.08404531164
0.08404570347
0.08404609221
0.08404647783
0.08404686029
0.08404723956
0.08404761562
0.08404798844
0.084048358
0.08404872428
0.08404908726
0.08404944692
0.08404980326
0.08405015625
0.08405050588
0.08405085216
0.08405119507
0.08405153461
0.08405187078
0.08405220358
0.08405253302
0.0840528591
0.08405318182
0.08405350121
0.08405381727
0.08405413001
0.08405443947
0.08405474565
0.08405504859
0.08405534831
0.08405564484
0.08405593821
0.08405622845
0.08405651562
0.08405679974
0.08405708087
0.08405735905
0.08405763434
0.08405790678
0.08405817644
0.08405844339
0.08405870769
0.0840589694
0.08405922861
0.0840594854
0.08405973984
0.08405999202
0.08406024204
0.08406048999
0.08406073597
0.08406098008
0.08406122244
0.08406146316
0.08406170237
0.08406194018
0.08406217673
0.08406241216
0.0840626466
0.08406288022
0.08406311315
0.08406334556
0.08406357763
0.08406380952
0.08406404141
0.0840642735
0.08406450597
0.08406473904
0.08406497291
0.08406520781
0.08406544395
0.08406568159
0.08406592096
0.08406616231
0.08406640593
0.08406665207
0.08406690103
0.0840671531
0.08406740859
0.08406766783
0.08406793115
0.08406819888
0.0840684714
0.08406874907
0.08406903229
0.08406932146
0.08406961699
0.08406991934
0.08407022894
0.08407054628
0.08407087185
0.08407120615
0.08407154974
0.08407190315
0.08407226697
0.08407264181
0.08407302828
0.08407342706
0.08407383882
0.08407426427
0.08407470416
0.08407515926
0.08407563039
0.08407611838
0.08407662411
0.08407714851
0.08407769254
0.08407825719
0.08407884352
0.08407945261
0.08408008561
0.08408074372
0.08408142818
0.08408214029
0.08408288142
0.084083653
0.08408445651
0.08408529352
0.08408616566
0.08408707463
0.08408802224
0.08408901034
0.08409004091
0.08409111601
0.08409223778
0.08409340849
0.08409463051
0.08409590633
0.08409723856
0.08409862995
0.08410008338
0.08410160187
0.08410318861
0.08410484696
0.08410658045
0.08410839279
0.08411028792
0.08411226996
0.08411434328
0.08411651252
0.08411878253
0.08412115851
0.08412364592
0.08412625059
0.08412897868
0.08413183677
0.08413483183
0.08413797134
0.08414126324
0.08414471606
0.08414833891
0.08415214159
0.08415613461
0.0841603293
0.08416473791
0.08416937364
0.08417425084
0.08417938507
0.0841847933
0.08419049404
0.0841965076
0.08420285624
0.08420956453
0.08421665962
0.08422417169
0.08423213435
0.08424058521
0.08424956655
0.08425912611
0.08426931806
0.08428020423
0.08429185561
0.08430435406
0.08431779477
0.08433228916
0.08434796869
0.08436498965
0.08438353945
0.08440384486
0.08442618018
0.08445088849
0.08447839416
0.08450922709
0.0845440508
0.08458368899
0.08462913402
0.08468147626
0.08474161396
0.0848093213
0.08488071846
4.549703108e-12
4.558953014e-12
4.575066037e-12
4.595526091e-12
4.618063657e-12
4.641034256e-12
4.663079906e-12
4.680238515e-12
4.686350542e-12
4.680858419e-12
4.6733759e-12
4.669438001e-12
4.668748299e-12
4.669780064e-12
4.671194863e-12
4.671978514e-12
4.671375777e-12
4.668852303e-12
4.663995575e-12
4.656409328e-12
4.645693786e-12
4.631351267e-12
4.612756527e-12
4.589037059e-12
4.559028471e-12
4.521103733e-12
4.473094593e-12
4.412320581e-12
4.336513256e-12
4.246120793e-12
4.146714413e-12
4.046790118e-12
3.944488482e-12
3.834290526e-12
3.710132862e-12
3.56806593e-12
3.409091571e-12
3.239522542e-12
3.072925592e-12
2.926384434e-12
2.803483972e-12
2.701562569e-12
2.616842632e-12
2.54603647e-12
2.528074477e-12
2.513606387e-12
2.501305221e-12
2.490828268e-12
2.481878175e-12
2.474220324e-12
2.467644908e-12
2.46199115e-12
2.457104894e-12
2.452867909e-12
2.449159741e-12
2.445898116e-12
2.443032639e-12
2.440501807e-12
2.438261642e-12
2.436249753e-12
2.434430133e-12
2.432792974e-12
2.431308867e-12
2.429964939e-12
2.428730312e-12
2.427591099e-12
2.426513628e-12
2.42548703e-12
2.424520544e-12
2.423601526e-12
2.42273219e-12
2.42189387e-12
2.421081971e-12
2.42027142e-12
2.419460695e-12
2.418667707e-12
2.417887161e-12
2.417122021e-12
2.416351842e-12
2.415574831e-12
2.414805077e-12
2.414030838e-12
2.413257439e-12
2.412506333e-12
2.411775277e-12
2.411068782e-12
2.410366623e-12
2.409664452e-12
2.408959574e-12
2.408283792e-12
2.407669043e-12
2.407121328e-12
2.406658095e-12
2.406056684e-12
2.405188194e-12
2.404392434e-12
2.403682932e-12
2.403054022e-12
2.402521211e-12
2.402083516e-12
2.40176454e-12
2.401569528e-12
2.401512815e-12
2.401574577e-12
2.40176309e-12
2.40203061e-12
2.402368529e-12
2.402787266e-12
2.40327155e-12
2.403824881e-12
2.404466884e-12
2.405188348e-12
2.405997956e-12
2.406919058e-12
2.407950199e-12
2.409122876e-12
2.410446192e-12
2.411942258e-12
2.413610585e-12
2.41546113e-12
2.417480218e-12
2.419666232e-12
2.421990935e-12
2.42443993e-12
2.427007084e-12
2.429656334e-12
2.432362371e-12
2.435074063e-12
2.437753512e-12
2.44032894e-12
2.442686067e-12
2.445040547e-12
2.456192484e-12
2.463652348e-12
2.46529808e-12
2.460677553e-12
2.448827034e-12
2.429435026e-12
2.419871905e-12
2.409366336e-12
2.397989371e-12
2.387057227e-12
2.378863528e-12
2.376117694e-12
2.378816576e-12
2.386103873e-12
2.396991227e-12
2.41284356e-12
2.475390425e-12
2.542880321e-12
2.615737623e-12
2.69664784e-12
2.789704804e-12
2.89252328e-12
3.001692408e-12
3.116742133e-12
3.24043628e-12
3.373285639e-12
3.515384704e-12
3.667078525e-12
3.828320929e-12
4.000470804e-12
4.208373705e-12
4.44547425e-12
4.704130529e-12
4.984455383e-12
5.284400257e-12
5.597348325e-12
5.931746607e-12
6.290384037e-12
6.675765555e-12
7.090323804e-12
7.53649649e-12
8.016624914e-12
8.533113461e-12
9.088831872e-12