/*--------------------------------*- C++ -*----------------------------------*\
| =========                 |                                                 |
| \\      /  F ield         | OpenFOAM: The Open Source CFD Toolbox           |
|  \\    /   O peration     | Version:  v2006                                 |
|   \\  /    A nd           | Website:  www.openfoam.com                      |
|    \\/     M anipulation  |                                                 |
\*---------------------------------------------------------------------------*/
FoamFile
{
    version     2.0;
    format      ascii;
    class       volScalarField;
    location    "0.075";
    object      CH3O;
}
// * * * * * * * * * * * * * * * * * * * * * * * * * * * * * * * * * * * * * //

dimensions      [0 0 0 0 0 0 0];


internalField   nonuniform List<scalar> 
72000
(
1.7195164e-09
1.724427862e-09
1.733681293e-09
1.741969769e-09
1.748655506e-09
1.752081084e-09
1.766568235e-09
1.816890241e-09
1.797345982e-09
1.743690531e-09
1.728833287e-09
1.73575142e-09
1.741518553e-09
1.746442468e-09
1.749814883e-09
1.753806608e-09
1.756884044e-09
1.758523796e-09
1.761176287e-09
1.762476761e-09
1.764490344e-09
1.765230428e-09
1.766297196e-09
1.765994801e-09
1.766218894e-09
1.765607503e-09
1.764286034e-09
1.762274022e-09
1.75081107e-09
1.718565377e-09
1.653751754e-09
1.643049399e-09
1.633342144e-09
1.62308876e-09
1.605912474e-09
1.572448412e-09
1.52176256e-09
1.4497125e-09
1.346918099e-09
1.309954912e-09
1.288745482e-09
1.272521084e-09
1.259553187e-09
1.248578203e-09
1.240155806e-09
1.232908897e-09
1.226637983e-09
1.222025996e-09
1.217546844e-09
1.214606588e-09
1.211238118e-09
1.209380611e-09
1.206792929e-09
1.205624907e-09
1.204067438e-09
1.202711093e-09
1.201836433e-09
1.200530852e-09
1.20026263e-09
1.199668348e-09
1.198636561e-09
1.198479224e-09
1.197770737e-09
1.198068284e-09
1.197345561e-09
1.197555949e-09
1.197221969e-09
1.196700551e-09
1.196818022e-09
1.196184903e-09
1.19652167e-09
1.196259516e-09
1.196438575e-09
1.196194226e-09
1.195905836e-09
1.196054877e-09
1.195508628e-09
1.196020847e-09
1.19580263e-09
1.195457787e-09
1.195499315e-09
1.195451417e-09
1.194743061e-09
1.195094289e-09
1.194713937e-09
1.194941203e-09
1.194860963e-09
1.194410802e-09
1.194694359e-09
1.194053171e-09
1.194374009e-09
1.194138956e-09
1.194760778e-09
1.194380364e-09
1.194946516e-09
1.194636499e-09
1.195384981e-09
1.195311675e-09
1.195725385e-09
1.195860423e-09
1.196498714e-09
1.196607849e-09
1.197298226e-09
1.197274401e-09
1.198275449e-09
1.198620794e-09
1.198678005e-09
1.199711265e-09
1.200267869e-09
1.200502708e-09
1.201649145e-09
1.202281679e-09
1.202972559e-09
1.204293998e-09
1.204995853e-09
1.206512627e-09
1.207762557e-09
1.209412883e-09
1.210893799e-09
1.21312809e-09
1.214711232e-09
1.217137808e-09
1.219105358e-09
1.220934803e-09
1.223513634e-09
1.225685367e-09
1.228743668e-09
1.23102044e-09
1.233637131e-09
1.236724048e-09
1.239892421e-09
1.242766173e-09
1.246072139e-09
1.248541518e-09
1.251073106e-09
1.249543285e-09
1.244511641e-09
1.236456871e-09
1.225167855e-09
1.209669224e-09
1.187840985e-09
1.155280495e-09
1.102902108e-09
1.100263943e-09
1.103311311e-09
1.110048096e-09
1.119162968e-09
1.130908981e-09
1.140931583e-09
1.149419079e-09
1.153773662e-09
1.144949612e-09
1.164279075e-09
1.184625574e-09
1.197803503e-09
1.200656595e-09
1.216722575e-09
1.233194005e-09
1.251002214e-09
1.269065474e-09
1.288016512e-09
1.307299207e-09
1.327243648e-09
1.347793722e-09
1.380876943e-09
1.429350197e-09
1.46644793e-09
1.50196671e-09
1.538751034e-09
1.576985904e-09
1.616838087e-09
1.658366163e-09
1.701387394e-09
1.745098247e-09
1.787156279e-09
1.828641787e-09
1.87358854e-09
1.930164624e-09
2.016488715e-09
2.135044719e-09
2.237578516e-09
2.331964522e-09
2.451567743e-09
2.560739073e-09
2.685465109e-09
2.822435018e-09
2.965018568e-09
3.121684627e-09
3.290466486e-09
3.477074856e-09
3.674853765e-09
3.886654983e-09
4.120366093e-09
4.451757757e-09
4.854219328e-09
5.28305126e-09
5.748866327e-09
6.276051324e-09
6.837135603e-09
7.443363818e-09
8.171104997e-09
9.122123186e-09
1.018932616e-08
1.131482811e-08
1.257859162e-08
1.406683323e-08
1.572297829e-08
1.762963046e-08
1.99937937e-08
2.293575744e-08
2.655755152e-08
3.136683313e-08
3.770484625e-08
4.625554727e-08
5.802794213e-08
7.484221284e-08
9.943722268e-08
1.375323608e-07
2.039740187e-07
3.730898851e-07
2.160169663e-06
3.076457553e-05
2.061849221e-05
1.487031494e-05
1.112318173e-05
7.965128871e-06
5.555537166e-06
3.747735598e-06
2.496612308e-06
1.62135694e-06
1.044557478e-06
7.033268317e-07
5.154011295e-07
3.81477141e-07
2.968758499e-07
2.409148013e-07
1.981331876e-07
1.644276751e-07
1.373572376e-07
1.153928072e-07
9.743826982e-08
8.241796446e-08
6.956675178e-08
5.890628645e-08
5.014586779e-08
4.292110115e-08
3.692133924e-08
3.190099554e-08
2.767000696e-08
2.408027655e-08
2.101612083e-08
1.838641746e-08
1.611882095e-08
1.415501983e-08
1.244773207e-08
1.095856841e-08
9.655811383e-09
8.513115085e-09
7.508425626e-09
6.623195535e-09
5.841746737e-09
5.150741133e-09
4.538770314e-09
3.996032268e-09
3.5140566e-09
3.085466064e-09
2.703713632e-09
2.36236153e-09
2.05879829e-09
1.792251464e-09
1.55864533e-09
1.347923522e-09
1.158728672e-09
9.893962423e-10
8.385115359e-10
7.050049935e-10
5.890260014e-10
4.948483847e-10
4.212160735e-10
3.594529052e-10
3.057129593e-10
2.582805348e-10
2.161458795e-10
1.786441983e-10
1.452353327e-10
1.154817263e-10
8.898504533e-11
6.539449765e-11
4.437024775e-11
2.558087256e-11
2.444492267e-11
2.395342313e-11
2.351367665e-11
2.311918422e-11
2.276468364e-11
2.244585408e-11
2.215892166e-11
2.190058897e-11
2.166799638e-11
2.145856513e-11
2.126997661e-11
2.110014695e-11
2.094720336e-11
2.080946319e-11
2.068541264e-11
2.057368584e-11
2.047305222e-11
2.038240554e-11
2.030075346e-11
2.022720643e-11
2.016096685e-11
2.010131249e-11
2.004758303e-11
1.99991885e-11
1.995560126e-11
1.991634774e-11
1.988100173e-11
1.984917924e-11
1.982053431e-11
1.979475561e-11
1.977156327e-11
1.975070566e-11
1.97319564e-11
1.971511155e-11
1.969998726e-11
1.968641771e-11
1.967425331e-11
1.966335924e-11
1.965361411e-11
1.964490877e-11
1.963714504e-11
1.96302346e-11
1.962409796e-11
1.961866354e-11
1.961386671e-11
1.960964916e-11
1.960595822e-11
1.960274628e-11
1.959997029e-11
1.959759134e-11
1.95955742e-11
1.959388705e-11
1.959250113e-11
1.959139045e-11
1.959053152e-11
1.95899031e-11
1.958948606e-11
1.958926306e-11
1.958921844e-11
1.958933806e-11
1.958960907e-11
1.959001984e-11
1.959055967e-11
1.959121845e-11
1.959198601e-11
1.959285226e-11
1.959381179e-11
1.959485882e-11
1.95959878e-11
1.959719275e-11
1.959846877e-11
1.959981106e-11
1.960121522e-11
1.960267726e-11
1.960419358e-11
1.960576109e-11
1.960737718e-11
1.960903959e-11
1.96107454e-11
1.961249099e-11
1.961427329e-11
1.961608958e-11
1.961793742e-11
1.961981454e-11
1.962171878e-11
1.962364806e-11
1.962560041e-11
1.962757385e-11
1.962956651e-11
1.963157652e-11
1.963360205e-11
1.963564131e-11
1.963769254e-11
1.963975395e-11
1.96418238e-11
1.964390037e-11
1.964598192e-11
1.964806669e-11
1.965015294e-11
1.965223892e-11
1.965432289e-11
1.965640311e-11
1.965847777e-11
1.966054508e-11
1.966260323e-11
1.966465042e-11
1.966668474e-11
1.966870431e-11
1.967070715e-11
1.967269131e-11
1.967465475e-11
1.967659537e-11
1.967851102e-11
1.968039956e-11
1.968225881e-11
1.968408661e-11
1.968588078e-11
1.968763925e-11
1.96893599e-11
1.969104073e-11
1.969267976e-11
1.96942751e-11
1.969582478e-11
1.969732692e-11
1.969877953e-11
1.970018068e-11
1.970152832e-11
1.970282038e-11
1.970405477e-11
1.970522942e-11
1.970634211e-11
1.97073908e-11
1.970837248e-11
1.970928652e-11
1.971012946e-11
1.971089943e-11
1.971159418e-11
1.971221147e-11
1.971274912e-11
1.971320496e-11
1.971357685e-11
1.971386274e-11
1.971406065e-11
1.971416868e-11
1.971418495e-11
1.97141076e-11
1.971393482e-11
1.971366483e-11
1.971329576e-11
1.971282581e-11
1.971225304e-11
1.971157546e-11
1.971079097e-11
1.970989749e-11
1.970889293e-11
1.970777298e-11
1.970653928e-11
1.970518614e-11
1.970371183e-11
1.97021135e-11
1.970038849e-11
1.969853492e-11
1.969654995e-11
1.969443634e-11
1.969218792e-11
1.968980348e-11
1.96872809e-11
1.968461794e-11
1.968181246e-11
1.96788629e-11
1.967576625e-11
1.967252035e-11
1.966912297e-11
1.966557192e-11
1.966186498e-11
1.965799977e-11
1.9653974e-11
1.964978507e-11
1.964543017e-11
1.964090709e-11
1.963621341e-11
1.963134673e-11
1.962630451e-11
1.962108422e-11
1.96156833e-11
1.96100991e-11
1.960432897e-11
1.959837023e-11
1.959222014e-11
1.95858759e-11
1.957933471e-11
1.957259364e-11
1.956564973e-11
1.955849998e-11
1.955114127e-11
1.954357046e-11
1.95357843e-11
1.952777946e-11
1.95195525e-11
1.951109991e-11
1.950241801e-11
1.949350311e-11
1.948435125e-11
1.947495845e-11
1.946532047e-11
1.945543296e-11
1.944529141e-11
1.943489105e-11
1.942422702e-11
1.941329422e-11
1.940208732e-11
1.939060081e-11
1.937882897e-11
1.936676584e-11
1.935440521e-11
1.934174066e-11
1.932876546e-11
1.931547264e-11
1.930185499e-11
1.928790506e-11
1.927361515e-11
1.92589773e-11
1.924398339e-11
1.922862509e-11
1.921289381e-11
1.919678081e-11
1.918027689e-11
1.916337252e-11
1.914605763e-11
1.912832152e-11
1.911015275e-11
1.90915392e-11
1.907246799e-11
1.905292549e-11
1.903289724e-11
1.901236755e-11
1.89913191e-11
1.896973587e-11
1.894759864e-11
1.892488702e-11
1.89015789e-11
1.887764895e-11
1.88530718e-11
1.8827819e-11
1.880185962e-11
1.877516068e-11
1.874768853e-11
1.871940056e-11
1.869025959e-11
1.866022313e-11
1.862924616e-11
1.859728119e-11
1.85642781e-11
1.853018367e-11
1.849494138e-11
1.845849087e-11
1.84207707e-11
1.838170762e-11
1.834123064e-11
1.829925974e-11
1.825571128e-11
1.821051213e-11
1.816354989e-11
1.811471482e-11
1.806389337e-11
1.801096205e-11
1.795578508e-11
1.789821233e-11
1.783807785e-11
1.777519895e-11
1.770937549e-11
1.76403899e-11
1.756800681e-11
1.749197267e-11
1.74120113e-11
1.732779568e-11
1.723904434e-11
1.714544089e-11
1.704661248e-11
1.69421387e-11
1.683156087e-11
1.671436953e-11
1.658999797e-11
1.645781826e-11
1.631713613e-11
1.61671886e-11
1.600716329e-11
1.583616401e-11
1.565320028e-11
1.545717278e-11
1.524685986e-11
1.502090727e-11
1.477781895e-11
1.451596773e-11
1.423360883e-11
1.392888191e-11
1.359984115e-11
1.324453742e-11
1.286117063e-11
1.244835081e-11
1.20053604e-11
1.15332583e-11
1.10357659e-11
1.052201485e-11
1.001008274e-11
9.535115221e-12
9.151845365e-12
8.927065132e-12
1.241058482e-10
3.271038962e-10
1.494240969e-09
1.497043997e-09
1.501957683e-09
1.507385067e-09
1.512545554e-09
1.517365582e-09
1.524638329e-09
1.534332128e-09
1.532053634e-09
1.518037245e-09
1.510068415e-09
1.509382923e-09
1.510628207e-09
1.512386275e-09
1.514144925e-09
1.515742679e-09
1.517060099e-09
1.518051659e-09
1.518723248e-09
1.519035251e-09
1.518990265e-09
1.518519893e-09
1.517595423e-09
1.516069114e-09
1.51383842e-09
1.5105956e-09
1.505825923e-09
1.49838896e-09
1.485387315e-09
1.464067809e-09
1.436076389e-09
1.419030483e-09
1.404694565e-09
1.389415058e-09
1.369407374e-09
1.341124762e-09
1.303331316e-09
1.256109577e-09
1.203798062e-09
1.169691e-09
1.146465774e-09
1.129019906e-09
1.115240365e-09
1.104075402e-09
1.094953122e-09
1.087379662e-09
1.081036909e-09
1.07575082e-09
1.071290085e-09
1.067566811e-09
1.064399781e-09
1.061762189e-09
1.059495113e-09
1.057608352e-09
1.055960356e-09
1.054529923e-09
1.053298013e-09
1.052220481e-09
1.051342303e-09
1.050557468e-09
1.049838641e-09
1.049236041e-09
1.048701653e-09
1.048266192e-09
1.047867329e-09
1.047548889e-09
1.047218275e-09
1.046881102e-09
1.046615051e-09
1.046343507e-09
1.046137079e-09
1.045930382e-09
1.045768668e-09
1.045571813e-09
1.045352065e-09
1.045167508e-09
1.044976745e-09
1.044833329e-09
1.044660832e-09
1.044456043e-09
1.044287858e-09
1.044094864e-09
1.043870646e-09
1.043691633e-09
1.043511877e-09
1.043383819e-09
1.04323437e-09
1.043074041e-09
1.043009641e-09
1.042958322e-09
1.042974484e-09
1.043020717e-09
1.04314076e-09
1.043277982e-09
1.04349668e-09
1.043734055e-09
1.044055096e-09
1.044394588e-09
1.044810983e-09
1.045260402e-09
1.045790875e-09
1.046284579e-09
1.04676592e-09
1.047273695e-09
1.047871844e-09
1.048489893e-09
1.049133308e-09
1.049880726e-09
1.050657809e-09
1.051470854e-09
1.052406087e-09
1.053372124e-09
1.054393103e-09
1.055547138e-09
1.056774777e-09
1.058146647e-09
1.059604714e-09
1.06120309e-09
1.062917143e-09
1.064779931e-09
1.066725312e-09
1.068816987e-09
1.07096875e-09
1.073190779e-09
1.075540415e-09
1.0779444e-09
1.080468293e-09
1.083015154e-09
1.085630381e-09
1.088291111e-09
1.090926986e-09
1.093425573e-09
1.095641554e-09
1.097272846e-09
1.09783644e-09
1.096260245e-09
1.092275758e-09
1.085894358e-09
1.076985801e-09
1.065049011e-09
1.049305366e-09
1.029235653e-09
1.006991696e-09
1.001004359e-09
1.002043762e-09
1.007188818e-09
1.014907794e-09
1.024102326e-09
1.032646936e-09
1.040116423e-09
1.046036157e-09
1.051193085e-09
1.065543028e-09
1.080880219e-09
1.094123543e-09
1.105290026e-09
1.120921141e-09
1.138095052e-09
1.156496235e-09
1.175824615e-09
1.196313494e-09
1.217945062e-09
1.241124319e-09
1.266853075e-09
1.299237978e-09
1.338346988e-09
1.37529349e-09
1.4118094e-09
1.449154454e-09
1.487868785e-09
1.528208382e-09
1.57027237e-09
1.613984207e-09
1.658992472e-09
1.702382703e-09
1.745023696e-09
1.791058987e-09
1.843919423e-09
1.903363463e-09
1.969487419e-09
2.034405789e-09
2.101132228e-09
2.224002201e-09
2.347718898e-09
2.484499947e-09
2.634289779e-09
2.786112252e-09
2.942806841e-09
3.108392015e-09
3.290581558e-09
3.488179303e-09
3.704095896e-09
3.935885745e-09
4.188114615e-09
4.548087362e-09
4.958922578e-09
5.408630954e-09
5.896278926e-09
6.431474827e-09
7.01479916e-09
7.792075066e-09
8.717159996e-09
9.744543233e-09
1.091124398e-08
1.245027079e-08
1.399360939e-08
1.593001732e-08
1.821391604e-08
2.113359759e-08
2.479481313e-08
2.952803934e-08
3.58283729e-08
4.439397641e-08
5.67460859e-08
7.587294067e-08
1.1012207e-07
1.885507656e-07
4.702439996e-07
2.114018529e-06
1.090137876e-05
2.625857047e-05
2.724035239e-05
1.94067153e-05
1.57006493e-05
1.210049158e-05
8.833468098e-06
6.327851134e-06
4.534987501e-06
3.305131593e-06
2.410738954e-06
1.802850055e-06
1.376844898e-06
1.057586152e-06
8.275667364e-07
6.569477351e-07
5.287785444e-07
4.311333031e-07
3.55062383e-07
2.949445131e-07
2.469197364e-07
2.080082456e-07
1.763589366e-07
1.504031467e-07
1.289763399e-07
1.111565233e-07
9.622281444e-08
8.361504218e-08
7.289899926e-08
6.3736518e-08
5.586089475e-08
4.905994886e-08
4.316294464e-08
3.803140931e-08
3.355189439e-08
2.96303657e-08
2.618845444e-08
2.316072458e-08
2.049187195e-08
1.813521037e-08
1.605086472e-08
1.420468174e-08
1.256732748e-08
1.11134664e-08
9.821167404e-09
8.671375256e-09
7.647501998e-09
6.735199188e-09
5.922097928e-09
5.199362009e-09
4.559185993e-09
3.989836023e-09
3.476851663e-09
3.016746564e-09
2.604894539e-09
2.237502173e-09
1.911158293e-09
1.624274072e-09
1.375933526e-09
1.163139521e-09
9.786403275e-10
8.163668073e-10
6.725357879e-10
5.44561702e-10
4.305388393e-10
3.289191163e-10
2.383862091e-10
1.577848346e-10
8.604103557e-11
6.348460205e-11
6.161039614e-11
5.993171171e-11
5.842912178e-11
5.708054815e-11
5.586829526e-11
5.477731526e-11
5.37949566e-11
5.290980005e-11
5.211178697e-11
5.139229741e-11
5.074344492e-11
5.015814384e-11
4.963002664e-11
4.915337135e-11
4.872303948e-11
4.833441121e-11
4.798331266e-11
4.766598234e-11
4.737903922e-11
4.711945191e-11
4.688450348e-11
4.667176422e-11
4.647903356e-11
4.630428103e-11
4.614570691e-11
4.600170203e-11
4.587082148e-11
4.57517644e-11
4.564335819e-11
4.554454618e-11
4.545437774e-11
4.537199842e-11
4.52966406e-11
4.522761381e-11
4.516429631e-11
4.510612763e-11
4.505260245e-11
4.500326504e-11
4.495770505e-11
4.491555313e-11
4.487647758e-11
4.484018031e-11
4.480639367e-11
4.477487704e-11
4.474541387e-11
4.471780915e-11
4.469188703e-11
4.466748905e-11
4.464447216e-11
4.462270731e-11
4.460207798e-11
4.458247906e-11
4.456381564e-11
4.454600224e-11
4.452896185e-11
4.451262506e-11
4.449692934e-11
4.448181849e-11
4.446724183e-11
4.445315381e-11
4.443951345e-11
4.442628373e-11
4.441343132e-11
4.440092606e-11
4.438873983e-11
4.437684394e-11
4.436520549e-11
4.435381458e-11
4.434265527e-11
4.433171154e-11
4.432096834e-11
4.431041203e-11
4.430003012e-11
4.428981129e-11
4.427974535e-11
4.426982331e-11
4.426003765e-11
4.425038259e-11
4.424085409e-11
4.423144561e-11
4.422214722e-11
4.421295152e-11
4.420385254e-11
4.419484503e-11
4.418592419e-11
4.417708553e-11
4.416832486e-11
4.415963814e-11
4.415102155e-11
4.414247147e-11
4.413398428e-11
4.412555655e-11
4.411718492e-11
4.410886612e-11
4.410059693e-11
4.409237409e-11
4.408419454e-11
4.407605513e-11
4.406795267e-11
4.405988413e-11
4.405184637e-11
4.404383627e-11
4.403585074e-11
4.40278866e-11
4.40199406e-11
4.401200964e-11
4.400409036e-11
4.399617943e-11
4.398827335e-11
4.398036848e-11
4.397246114e-11
4.396454739e-11
4.395662322e-11
4.394868438e-11
4.394072655e-11
4.393274537e-11
4.392473641e-11
4.391669531e-11
4.39086178e-11
4.39004996e-11
4.389233672e-11
4.388412518e-11
4.387586115e-11
4.386754078e-11
4.385916008e-11
4.385071504e-11
4.384220144e-11
4.383361485e-11
4.382495066e-11
4.381620415e-11
4.380737037e-11
4.379844427e-11
4.378942062e-11
4.378029405e-11
4.377105947e-11
4.376171113e-11
4.375224342e-11
4.374265057e-11
4.373292687e-11
4.372306657e-11
4.3713064e-11
4.370291351e-11
4.369260959e-11
4.36821469e-11
4.367152028e-11
4.366072456e-11
4.364975467e-11
4.363860552e-11
4.362727194e-11
4.361574867e-11
4.36040303e-11
4.359211112e-11
4.357998511e-11
4.356764578e-11
4.355508635e-11
4.354229969e-11
4.352927817e-11
4.351601493e-11
4.350250128e-11
4.348872868e-11
4.347468727e-11
4.346036759e-11
4.344576526e-11
4.343086216e-11
4.341568128e-11
4.340018895e-11
4.338438529e-11
4.336826146e-11
4.335180874e-11
4.33350182e-11
4.331788516e-11
4.330039629e-11
4.328254338e-11
4.326431709e-11
4.324570821e-11
4.322670743e-11
4.320730421e-11
4.318748915e-11
4.316725082e-11
4.314657631e-11
4.312545634e-11
4.310387935e-11
4.308183403e-11
4.305930856e-11
4.303629079e-11
4.301276824e-11
4.298872816e-11
4.296415737e-11
4.293904241e-11
4.291336949e-11
4.288712432e-11
4.286029231e-11
4.283285834e-11
4.28048069e-11
4.277612199e-11
4.274678706e-11
4.271678518e-11
4.26860987e-11
4.265470946e-11
4.262259869e-11
4.258974697e-11
4.255613419e-11
4.252173947e-11
4.248654114e-11
4.245051672e-11
4.241364278e-11
4.237589497e-11
4.233724798e-11
4.229767533e-11
4.225714964e-11
4.221564228e-11
4.217312352e-11
4.212956238e-11
4.208492667e-11
4.203918281e-11
4.199229588e-11
4.194422951e-11
4.189494572e-11
4.184440509e-11
4.179256657e-11
4.173938752e-11
4.168482371e-11
4.162882926e-11
4.157135678e-11
4.151235721e-11
4.145177987e-11
4.138957218e-11
4.132567947e-11
4.126004466e-11
4.119260765e-11
4.112330518e-11
4.10520704e-11
4.097883274e-11
4.090351784e-11
4.082604751e-11
4.074633976e-11
4.066430688e-11
4.05798511e-11
4.049288406e-11
4.040329924e-11
4.03109869e-11
4.021583111e-11
4.011769843e-11
4.001645944e-11
3.991196906e-11
3.980407204e-11
3.969260291e-11
3.957740179e-11
3.945825393e-11
3.933498392e-11
3.920738301e-11
3.907523378e-11
3.89383076e-11
3.87963635e-11
3.864914713e-11
3.849638952e-11
3.833780585e-11
3.81730943e-11
3.800193252e-11
3.78239779e-11
3.763886195e-11
3.744618457e-11
3.724549912e-11
3.703638571e-11
3.681838489e-11
3.659099504e-11
3.635367225e-11
3.610582464e-11
3.584680628e-11
3.557591175e-11
3.529237221e-11
3.499535305e-11
3.468395261e-11
3.435720157e-11
3.401406312e-11
3.365343849e-11
3.327419206e-11
3.287501337e-11
3.245457455e-11
3.201136899e-11
3.1543723e-11
3.104984435e-11
3.052775518e-11
2.99752746e-11
2.939000898e-11
2.87693326e-11
2.811036219e-11
2.741008942e-11
2.666520525e-11
2.587209921e-11
2.502681849e-11
2.412503668e-11
2.316204534e-11
2.213273662e-11
2.103169745e-11
1.985333248e-11
1.859193147e-11
1.724188711e-11
1.579815535e-11
1.42570251e-11
1.261736515e-11
1.088236972e-11
9.06296585e-12
7.183782445e-12
5.2924629e-12
3.471745081e-12
1.876566352e-12
1.246013796e-12
1.283105009e-12
1.329881906e-12
2.207381556e-12
1.253816001e-09
1.255558374e-09
1.258562707e-09
1.262153469e-09
1.265832821e-09
1.2694304e-09
1.273251074e-09
1.276420613e-09
1.275744252e-09
1.271000955e-09
1.267025477e-09
1.265335993e-09
1.264922674e-09
1.265063291e-09
1.265384546e-09
1.265672197e-09
1.265786789e-09
1.26565122e-09
1.265217026e-09
1.264433542e-09
1.263256066e-09
1.261615448e-09
1.25943302e-09
1.256574023e-09
1.252862887e-09
1.248006777e-09
1.241551929e-09
1.232769881e-09
1.220642591e-09
1.204742491e-09
1.186662837e-09
1.170702406e-09
1.155438504e-09
1.139048253e-09
1.119630755e-09
1.095689247e-09
1.066898087e-09
1.034349599e-09
1.001512434e-09
9.750084544e-10
9.544317019e-10
9.381637425e-10
9.250137487e-10
9.142241462e-10
9.053420905e-10
8.979084061e-10
8.916313986e-10
8.863232405e-10
8.818036707e-10
8.779572085e-10
8.746579445e-10
8.71834819e-10
8.693938727e-10
8.672855832e-10
8.654284102e-10
8.637819565e-10
8.623359678e-10
8.610528396e-10
8.599243499e-10
8.588989806e-10
8.579559572e-10
8.571102251e-10
8.563365776e-10
8.556405706e-10
8.549941049e-10
8.544008522e-10
8.53822334e-10
8.532558083e-10
8.52726481e-10
8.522151108e-10
8.517376179e-10
8.512710496e-10
8.508244987e-10
8.503649172e-10
8.498929181e-10
8.494366242e-10
8.489833046e-10
8.485454094e-10
8.480939214e-10
8.47627243e-10
8.471700015e-10
8.466979888e-10
8.46214694e-10
8.457483543e-10
8.452887781e-10
8.448495698e-10
8.444013469e-10
8.439472645e-10
8.432189806e-10
8.424767743e-10
8.417699143e-10
8.410843695e-10
8.404455515e-10
8.398444532e-10
8.393100015e-10
8.388051045e-10
8.383478552e-10
8.379170987e-10
8.375362316e-10
8.371890819e-10
8.36907711e-10
8.366980231e-10
8.365914075e-10
8.365379176e-10
8.365434163e-10
8.365734733e-10
8.366269185e-10
8.367291596e-10
8.36854771e-10
8.370068124e-10
8.372128792e-10
8.374462965e-10
8.377138194e-10
8.380488541e-10
8.384389034e-10
8.389091953e-10
8.394463972e-10
8.40073595e-10
8.407793391e-10
8.415783154e-10
8.424477467e-10
8.433979215e-10
8.443935717e-10
8.454284502e-10
8.465186217e-10
8.476327483e-10
8.487728548e-10
8.498967548e-10
8.510016844e-10
8.520510738e-10
8.529784349e-10
8.536803865e-10
8.540090728e-10
8.537157694e-10
8.524529558e-10
8.498513949e-10
8.457107144e-10
8.399625578e-10
8.320686126e-10
8.220952874e-10
8.104621314e-10
7.978250508e-10
7.863019662e-10
7.804002325e-10
7.787468097e-10
7.800752173e-10
7.833366477e-10
7.876915288e-10
7.922679411e-10
7.967157824e-10
8.010477763e-10
8.06003688e-10
8.137427732e-10
8.22829089e-10
8.318349121e-10
8.405846496e-10
8.505251142e-10
8.614716775e-10
8.732826146e-10
8.869247093e-10
9.001433161e-10
9.141111467e-10
9.293369384e-10
9.464076575e-10
9.662366032e-10
9.883803468e-10
1.010657751e-09
1.032887312e-09
1.055323386e-09
1.078175766e-09
1.101563844e-09
1.125527823e-09
1.150034555e-09
1.174953519e-09
1.197826611e-09
1.221289713e-09
1.246317263e-09
1.273831506e-09
1.303806593e-09
1.335713595e-09
1.367992808e-09
1.401006225e-09
1.436288758e-09
1.478197373e-09
1.560633375e-09
1.646072302e-09
1.732894306e-09
1.821254553e-09
1.911821816e-09
2.005620307e-09
2.100664401e-09
2.19740559e-09
2.294154987e-09
2.389964902e-09
2.552303537e-09
2.753940886e-09
2.954953415e-09
3.151855046e-09
3.345554838e-09
3.585073534e-09
3.938296313e-09
4.271971485e-09
4.638265049e-09
5.175184074e-09
5.727125914e-09
6.40667852e-09
7.110777535e-09
8.176537806e-09
9.385091996e-09
1.10963027e-08
1.327895135e-08
1.65203491e-08
2.124203238e-08
2.89610194e-08
4.275172115e-08
7.541286865e-08
1.863913478e-07
6.999386393e-07
3.014191794e-06
9.277393632e-06
1.721480625e-05
1.994845919e-05
1.896702991e-05
1.722025741e-05
1.449962483e-05
1.134753137e-05
8.571960903e-06
6.249840728e-06
4.622857773e-06
3.597165018e-06
2.80749929e-06
2.164578724e-06
1.668415527e-06
1.297977168e-06
1.022386667e-06
8.169047419e-07
6.61584429e-07
5.429698376e-07
4.509274806e-07
3.782804441e-07
3.200779232e-07
2.72843905e-07
2.339790878e-07
2.017476227e-07
1.747426094e-07
1.519465119e-07
1.325639039e-07
1.159831326e-07
1.017225594e-07
8.940017495e-08
7.870869916e-08
6.939865513e-08
6.126594281e-08
5.41419122e-08
4.788592106e-08
4.238024148e-08
3.752523221e-08
3.323649253e-08
2.944187815e-08
2.607979992e-08
2.30971866e-08
2.044834217e-08
1.809359482e-08
1.599853039e-08
1.413317618e-08
1.247146659e-08
1.099075982e-08
9.67152394e-09
8.496771266e-09
7.450062238e-09
6.513780295e-09
5.673982325e-09
4.922624778e-09
4.251509346e-09
3.653836514e-09
3.123531275e-09
2.655568761e-09
2.244946541e-09
1.885190962e-09
1.568217346e-09
1.287187578e-09
1.037123554e-09
8.142218458e-10
6.154368226e-10
4.381951198e-10
2.802604099e-10
1.396439679e-10
9.407647557e-11
9.050924222e-11
8.730670485e-11
8.443247705e-11
8.185078892e-11
7.952877577e-11
7.743856038e-11
7.555545568e-11
7.385886016e-11
7.232911917e-11
7.094866628e-11
6.97031816e-11
6.857898116e-11
6.756387683e-11
6.664691066e-11
6.581823753e-11
6.506902334e-11
6.439135064e-11
6.377803812e-11
6.322260834e-11
6.271923667e-11
6.226270641e-11
6.184833857e-11
6.147189644e-11
6.112956434e-11
6.081795659e-11
6.053399406e-11
6.027491141e-11
6.003822563e-11
5.982169981e-11
5.962331584e-11
5.944125373e-11
5.927387555e-11
5.911971016e-11
5.89774368e-11
5.884586864e-11
5.872393721e-11
5.861067949e-11
5.85052273e-11
5.840679775e-11
5.831468563e-11
5.822825678e-11
5.814694193e-11
5.807023032e-11
5.79976639e-11
5.792883144e-11
5.786336347e-11
5.780092758e-11
5.774122464e-11
5.768398534e-11
5.762896713e-11
5.757595143e-11
5.752474116e-11
5.747515882e-11
5.742704454e-11
5.738025451e-11
5.733465939e-11
5.729014299e-11
5.724660095e-11
5.720393965e-11
5.716207508e-11
5.71209318e-11
5.708044224e-11
5.70405458e-11
5.700118816e-11
5.696232085e-11
5.692390117e-11
5.688589357e-11
5.684827126e-11
5.681098853e-11
5.677401451e-11
5.673732351e-11
5.670089228e-11
5.66647002e-11
5.662872869e-11
5.659296116e-11
5.65573827e-11
5.652198027e-11
5.64867428e-11
5.645166262e-11
5.641673917e-11
5.63819669e-11
5.634732694e-11
5.631280986e-11
5.627840893e-11
5.624411828e-11
5.620993282e-11
5.617584791e-11
5.614185935e-11
5.610796338e-11
5.607415651e-11
5.604043552e-11
5.600679749e-11
5.597323968e-11
5.593975949e-11
5.590635457e-11
5.587302261e-11
5.58397615e-11
5.580656922e-11
5.577344381e-11
5.574038337e-11
5.570738615e-11
5.56744504e-11
5.564157447e-11
5.560875675e-11
5.55759956e-11
5.554328942e-11
5.551063676e-11
5.547803595e-11
5.544548531e-11
5.541298311e-11
5.538052736e-11
5.534811596e-11
5.531574654e-11
5.528341638e-11
5.525112266e-11
5.521886223e-11
5.51866318e-11
5.5154428e-11
5.512224753e-11
5.509008721e-11
5.505794388e-11
5.502581471e-11
5.499369699e-11
5.496158816e-11
5.492948567e-11
5.48973868e-11
5.486528855e-11
5.483318763e-11
5.480108034e-11
5.476896244e-11
5.473682949e-11
5.470467662e-11
5.467249867e-11
5.464029032e-11
5.460804585e-11
5.457575941e-11
5.454342466e-11
5.451103502e-11
5.447858374e-11
5.444606385e-11
5.441346835e-11
5.438079015e-11
5.434802224e-11
5.431515781e-11
5.428219019e-11
5.424911287e-11
5.421591947e-11
5.41826036e-11
5.414915883e-11
5.41155785e-11
5.408185573e-11
5.404798332e-11
5.401395357e-11
5.39797581e-11
5.394538775e-11
5.391083256e-11
5.387608172e-11
5.384112411e-11
5.380594838e-11
5.377054238e-11
5.373489312e-11
5.369898371e-11
5.366279193e-11
5.362631692e-11
5.358954861e-11
5.35524797e-11
5.351509109e-11
5.347737143e-11
5.343930662e-11
5.34008818e-11
5.336207344e-11
5.33228889e-11
5.328329226e-11
5.324327275e-11
5.320281269e-11
5.316189472e-11
5.31205036e-11
5.307861704e-11
5.303621991e-11
5.29932923e-11
5.29498038e-11
5.290574143e-11
5.286108095e-11
5.281580104e-11
5.27698784e-11
5.272328912e-11
5.267600855e-11
5.262801132e-11
5.257927119e-11
5.252976117e-11
5.247945332e-11
5.24283189e-11
5.237632808e-11
5.232345015e-11
5.226965323e-11
5.221490449e-11
5.215916993e-11
5.210241436e-11
5.204460137e-11
5.198569323e-11
5.192565087e-11
5.186443382e-11
5.180200005e-11
5.173830591e-11
5.167330614e-11
5.16069536e-11
5.153919923e-11
5.146999197e-11
5.139927865e-11
5.132700384e-11
5.125310986e-11
5.117753664e-11
5.11002216e-11
5.102109969e-11
5.09401031e-11
5.085716119e-11
5.077220033e-11
5.068514388e-11
5.059591181e-11
5.050442088e-11
5.04105843e-11
5.031431183e-11
5.021550977e-11
5.011408076e-11
5.000992393e-11
4.990293487e-11
4.979300547e-11
4.968002376e-11
4.95638733e-11
4.944443251e-11
4.932157384e-11
4.919516309e-11
4.906505879e-11
4.893111184e-11
4.879316519e-11
4.865105411e-11
4.850460777e-11
4.835365013e-11
4.819795541e-11
4.803736433e-11
4.787164471e-11
4.77005712e-11
4.752392041e-11
4.734139867e-11
4.715276063e-11
4.695770996e-11
4.675593619e-11
4.654711051e-11
4.633088644e-11
4.610689111e-11
4.587474337e-11
4.563403757e-11
4.538434773e-11
4.512522659e-11
4.485620444e-11
4.457678741e-11
4.428645539e-11
4.398465997e-11
4.367082232e-11
4.334433066e-11
4.30045374e-11
4.26507533e-11
4.228224162e-11
4.189821716e-11
4.149786507e-11
4.108032515e-11
4.064468205e-11
4.018995565e-11
3.971508871e-11
3.921893586e-11
3.870025502e-11
3.815770154e-11
3.758982615e-11
3.699507564e-11
3.637179335e-11
3.57182197e-11
3.503249428e-11
3.431265153e-11
3.355657638e-11
3.276197904e-11
3.192654695e-11
3.104785535e-11
3.012322315e-11
2.914968887e-11
2.812403897e-11
2.704283231e-11
2.590242946e-11
2.469903283e-11
2.342856573e-11
2.208688985e-11
2.066977152e-11
1.91728597e-11
1.75917392e-11
1.592212325e-11
1.415990422e-11
1.230168926e-11
1.034549004e-11
8.291138564e-12
6.141249761e-12
3.902873205e-12
1.589918673e-12
1.17448407e-12
1.18703935e-12
1.201016075e-12
1.21668352e-12
1.234378837e-12
1.254520588e-12
1.277613023e-12
1.304210205e-12
1.334768575e-12
1.369173376e-12
1.405453125e-12
9.76389314e-10
9.774110965e-10
9.791497256e-10
9.812660748e-10
9.834578277e-10
9.85518895e-10
9.872983124e-10
9.883127955e-10
9.878036859e-10
9.857771003e-10
9.83564989e-10
9.819177509e-10
9.80787026e-10
9.799587723e-10
9.79246773e-10
9.78510987e-10
9.776449306e-10
9.76573706e-10
9.752408711e-10
9.735913195e-10
9.715713633e-10
9.691137799e-10
9.661369513e-10
9.625264698e-10
9.581322535e-10
9.527435918e-10
9.460802148e-10
9.377935291e-10
9.27585718e-10
9.15514002e-10
9.023076666e-10
8.89077376e-10
8.755742208e-10