/*--------------------------------*- C++ -*----------------------------------*\
| =========                 |                                                 |
| \\      /  F ield         | OpenFOAM: The Open Source CFD Toolbox           |
|  \\    /   O peration     | Version:  v2006                                 |
|   \\  /    A nd           | Website:  www.openfoam.com                      |
|    \\/     M anipulation  |                                                 |
\*---------------------------------------------------------------------------*/
FoamFile
{
    version     2.0;
    format      ascii;
    class       volScalarField;
    location    "0.075";
    object      CH3OCH2;
}
// * * * * * * * * * * * * * * * * * * * * * * * * * * * * * * * * * * * * * //

dimensions      [0 0 0 0 0 0 0];


internalField   nonuniform List<scalar> 
72000
(
3.435245368e-13
3.44847625e-13
3.473477489e-13
3.496682379e-13
3.516574153e-13
3.528825994e-13
3.57058771e-13
3.791006928e-13
3.706846645e-13
3.522320083e-13
3.485188591e-13
3.504767199e-13
3.521045111e-13
3.534896241e-13
3.544511059e-13
3.555624404e-13
3.564204556e-13
3.568902381e-13
3.57616608e-13
3.579799678e-13
3.585228671e-13
3.587237114e-13
3.590033097e-13
3.58914963e-13
3.58955424e-13
3.58765129e-13
3.583750306e-13
3.577844488e-13
3.546945447e-13
3.461338019e-13
3.290071888e-13
3.26064496e-13
3.233940376e-13
3.205804802e-13
3.15939228e-13
3.070002539e-13
2.935057388e-13
2.743634391e-13
2.470658066e-13
2.371210705e-13
2.313631416e-13
2.269464973e-13
2.234093729e-13
2.204141925e-13
2.181134558e-13
2.161306634e-13
2.144106666e-13
2.13140521e-13
2.119080238e-13
2.110904137e-13
2.101600157e-13
2.096354503e-13
2.089175331e-13
2.085807836e-13
2.081387671e-13
2.077470024e-13
2.074884038e-13
2.071140055e-13
2.070188268e-13
2.068340429e-13
2.065301299e-13
2.064620248e-13
2.062454806e-13
2.062985271e-13
2.060793019e-13
2.06110831e-13
2.059943315e-13
2.058241419e-13
2.058270369e-13
2.056285207e-13
2.056896756e-13
2.055892757e-13
2.056097987e-13
2.055140784e-13
2.054022262e-13
2.054103495e-13
2.052319392e-13
2.053370313e-13
2.052452414e-13
2.051157921e-13
2.050934875e-13
2.05043271e-13
2.048146414e-13
2.048696966e-13
2.047285167e-13
2.04751847e-13
2.046894505e-13
2.04524803e-13
2.045576448e-13
2.043429556e-13
2.043849296e-13
2.04276088e-13
2.043959649e-13
2.042473263e-13
2.043509938e-13
2.042192636e-13
2.043690942e-13
2.042979201e-13
2.043579588e-13
2.043396784e-13
2.04456904e-13
2.044299626e-13
2.045592513e-13
2.044961908e-13
2.047065301e-13
2.047395865e-13
2.046922574e-13
2.049065431e-13
2.049912003e-13
2.049869493e-13
2.052274267e-13
2.053283607e-13
2.054396467e-13
2.057211062e-13
2.058355444e-13
2.061675078e-13
2.064245186e-13
2.067898706e-13
2.071057877e-13
2.07622512e-13
2.079634387e-13
2.085291273e-13
2.089684025e-13
2.093653288e-13
2.099618722e-13
2.10445749e-13
2.111635716e-13
2.11668754e-13
2.122637125e-13
2.129825112e-13
2.137221272e-13
2.143832053e-13
2.151550902e-13
2.157048423e-13
2.16265896e-13
2.157568304e-13
2.14324077e-13
2.120941461e-13
2.090133739e-13
2.048288107e-13
1.989895405e-13
1.903486576e-13
1.765160533e-13
1.757086687e-13
1.76397438e-13
1.780716745e-13
1.803757844e-13
1.833928644e-13
1.859911178e-13
1.882168302e-13
1.894107346e-13
1.877752028e-13
1.930826824e-13
1.986859087e-13
2.025896939e-13
2.039913688e-13
2.086257325e-13
2.133910034e-13
2.185445986e-13
2.237974321e-13
2.293233383e-13
2.349602316e-13
2.407922909e-13
2.467502631e-13
2.557912071e-13
2.686507267e-13
2.787395635e-13
2.885703084e-13
2.98857564e-13
3.096628067e-13
3.210389271e-13
3.330179889e-13
3.455834589e-13
3.585831095e-13
3.715048212e-13
3.845693515e-13
3.985476444e-13
4.151419286e-13
4.537847393e-13
5.145563778e-13
5.679969218e-13
6.183256989e-13
6.813451518e-13
7.403587336e-13
8.068971976e-13
8.793610921e-13
9.563215828e-13
1.042105415e-12
1.13621073e-12
1.238733998e-12
1.346784706e-12
1.461777498e-12
1.592631724e-12
1.879753953e-12
2.270088362e-12
2.692863534e-12
3.157302667e-12
3.694882845e-12
4.273859829e-12
4.907496147e-12
5.925442042e-12
7.683850581e-12
9.729638026e-12
1.195006066e-11
1.451393233e-11
1.930873392e-11
2.544501002e-11
3.265321065e-11
4.49725629e-11
6.623244996e-11
9.819091734e-11
1.647475198e-10
3.052121006e-10
6.306715507e-10
1.458434825e-09
4.274585336e-09
1.478813503e-08
6.531000525e-08
3.639759839e-07
2.66205774e-06
2.758458538e-05
5.617985799e-05
2.967689185e-05
2.45401369e-05
2.104157787e-05
1.660672537e-05
1.278502951e-05
9.522825623e-06
7.048246275e-06
5.053486488e-06
3.48532356e-06
2.440173652e-06
1.814574406e-06
1.369417555e-06
1.082921403e-06
8.875224149e-07
7.367216808e-07
6.165124227e-07
5.187087254e-07
4.381015671e-07
3.736105231e-07
3.199095063e-07
2.732195411e-07
2.336906791e-07
2.005879426e-07
1.728535171e-07
1.495190297e-07
1.297790511e-07
1.129877833e-07
9.8627895e-08
8.62861998e-08
7.563103479e-08
6.639485202e-08
5.835889471e-08
5.13437494e-08
4.520241676e-08
3.981235646e-08
3.507087607e-08
3.089120509e-08
2.719988694e-08
2.393446287e-08
2.104148001e-08
1.847496953e-08
1.619521564e-08
1.416767467e-08
1.236195429e-08
1.075045097e-08
9.305160107e-09
8.027502763e-09
6.916513182e-09
5.941826084e-09
5.061889752e-09
4.272328643e-09
3.567540736e-09
2.943822092e-09
2.400625583e-09
1.947452838e-09
1.623159498e-09
1.412501924e-09
1.246727431e-09
1.105510861e-09
9.816985291e-10
8.719089381e-10
7.742301252e-10
6.871734212e-10
6.095919444e-10
5.404523349e-10
4.788463404e-10
4.2389964e-10
3.747639453e-10
3.684845912e-10
3.641464055e-10
3.602674333e-10
3.567898825e-10
3.536670497e-10
3.508606134e-10
3.483371131e-10
3.460673175e-10
3.440258765e-10
3.421899292e-10
3.405389211e-10
3.390543781e-10
3.377196975e-10
3.365199616e-10
3.354417498e-10
3.344729528e-10
3.336026606e-10
3.328210656e-10
3.321193696e-10
3.314896859e-10
3.309249427e-10
3.304187362e-10
3.299652115e-10
3.295591372e-10
3.291958346e-10
3.288711041e-10
3.285811659e-10
3.283226143e-10
3.280923806e-10
3.278877032e-10
3.277060987e-10
3.275453343e-10
3.274034008e-10
3.272784875e-10
3.271689618e-10
3.270733508e-10
3.269903254e-10
3.26918687e-10
3.268573561e-10
3.268053618e-10
3.267618297e-10
3.267259733e-10
3.266970841e-10
3.266745235e-10
3.266577148e-10
3.266461369e-10
3.266393188e-10
3.266368345e-10
3.266382985e-10
3.266433615e-10
3.266517073e-10
3.266630499e-10
3.266771302e-10
3.266937138e-10
3.267125886e-10
3.267335623e-10
3.267564612e-10
3.26781128e-10
3.268074197e-10
3.26835207e-10
3.268643724e-10
3.268948086e-10
3.26926417e-10
3.269591041e-10
3.269927758e-10
3.270273391e-10
3.27062742e-10
3.270989296e-10
3.27135849e-10
3.271734431e-10
3.272116649e-10
3.27250468e-10
3.272898096e-10
3.273296505e-10
3.273699553e-10
3.274106926e-10
3.274518357e-10
3.274933605e-10
3.275352376e-10
3.275774311e-10
3.276199101e-10
3.276626468e-10
3.27705616e-10
3.277487936e-10
3.277921571e-10
3.278356843e-10
3.27879354e-10
3.279231451e-10
3.279670373e-10
3.280110106e-10
3.280550451e-10
3.280991213e-10
3.2814322e-10
3.281873218e-10
3.282314078e-10
3.282754592e-10
3.28319457e-10
3.28363382e-10
3.284072156e-10
3.284509386e-10
3.284945322e-10
3.285379776e-10
3.285812554e-10
3.286243463e-10
3.28667231e-10
3.287098903e-10
3.287523041e-10
3.287944524e-10
3.288363149e-10
3.288778709e-10
3.289190995e-10
3.289599792e-10
3.290004882e-10
3.290406047e-10
3.290803067e-10
3.291195724e-10
3.291583804e-10
3.291967096e-10
3.29234539e-10
3.292718488e-10
3.293086193e-10
3.293448318e-10
3.293804671e-10
3.294155066e-10
3.294499311e-10
3.294837219e-10
3.295168597e-10
3.295493245e-10
3.29581097e-10
3.296121574e-10
3.296424855e-10
3.296720622e-10
3.297008601e-10
3.297288733e-10
3.297560705e-10
3.29782435e-10
3.298079464e-10
3.298325851e-10
3.298563318e-10
3.298791674e-10
3.299010732e-10
3.299220317e-10
3.299420258e-10
3.299610395e-10
3.299790569e-10
3.299960627e-10
3.300120421e-10
3.300269803e-10
3.300408625e-10
3.300536742e-10
3.300654001e-10
3.300760246e-10
3.30085531e-10
3.300939034e-10
3.301011255e-10
3.301071622e-10
3.301120305e-10
3.301156832e-10
3.301181082e-10
3.301192837e-10
3.301191898e-10
3.301178137e-10
3.301151343e-10
3.301111803e-10
3.301059016e-10
3.300992923e-10
3.300913383e-10
3.300820253e-10
3.300713396e-10
3.300592732e-10
3.300458055e-10
3.300309236e-10
3.300146141e-10
3.299968647e-10
3.299776627e-10
3.299569946e-10
3.299348476e-10
3.299112071e-10
3.298860563e-10
3.298593847e-10
3.298311797e-10
3.298014296e-10
3.297701217e-10
3.297372438e-10
3.29702784e-10
3.296667297e-10
3.296290691e-10
3.295897901e-10
3.295488811e-10
3.2950633e-10
3.294621254e-10
3.294162552e-10
3.293687075e-10
3.293194708e-10
3.29268533e-10
3.292158824e-10
3.291615068e-10
3.291053943e-10
3.290475325e-10
3.28987909e-10
3.289265109e-10
3.288633255e-10
3.287983391e-10
3.287315382e-10
3.286629081e-10
3.285924341e-10
3.285201008e-10
3.284458917e-10
3.283697905e-10
3.282917797e-10
3.282118412e-10
3.281299564e-10
3.280461059e-10
3.279602699e-10
3.278724274e-10
3.277825571e-10
3.276906365e-10
3.275966426e-10
3.27500552e-10
3.274023407e-10
3.273019843e-10
3.271994586e-10
3.270947391e-10
3.269878022e-10
3.268786241e-10
3.267671817e-10
3.266534506e-10
3.265374059e-10
3.264190207e-10
3.262982651e-10
3.261751061e-10
3.260495074e-10
3.259214293e-10
3.257908293e-10
3.256576607e-10
3.255218703e-10
3.253833939e-10
3.252421835e-10
3.25098167e-10
3.249512671e-10
3.24801396e-10
3.246484427e-10
3.244923015e-10
3.243328455e-10
3.241699321e-10
3.240034071e-10
3.238331176e-10
3.236588389e-10
3.23480402e-10
3.232975998e-10
3.231102114e-10
3.229180039e-10
3.227207309e-10
3.225181301e-10
3.223099211e-10
3.220958026e-10
3.218754762e-10
3.216485548e-10
3.214146859e-10
3.211734541e-10
3.209244301e-10
3.206672963e-10
3.204014102e-10
3.201261754e-10
3.198409866e-10
3.195451784e-10
3.192380062e-10
3.189186321e-10
3.185861145e-10
3.182394035e-10
3.178773394e-10
3.174986569e-10
3.171019874e-10
3.166858611e-10
3.162486756e-10
3.157884556e-10
3.153037078e-10
3.147927251e-10
3.142534092e-10
3.136833638e-10
3.130799928e-10
3.124404101e-10
3.117614074e-10
3.110394465e-10
3.102706486e-10
3.094508133e-10
3.085756351e-10
3.07640463e-10
3.066402805e-10
3.055696704e-10
3.0442281e-10
3.031935253e-10
3.018753931e-10
3.004620706e-10
2.989477195e-10
2.973274319e-10
2.95598038e-10
2.937595669e-10
2.91817604e-10
2.897870239e-10
2.876964124e-10
2.85600793e-10
2.835942471e-10
2.818415045e-10
2.806217567e-10
2.80422154e-10
2.82006675e-10
2.864562157e-10
5.701421554e-10
1.060739406e-09
2.381140462e-13
2.388095011e-13
2.400336929e-13
2.414100235e-13
2.42755854e-13
2.440529943e-13
2.459603726e-13
2.484578044e-13
2.481013712e-13
2.448955952e-13
2.430934428e-13
2.430068365e-13
2.433591338e-13
2.438154463e-13
2.442568813e-13
2.446517041e-13
2.449674249e-13
2.451943902e-13
2.453398629e-13
2.453909988e-13
2.453528447e-13
2.452053227e-13
2.449456513e-13
2.445342102e-13
2.439498932e-13
2.43116702e-13
2.41912927e-13
2.400651051e-13
2.368785425e-13
2.316962968e-13
2.249176057e-13
2.207581729e-13
2.172474248e-13
2.135178672e-13
2.086663692e-13
2.018483946e-13
1.927740106e-13
1.81468927e-13
1.689654667e-13
1.607924908e-13
1.552055843e-13
1.509920716e-13
1.476496285e-13
1.449294237e-13
1.427045902e-13
1.408456244e-13
1.392761724e-13
1.379639491e-13
1.368449276e-13
1.359059557e-13
1.350951206e-13
1.344144022e-13
1.338178165e-13
1.333158721e-13
1.328650394e-13
1.324603951e-13
1.321076031e-13
1.317877464e-13
1.315195778e-13
1.312678473e-13
1.310261027e-13
1.308162765e-13
1.306183965e-13
1.304477903e-13
1.302814847e-13
1.301381932e-13
1.299857858e-13
1.298260423e-13
1.296870775e-13
1.295423413e-13
1.294166321e-13
1.292862725e-13
1.291704637e-13
1.290400689e-13
1.288982433e-13
1.287688448e-13
1.286338144e-13
1.285139557e-13
1.28381116e-13
1.282349252e-13
1.281017124e-13
1.279566473e-13
1.277981557e-13
1.276541127e-13
1.275052098e-13
1.273718813e-13
1.272267178e-13
1.270720152e-13
1.269426049e-13
1.268103936e-13
1.266961696e-13
1.265824856e-13
1.264877154e-13
1.263900032e-13
1.263128057e-13
1.262327624e-13
1.261735514e-13
1.261113892e-13
1.260682905e-13
1.260253975e-13
1.260025039e-13
1.259712988e-13
1.259497998e-13
1.259281429e-13
1.259289581e-13
1.259270739e-13
1.25924159e-13
1.259475193e-13
1.259709571e-13
1.25995893e-13
1.260511068e-13
1.261061151e-13
1.261660588e-13
1.262579797e-13
1.26359863e-13
1.264951255e-13
1.26642356e-13
1.268213357e-13
1.270184075e-13
1.272487418e-13
1.274893033e-13
1.277621713e-13
1.28038099e-13
1.283192e-13
1.286273541e-13
1.289373429e-13
1.292708296e-13
1.295970127e-13
1.299346717e-13
1.302790948e-13
1.306135128e-13
1.309118574e-13
1.311411223e-13
1.312335305e-13
1.310807908e-13
1.304438184e-13
1.292646489e-13
1.27548625e-13
1.252699063e-13
1.223211004e-13
1.185343688e-13
1.13799941e-13
1.085970082e-13
1.069811737e-13
1.069019409e-13
1.077201421e-13
1.090853883e-13
1.107652728e-13
1.122937876e-13
1.135761297e-13
1.145050328e-13
1.152436154e-13
1.179633989e-13
1.209934436e-13
1.235595943e-13
1.258453431e-13
1.291921384e-13
1.328557742e-13
1.367797592e-13
1.408957265e-13
1.45256047e-13
1.498446692e-13
1.547425463e-13
1.601297892e-13
1.668309847e-13
1.748675505e-13
1.82469112e-13
1.900199745e-13
1.977846207e-13
2.058786623e-13
2.143602348e-13
2.232577314e-13
2.325670757e-13
2.422304816e-13
2.516640698e-13
2.609751208e-13
2.708891973e-13
2.819880946e-13
2.941773862e-13
3.075143912e-13
3.20639673e-13
3.348561211e-13
3.875548279e-13
4.405099021e-13
4.987918487e-13
5.622397615e-13
6.265784194e-13
6.927888751e-13
7.621525674e-13
8.371729927e-13
9.170220228e-13
1.002792082e-12
1.094069163e-12
1.192463552e-12
1.463554194e-12
1.787659745e-12
2.13159936e-12
2.49110606e-12
2.867718723e-12
3.253372006e-12
4.274014165e-12
5.536944706e-12
6.784657339e-12
8.247004975e-12
1.231973073e-11
1.564478662e-11
2.258361764e-11
3.137097033e-11
5.125285899e-11
8.220528606e-11
1.488566954e-10
3.033586167e-10
6.248243653e-10
1.666796958e-09
4.749235431e-09
1.622981521e-08
6.752763835e-08
3.144056565e-07
1.525738222e-06
5.835880023e-06
1.606521324e-05
2.57171008e-05
2.094068643e-05
2.11811141e-05
1.961434457e-05
1.612231773e-05
1.360779707e-05
1.067823835e-05
8.253247117e-06
6.247099237e-06
4.753950649e-06
3.659589473e-06
2.829326191e-06
2.231365168e-06
1.786300419e-06
1.450848056e-06
1.197182828e-06
9.996641998e-07
8.412438729e-07
7.12555935e-07
6.064591014e-07
5.186211249e-07
4.453848019e-07
3.840712071e-07
3.325048225e-07
2.888981354e-07
2.518151336e-07
2.201056577e-07
1.92856132e-07
1.693324447e-07
1.489430004e-07
1.312058948e-07
1.157266878e-07
1.021798014e-07
9.029345501e-08
7.983936383e-08
7.062651561e-08
6.249257626e-08
5.529963229e-08
4.892949622e-08
4.328061089e-08
3.826546038e-08
3.380825763e-08
2.984324501e-08
2.631317653e-08
2.316818093e-08
2.036539407e-08
1.78689558e-08
1.565694828e-08
1.37056657e-08
1.197276112e-08
1.040962461e-08
9.009843434e-09
7.761678192e-09
6.656815065e-09
5.688735822e-09
4.858246077e-09
4.16659084e-09
3.596294653e-09
3.11087072e-09
2.687183711e-09
2.312664302e-09
1.979651512e-09
1.682896405e-09
1.418282803e-09
1.182379231e-09
9.721897688e-10
7.849470587e-10
7.174107922e-10
7.009403305e-10
6.861906243e-10
6.729903986e-10
6.611453044e-10
6.504995981e-10
6.409208673e-10
6.322977896e-10
6.245298918e-10
6.175286775e-10
6.112183081e-10
6.05529399e-10
6.003996134e-10
5.957729332e-10
5.915990205e-10
5.878326713e-10
5.844332455e-10
5.813640264e-10
5.785919261e-10
5.760872036e-10
5.738231941e-10
5.717759992e-10
5.699242474e-10
5.682485826e-10
5.667311453e-10
5.653561062e-10
5.641093117e-10
5.629780533e-10
5.619508895e-10
5.610175065e-10
5.601686108e-10
5.593958408e-10
5.586916811e-10
5.580493799e-10
5.574628635e-10
5.569266626e-10
5.564358468e-10
5.559859706e-10
5.555730243e-10
5.551933972e-10
5.548438392e-10
5.54521431e-10
5.542235489e-10
5.539478365e-10
5.536921752e-10
5.534546581e-10
5.532335677e-10
5.530273544e-10
5.528346221e-10
5.5265411e-10
5.524846802e-10
5.52325305e-10
5.521750575e-10
5.520330997e-10
5.518986772e-10
5.517711097e-10
5.516497839e-10
5.515341467e-10
5.514237011e-10
5.513179983e-10
5.512166347e-10
5.511192469e-10
5.510255062e-10
5.509351167e-10
5.508478097e-10
5.507633353e-10
5.506814377e-10
5.50601825e-10
5.505244068e-10
5.504490399e-10
5.503755803e-10
5.503038925e-10
5.502338535e-10
5.501653503e-10
5.500982802e-10
5.500325507e-10
5.499680793e-10
5.49904797e-10
5.498426496e-10
5.497815985e-10
5.497215829e-10
5.496625126e-10
5.496043193e-10
5.495469473e-10
5.494903475e-10
5.494344745e-10
5.493792858e-10
5.493247414e-10
5.492708026e-10
5.492174329e-10
5.491645972e-10
5.491122608e-10
5.490603903e-10
5.490089532e-10
5.489579176e-10
5.489072523e-10
5.488569255e-10
5.488069072e-10
5.487571669e-10
5.487076734e-10
5.486583972e-10
5.486093076e-10
5.485603744e-10
5.485115674e-10
5.484628557e-10
5.48414208e-10
5.483655941e-10
5.483169817e-10
5.482683389e-10
5.48219632e-10
5.481708264e-10
5.481218872e-10
5.480727772e-10
5.480234588e-10
5.47973892e-10
5.479240366e-10
5.47873852e-10
5.478232971e-10
5.477723314e-10
5.477209154e-10
5.476690095e-10
5.476165769e-10
5.475635806e-10
5.475099854e-10
5.474557558e-10
5.474008554e-10
5.473452473e-10
5.472888932e-10
5.472317531e-10
5.471737853e-10
5.471149474e-10
5.47055195e-10
5.469944829e-10
5.469327645e-10
5.468699923e-10
5.468061208e-10
5.467410994e-10
5.466748784e-10
5.466074072e-10
5.465386355e-10
5.464685131e-10
5.463969901e-10
5.463240174e-10
5.462495471e-10
5.461735327e-10
5.460959297e-10
5.460166934e-10
5.459357803e-10
5.458531464e-10
5.457687479e-10
5.456825396e-10
5.455944756e-10
5.455045073e-10
5.454125835e-10
5.453186493e-10
5.452226471e-10
5.451245165e-10
5.45024193e-10
5.449216188e-10
5.448167204e-10
5.447094258e-10
5.445996514e-10
5.444873176e-10
5.443723894e-10
5.442547116e-10
5.441344888e-10
5.440114303e-10
5.43885541e-10
5.437567481e-10
5.436249793e-10
5.434901615e-10
5.433522583e-10
5.432111583e-10
5.430667949e-10
5.429190922e-10
5.427679753e-10
5.426133689e-10
5.424551869e-10
5.422933542e-10
5.421277773e-10
5.419583507e-10
5.417850007e-10
5.41607634e-10
5.414261598e-10
5.412404834e-10
5.410505071e-10
5.408561312e-10
5.406572535e-10
5.404537689e-10
5.402455699e-10
5.400325466e-10
5.398145854e-10
5.395915702e-10
5.39363381e-10
5.391298946e-10
5.388909843e-10
5.38646519e-10
5.383963646e-10
5.381403817e-10
5.378784267e-10
5.376103514e-10
5.373360027e-10
5.370552219e-10
5.367678444e-10
5.364736994e-10
5.361726098e-10
5.358643911e-10
5.355488516e-10
5.352257919e-10
5.348950034e-10
5.345562708e-10
5.342093688e-10
5.338540633e-10
5.334901108e-10
5.331172583e-10
5.327352417e-10
5.323437868e-10
5.319426079e-10
5.315314068e-10
5.311098743e-10
5.306776883e-10
5.302345148e-10
5.297800076e-10
5.293138079e-10
5.288355457e-10
5.283448384e-10
5.278412917e-10
5.273244968e-10
5.267940291e-10
5.262494456e-10
5.256902794e-10
5.251160392e-10
5.245262051e-10
5.239202279e-10
5.232975289e-10
5.226574993e-10
5.21999501e-10
5.213228497e-10
5.206267779e-10
5.199106044e-10
5.191734944e-10
5.184145899e-10
5.176329842e-10
5.168276238e-10
5.159974959e-10
5.151414578e-10
5.14258285e-10
5.133466711e-10
5.124053662e-10
5.114326505e-10
5.104271562e-10
5.093872342e-10
5.083111706e-10
5.071971642e-10
5.060433189e-10
5.048476344e-10
5.036079968e-10
5.023221692e-10
5.009877827e-10
4.996023068e-10
4.98163054e-10
4.966671314e-10
4.951113937e-10
4.934923145e-10
4.918066275e-10
4.900507509e-10
4.882207681e-10
4.86312429e-10
4.843211055e-10
4.82241742e-10
4.80068813e-10
4.777962943e-10
4.754176486e-10
4.729258214e-10
4.703132431e-10
4.675718393e-10
4.64693089e-10
4.616682534e-10
4.584871919e-10
4.551397431e-10
4.516143431e-10
4.478981484e-10
4.439774814e-10
4.398372787e-10
4.354609755e-10
4.308304624e-10
4.259259677e-10
4.207258956e-10
4.15208041e-10
4.093481555e-10
4.031200458e-10
3.964953488e-10
3.894434222e-10
3.819314691e-10
3.739246384e-10
3.653871496e-10
3.562837484e-10
3.465808019e-10
3.362488394e-10
3.25267379e-10
3.136326813e-10
3.013699636e-10
2.885503869e-10
2.753229587e-10
2.619691303e-10
2.489869262e-10
2.372000074e-10
2.280777277e-10
2.279982461e-10
2.347362362e-10
2.432337278e-10
2.605411838e-10
1.495754505e-13
1.499494305e-13
1.505958395e-13
1.513741885e-13
1.52181099e-13
1.529802317e-13
1.538320652e-13
1.545521383e-13
1.544730503e-13
1.53540961e-13
1.527546026e-13
1.524294094e-13
1.523574482e-13
1.52390674e-13
1.524533472e-13
1.525030053e-13
1.525106939e-13
1.524611655e-13
1.523459338e-13
1.521545035e-13
1.518786487e-13
1.515037589e-13
1.510144221e-13
1.50382372e-13
1.495721515e-13
1.48523294e-13
1.471430281e-13
1.452817482e-13
1.427305229e-13
1.394033795e-13
1.356309892e-13
1.322980568e-13
1.291122075e-13
1.257008816e-13
1.216759473e-13
1.167335642e-13
1.108108247e-13
1.041343678e-13
9.741198135e-14
9.198683408e-14
8.777104516e-14
8.44331115e-14
8.172998221e-14
7.950760454e-14
7.767474816e-14
7.613613496e-14
7.483213679e-14
7.372559983e-14
7.277886687e-14
7.196919332e-14
7.126992283e-14
7.066746658e-14
7.014176414e-14
6.968344687e-14
6.92746621e-14
6.890726402e-14
6.85804868e-14
6.828594777e-14
6.802263296e-14
6.777880047e-14
6.755026355e-14
6.734132755e-14
6.714614767e-14
6.69666671e-14
6.679629169e-14
6.663643011e-14
6.647799771e-14
6.63205327e-14
6.6170353e-14
6.602285988e-14
6.58821046e-14
6.574258289e-14
6.560680931e-14
6.546683664e-14
6.532284623e-14
6.51817677e-14
6.50403226e-14
6.490166747e-14
6.47586685e-14
6.461104936e-14
6.446481716e-14
6.431394978e-14
6.415916856e-14
6.400732468e-14
6.385559229e-14
6.370730406e-14
6.355524339e-14
6.34e-14
6.322860345e-14
6.305666865e-14
6.289136648e-14
6.272949383e-14
6.257629957e-14
6.242954858e-14
6.229515634e-14
6.216550008e-14
6.204442391e-14
6.192738406e-14
6.181922024e-14
6.171634017e-14
6.162522933e-14
6.154645103e-14
6.148631929e-14
6.143480547e-14
6.139334211e-14
6.135464398e-14
6.131848982e-14
6.129022827e-14
6.126437116e-14
6.124140659e-14
6.122702306e-14
6.121542465e-14
6.120775106e-14
6.12108388e-14
6.122171554e-14
6.124535291e-14
6.127849556e-14
6.132567157e-14
6.138393579e-14
6.145627973e-14
6.153763542e-14
6.163004091e-14
6.172587081e-14
6.182369926e-14
6.192701208e-14
6.202927824e-14
6.213114509e-14
6.222418841e-14
6.230871733e-14
6.237840186e-14
6.242140398e-14
6.241943059e-14
6.234674324e-14
6.216041285e-14
6.180114479e-14
6.120664634e-14
6.034532625e-14
5.920927961e-14
5.775837383e-14
5.599846133e-14
5.397535662e-14
5.180457353e-14
4.983991722e-14
4.881648244e-14
4.849158093e-14
4.864636507e-14
4.910119937e-14
4.971527777e-14
5.034585422e-14
5.093483175e-14
5.148171301e-14
5.20977466e-14
5.310801889e-14
5.42813795e-14
5.539478758e-14
5.641829007e-14
5.756192397e-14
5.878932172e-14
6.007219882e-14
6.176675435e-14
6.347504719e-14
6.523278471e-14
6.708361908e-14
6.908696015e-14
7.134381584e-14
7.37847859e-14
7.61300062e-14
7.835520481e-14
8.0483791e-14
8.252897766e-14
8.448915961e-14
8.634977092e-14
8.808369358e-14
8.96591967e-14
9.157273379e-14
9.331064485e-14
9.490977011e-14
9.639393395e-14
9.769363483e-14
9.869636816e-14
9.918822134e-14
9.908783717e-14
9.835588953e-14
1.01546726e-13
1.174197761e-13
1.320334798e-13
1.446735482e-13
1.548213928e-13
1.618701128e-13
1.669667823e-13
1.7725297e-13
1.849644758e-13
1.890664144e-13
1.882411465e-13
2.127199366e-13
2.596941786e-13
2.989602152e-13
3.264435235e-13
3.434084907e-13
4.026147111e-13
5.353189481e-13
6.264181366e-13
7.447273045e-13
1.121645171e-12
1.47791809e-12
2.256984801e-12
3.17996741e-12
5.602860715e-12
9.745273081e-12
1.845274214e-11
3.775925069e-11
8.452666315e-11
2.178481218e-10
6.233503382e-10
1.948557562e-09
7.116372286e-09
2.807711609e-08
1.050775767e-07
3.297317523e-07
7.934562102e-07
1.517561402e-06
2.863015917e-06
4.800390825e-06
8.931260349e-06
1.242546158e-05
1.362355008e-05
1.364165216e-05
1.170127574e-05
1.068357828e-05
8.663776833e-06
6.857253318e-06
5.330373254e-06
4.133736903e-06
3.235402716e-06
2.570732259e-06
2.077334584e-06
1.701444723e-06
1.411359268e-06
1.183506267e-06
1.001351307e-06
8.535348498e-07
7.32117078e-07
6.311477679e-07
5.466002319e-07
4.752070203e-07
4.145287265e-07
3.626445987e-07
3.180405699e-07
2.795155019e-07
2.461020279e-07
2.170168652e-07
1.91616912e-07
1.69372613e-07
1.498431652e-07
1.326586161e-07
1.175078992e-07
1.041260321e-07
9.228798921e-08
8.180060318e-08
7.249830048e-08
6.42379063e-08
5.6895732e-08
5.036418617e-08
4.454981607e-08
3.937117215e-08
3.475750334e-08
3.064756633e-08
2.69887594e-08
2.373531362e-08
2.0840264e-08
1.825134277e-08
1.592978069e-08
1.385666156e-08
1.201123909e-08
1.037697863e-08
8.938875484e-09
7.684175114e-09
6.597688477e-09
5.656151062e-09
4.831249204e-09
4.101645415e-09
3.452897705e-09
2.874583513e-09
2.358631517e-09
1.898332261e-09
1.487901092e-09
1.122208415e-09
9.876362428e-10
9.565080918e-10
9.285650501e-10
9.034891805e-10
8.809679641e-10
8.607143205e-10
8.424847415e-10
8.260636046e-10
8.112709698e-10
7.979351804e-10
7.859028322e-10
7.750488704e-10
7.652538007e-10
7.564111966e-10
7.484253768e-10
7.412103799e-10
7.346890748e-10
7.287923358e-10
7.234574669e-10
7.186279191e-10
7.142528443e-10
7.102867027e-10
7.066886492e-10
7.034217014e-10
7.004525529e-10
6.977516511e-10
6.952921202e-10
6.930498239e-10
6.910030903e-10
6.891323959e-10
6.874201274e-10
6.858504008e-10
6.844089214e-10
6.830828499e-10
6.818606596e-10
6.807319928e-10
6.796875244e-10
6.787188499e-10
6.778183921e-10
6.769793182e-10
6.761954732e-10
6.75461322e-10
6.747718955e-10
6.741227355e-10
6.735098431e-10
6.729296283e-10
6.723788651e-10
6.718546511e-10
6.713543739e-10
6.708756816e-10
6.704164555e-10
6.699747862e-10
6.695489518e-10
6.691374012e-10
6.68738737e-10
6.683517023e-10
6.679751659e-10
6.676081116e-10
6.672496265e-10
6.668988912e-10
6.6655517e-10
6.662178022e-10
6.658861957e-10
6.65559819e-10
6.652381956e-10
6.649208999e-10
6.646075566e-10
6.642978528e-10
6.639915517e-10
6.636882521e-10
6.633876818e-10
6.630896137e-10
6.627938424e-10
6.625001848e-10
6.622084762e-10
6.619185688e-10
6.616303297e-10
6.613436421e-10
6.610584065e-10
6.607745529e-10
6.604920734e-10
6.602109163e-10
6.599309141e-10
6.596519818e-10
6.593740575e-10
6.590970871e-10
6.588210229e-10
6.585458217e-10
6.582714436e-10
6.579978527e-10
6.577250156e-10
6.574529011e-10
6.571814806e-10
6.569107272e-10
6.566406152e-10
6.563711209e-10
6.561022211e-10
6.558338943e-10
6.5556612e-10
6.552988777e-10
6.550321479e-10
6.547659123e-10
6.545001526e-10
6.542348512e-10
6.539699911e-10
6.53705555e-10
6.534415257e-10
6.531778879e-10
6.529146237e-10
6.526517157e-10
6.52389146e-10
6.521268941e-10
6.51864939e-10
6.516032572e-10
6.513418224e-10
6.510806072e-10
6.508195816e-10
6.505587144e-10
6.50297974e-10
6.500373288e-10
6.49776749e-10
6.49516205e-10
6.492556696e-10
6.489951174e-10
6.48734524e-10
6.484738652e-10
6.482131154e-10
6.479522468e-10
6.476912291e-10
6.474300285e-10
6.471686068e-10
6.469069239e-10
6.46644936e-10
6.463825974e-10
6.461198603e-10
6.458566745e-10
6.455929879e-10
6.453287449e-10
6.450638874e-10
6.447983564e-10
6.445320907e-10
6.442650291e-10
6.4399711e-10
6.437282722e-10
6.434584566e-10
6.431876053e-10
6.42915662e-10
6.426425716e-10
6.423682791e-10
6.420927292e-10
6.418158647e-10
6.415376268e-10
6.412579539e-10
6.409767803e-10
6.406940345e-10
6.404096383e-10
6.401235069e-10
6.398355481e-10
6.395456673e-10
6.392537679e-10
6.389597468e-10
6.386634935e-10
6.383648641e-10
6.380636684e-10
6.377599019e-10
6.374534804e-10
6.371443438e-10
6.368323299e-10
6.36517344e-10
6.361992675e-10
6.358779759e-10
6.355532693e-10
6.35225216e-10
6.348935095e-10
6.345580612e-10
6.342187232e-10
6.338753506e-10
6.33527817e-10
6.331759351e-10
6.328195803e-10
6.324585865e-10
6.32092697e-10
6.317218066e-10
6.313457128e-10
6.309642387e-10
6.305771906e-10
6.301843697e-10
6.297855717e-10
6.293805856e-10
6.289691942e-10
6.285511735e-10
6.281262922e-10
6.276943119e-10
6.27254986e-10
6.268080602e-10
6.263532708e-10
6.258903462e-10
6.254190056e-10
6.24938958e-10
6.244499027e-10
6.239515282e-10
6.23443512e-10
6.229255202e-10
6.223972058e-10
6.218582092e-10
6.213081569e-10
6.207466604e-10
6.201733152e-10
6.195877006e-10
6.189893786e-10
6.183778922e-10
6.177527666e-10
6.171135069e-10
6.16459598e-10
6.157905045e-10
6.151056683e-10
6.144045083e-10
6.13686419e-10
6.129507702e-10
6.121969041e-10
6.114241369e-10
6.106317557e-10
6.098190196e-10
6.0898516e-10
6.081293782e-10
6.072508482e-10
6.06348715e-10
6.054220944e-10
6.044700715e-10
6.034916953e-10
6.024859735e-10
6.01451865e-10
6.00388275e-10
5.992940488e-10
5.981679696e-10
5.970087559e-10
5.958150641e-10
5.945855019e-10
5.933186373e-10
5.920126127e-10
5.906661514e-10
5.892773518e-10
5.878443778e-10
5.863654167e-10
5.84838055e-10
5.832603049e-10
5.816297458e-10
5.799438437e-10
5.781999154e-10
5.763951349e-10
5.745264593e-10
5.725907855e-10
5.705848116e-10
5.685050734e-10
5.663479378e-10
5.641095933e-10
5.61786037e-10
5.593730582e-10
5.568662216e-10
5.542608513e-10
5.515520105e-10
5.487344794e-10
5.458027066e-10
5.42750762e-10
5.395723305e-10
5.362608789e-10
5.328095229e-10
5.292109469e-10
5.254573259e-10
5.215402239e-10
5.17450505e-10
5.131782665e-10
5.087127956e-10
5.04042561e-10
4.991552277e-10
4.940376725e-10
4.886760009e-10
4.830555786e-10
4.771610102e-10
4.709757755e-10
4.644820346e-10
4.57661957e-10
4.504969796e-10
4.429666009e-10
4.350482138e-10
4.267173962e-10
4.179481725e-10
4.087133256e-10
3.989848123e-10
3.887328113e-10
3.77927685e-10
3.665398062e-10
3.545395135e-10
3.418977373e-10
3.285878491e-10
3.145863339e-10
2.998776525e-10
2.844604526e-10
2.683515104e-10
2.515943897e-10
2.342739995e-10
2.165377281e-10
2.150041553e-10
2.172849475e-10
2.198239595e-10
2.226701079e-10
2.258846394e-10
2.2954359e-10
2.33738562e-10
2.385702062e-10
2.441214401e-10
2.503714167e-10
2.569619963e-10
7.95239505e-14
7.969828328e-14
7.999555825e-14
8.03591746e-14
8.07387505e-14
8.109956591e-14
8.141557892e-14
8.160590184e-14
8.154380355e-14
8.122819016e-14
8.08764538e-14
8.061150396e-14
8.042563171e-14
8.028424331e-14
8.015744741e-14
8.002298108e-14
7.986375079e-14
7.966798019e-14
7.942707627e-14
7.913243063e-14
7.877576929e-14
7.834640809e-14
7.783152611e-14
7.721285918e-14
7.646664393e-14
7.555934893e-14
7.444660452e-14
7.307337584e-14
7.139317955e-14
6.941734166e-14
6.726509186e-14
6.511555361e-14
6.292938997e-14
6.05925252e-14