/*--------------------------------*- C++ -*----------------------------------*\
| =========                 |                                                 |
| \\      /  F ield         | OpenFOAM: The Open Source CFD Toolbox           |
|  \\    /   O peration     | Version:  v2006                                 |
|   \\  /    A nd           | Website:  www.openfoam.com                      |
|    \\/     M anipulation  |                                                 |
\*---------------------------------------------------------------------------*/
FoamFile
{
    version     2.0;
    format      ascii;
    class       volScalarField;
    location    "0.075";
    object      CH4;
}
// * * * * * * * * * * * * * * * * * * * * * * * * * * * * * * * * * * * * * //

dimensions      [0 0 0 0 0 0 0];


internalField   nonuniform List<scalar> 
72000
(
4.66070882e-07
4.673897493e-07
4.698719642e-07
4.720684125e-07
4.738005172e-07
4.746184912e-07
4.784095975e-07
4.929828112e-07
4.870203713e-07
4.718316824e-07
4.677637773e-07
4.695811145e-07
4.71096684e-07
4.723916519e-07
4.732737394e-07
4.743269089e-07
4.751380962e-07
4.755655448e-07
4.762690277e-07
4.766110162e-07
4.77147785e-07
4.773441499e-07
4.776309977e-07
4.775519784e-07
4.776180808e-07
4.774631119e-07
4.771215779e-07
4.766007755e-07
4.735409052e-07
4.648904591e-07
4.474875195e-07
4.446479573e-07
4.420722157e-07
4.393487522e-07
4.347655803e-07
4.258085087e-07
4.122331452e-07
3.929373961e-07
3.654455255e-07
3.555744687e-07
3.499136162e-07
3.455845791e-07
3.421252087e-07
3.391981725e-07
3.36950952e-07
3.350184659e-07
3.333475355e-07
3.321184988e-07
3.309260652e-07
3.30143636e-07
3.292482059e-07
3.287552746e-07
3.280686467e-07
3.27759981e-07
3.273485375e-07
3.269917772e-07
3.267626544e-07
3.264194343e-07
3.263520876e-07
3.26198755e-07
3.259296874e-07
3.258929949e-07
3.257101322e-07
3.257948944e-07
3.256083398e-07
3.256698299e-07
3.255870555e-07
3.254551696e-07
3.254928573e-07
3.253311162e-07
3.254273734e-07
3.253646772e-07
3.254188055e-07
3.253608979e-07
3.252921419e-07
3.253391797e-07
3.252014484e-07
3.25345231e-07
3.252950238e-07
3.25211867e-07
3.252307642e-07
3.252266558e-07
3.250472053e-07
3.251496251e-07
3.250576134e-07
3.251269322e-07
3.251151505e-07
3.250056478e-07
3.250912212e-07
3.249309112e-07
3.250268034e-07
3.249753641e-07
3.251521309e-07
3.250624486e-07
3.252249378e-07
3.251546394e-07
3.253664515e-07
3.253599749e-07
3.25483058e-07
3.255328782e-07
3.257165621e-07
3.25759955e-07
3.259578726e-07
3.259660885e-07
3.262473693e-07
3.26354663e-07
3.263860891e-07
3.266774411e-07
3.268425554e-07
3.269228204e-07
3.272458754e-07
3.274327921e-07
3.276365841e-07
3.280083186e-07
3.282157523e-07
3.286406568e-07
3.289956478e-07
3.294574259e-07
3.298753953e-07
3.30494562e-07
3.309411064e-07
3.316128643e-07
3.321634998e-07
3.326788555e-07
3.33394419e-07
3.34002781e-07
3.34848432e-07
3.354871194e-07
3.362170937e-07
3.37073235e-07
3.379517061e-07
3.387518894e-07
3.396682204e-07
3.403608577e-07
3.410698809e-07
3.406903656e-07
3.393716816e-07
3.372420069e-07
3.342447859e-07
3.301189053e-07
3.242978664e-07
3.15609589e-07
3.016532457e-07
3.009685678e-07
3.018225148e-07
3.036724031e-07
3.061686552e-07
3.093789634e-07
3.121534067e-07
3.145367824e-07
3.15846297e-07
3.138619351e-07
3.191950205e-07
3.248104881e-07
3.285872154e-07
3.297227224e-07
3.343529935e-07
3.391151191e-07
3.442442186e-07
3.494632851e-07
3.549325292e-07
3.605107614e-07
3.66277536e-07
3.722167252e-07
3.813484341e-07
3.944011666e-07
4.046256997e-07
4.145331822e-07
4.248484414e-07
4.356058909e-07
4.468466572e-07
4.585880497e-07
4.707875527e-07
4.832449506e-07
4.953660519e-07
5.074244813e-07
5.204303102e-07
5.364415931e-07
5.615041044e-07
5.962037425e-07
6.264716122e-07
6.544754192e-07
6.895506885e-07
7.217057591e-07
7.58218385e-07
7.98210363e-07
8.398334085e-07
8.854620136e-07
9.34879954e-07
9.898551783e-07
1.048147645e-06
1.110599467e-06
1.179305571e-06
1.280457656e-06
1.403731121e-06
1.534809229e-06
1.677228882e-06
1.836956485e-06
2.006873548e-06
2.190137537e-06
2.416972327e-06
2.725419626e-06
3.070959589e-06
3.437238765e-06
3.848990064e-06
4.37538935e-06
4.988431448e-06
5.700542039e-06
6.623665828e-06
7.859717967e-06
9.431949667e-06
1.1681075e-05
1.486311565e-05
1.953752686e-05
2.666778081e-05
3.832026996e-05
5.787216883e-05
9.268300324e-05
0.0001574312001
0.0002895936553
0.0006559926488
0.001320229045
0.001075298322
0.0009110097191
0.0007767259138
0.0006352587709
0.0005091913361
0.0003999177205
0.000309932138
0.0002325912424
0.0001693176718
0.0001256427172
9.762198747e-05
7.799057795e-05
6.397142318e-05
5.370569402e-05
4.554899477e-05
3.882535057e-05
3.316351606e-05
2.833151007e-05
2.441941724e-05
2.112916315e-05
1.821775245e-05
1.570737649e-05
1.357232073e-05
1.17613801e-05
1.022274911e-05
8.910711788e-06
7.787253471e-06
6.821107808e-06
5.986801248e-06
5.26355556e-06
4.634391081e-06
4.08526678e-06
3.604566742e-06
3.182709435e-06
2.811654067e-06
2.484618903e-06
2.19583616e-06
1.940400339e-06
1.714123104e-06
1.513405377e-06
1.335140577e-06
1.176634926e-06
1.035536047e-06
9.097622257e-07
7.973991223e-07
6.964752369e-07
6.075865527e-07
5.307701037e-07
4.631729563e-07
4.020765293e-07
3.472605231e-07
2.984035582e-07
2.553395704e-07
2.181849304e-07
1.879411901e-07
1.681070865e-07
1.572309729e-07
1.492887837e-07
1.427060584e-07
1.369866336e-07
1.319281959e-07
1.274312067e-07
1.234221644e-07
1.198477441e-07
1.166606004e-07
1.138192656e-07
1.112842165e-07
1.090174841e-07
1.085327127e-07
1.081541263e-07
1.07816995e-07
1.07516025e-07
1.072469949e-07
1.07006458e-07
1.067914112e-07
1.065992336e-07
1.064276525e-07
1.06274618e-07
1.061382866e-07
1.060170012e-07
1.059092722e-07
1.058137607e-07
1.057292623e-07
1.0565469e-07
1.055890641e-07
1.055315038e-07
1.054812191e-07
1.054375012e-07
1.053997148e-07
1.053672842e-07
1.053396827e-07
1.053164399e-07
1.052971347e-07
1.052813891e-07
1.052688627e-07
1.052592484e-07
1.052522696e-07
1.052476768e-07
1.052452457e-07
1.052447742e-07
1.052460801e-07
1.052489993e-07
1.052533832e-07
1.052590976e-07
1.052660211e-07
1.052740441e-07
1.052830673e-07
1.052930013e-07
1.053037654e-07
1.053152864e-07
1.053274984e-07
1.053403417e-07
1.053537619e-07
1.053677098e-07
1.053821406e-07
1.053970136e-07
1.054122918e-07
1.054279413e-07
1.054439312e-07
1.054602334e-07
1.054768223e-07
1.054936744e-07
1.055107682e-07
1.055280842e-07
1.055456043e-07
1.055633122e-07
1.055811925e-07
1.055992315e-07
1.056174161e-07
1.056357346e-07
1.056541757e-07
1.056727288e-07
1.05691383e-07
1.057101279e-07
1.057289565e-07
1.057478617e-07
1.057668365e-07
1.057858735e-07
1.058049664e-07
1.058241086e-07
1.058432942e-07
1.058625174e-07
1.058817729e-07
1.059010556e-07
1.059203609e-07
1.059396846e-07
1.059590217e-07
1.059783668e-07
1.05997715e-07
1.060170617e-07
1.060364024e-07
1.060557327e-07
1.060750486e-07
1.060943459e-07
1.061136206e-07
1.061328686e-07
1.061520859e-07
1.061712688e-07
1.061904132e-07
1.062095154e-07
1.062285714e-07
1.062475775e-07
1.0626653e-07
1.062854249e-07
1.063042586e-07
1.063230273e-07
1.063417272e-07
1.063603547e-07
1.063789059e-07
1.063973772e-07
1.064157648e-07
1.064340651e-07
1.064522744e-07
1.06470389e-07
1.064884051e-07
1.065063192e-07
1.065241276e-07
1.065418266e-07
1.065594125e-07
1.065768817e-07
1.065942305e-07
1.066114555e-07
1.066285528e-07
1.066455192e-07
1.066623512e-07
1.066790454e-07
1.066955986e-07
1.067120077e-07
1.067282697e-07
1.067443816e-07
1.067603407e-07
1.067761442e-07
1.067917893e-07
1.068072735e-07
1.068225941e-07
1.068377486e-07
1.068527344e-07
1.068675492e-07
1.068821905e-07
1.068966561e-07
1.069109431e-07
1.069250504e-07
1.069389751e-07
1.069527154e-07
1.069662693e-07
1.069796349e-07
1.069928104e-07
1.070057942e-07
1.070185848e-07
1.070311808e-07
1.070435809e-07
1.070557841e-07
1.070677894e-07
1.07079596e-07
1.07091203e-07
1.0710261e-07
1.071138163e-07
1.071248216e-07
1.071356255e-07
1.071462275e-07
1.071566275e-07
1.071668252e-07
1.071768205e-07
1.071866118e-07
1.071962021e-07
1.07205589e-07
1.072147731e-07
1.072237545e-07
1.072325333e-07
1.072411106e-07
1.072494869e-07
1.07257667e-07
1.072656491e-07
1.072734353e-07
1.072810271e-07
1.072884262e-07
1.072956346e-07
1.073026546e-07
1.07309488e-07
1.07316137e-07
1.073226043e-07
1.073288925e-07
1.073350047e-07
1.073409438e-07
1.073467131e-07
1.073523159e-07
1.073577555e-07
1.073630359e-07
1.073681612e-07
1.073731357e-07
1.073779639e-07
1.073826506e-07
1.073872007e-07
1.073916195e-07
1.073959123e-07
1.07400085e-07
1.074041436e-07
1.074080942e-07
1.074119436e-07
1.074156985e-07
1.074193662e-07
1.07422954e-07
1.074264697e-07
1.074299216e-07
1.074333181e-07
1.07436668e-07
1.074399805e-07
1.074432653e-07
1.074465322e-07
1.074497917e-07
1.074530546e-07
1.074563322e-07
1.07459636e-07
1.074629783e-07
1.074663718e-07
1.074698294e-07
1.07473365e-07
1.074769928e-07
1.074807276e-07
1.074845848e-07
1.074885805e-07
1.074927315e-07
1.074970553e-07
1.0750157e-07
1.075062946e-07
1.07511249e-07
1.075164539e-07
1.075219309e-07
1.075277026e-07
1.075337926e-07
1.075402259e-07
1.075470284e-07
1.075542275e-07
1.075618516e-07
1.075699308e-07
1.075784961e-07
1.075875802e-07
1.075972168e-07
1.076074412e-07
1.0761829e-07
1.076298012e-07
1.076420147e-07
1.076549717e-07
1.076687153e-07
1.076832895e-07
1.076987421e-07
1.077151212e-07
1.077324773e-07
1.077508621e-07
1.077703285e-07
1.077909327e-07
1.078127323e-07
1.078357866e-07
1.078601577e-07
1.078859112e-07
1.079131107e-07
1.079418286e-07
1.079721383e-07
1.080041171e-07
1.080378458e-07
1.080734096e-07
1.081108978e-07
1.081504044e-07
1.081920276e-07
1.082358733e-07
1.082820464e-07
1.083306632e-07
1.083818428e-07
1.084357123e-07
1.084924189e-07
1.08552091e-07
1.086148727e-07
1.086809202e-07
1.087503978e-07
1.088234776e-07
1.089003396e-07
1.089811726e-07
1.090661748e-07
1.091555563e-07
1.092495414e-07
1.093483712e-07
1.094523067e-07
1.095616291e-07
1.096766222e-07
1.097976536e-07
1.099251169e-07
1.100594211e-07
1.102010056e-07
1.103503573e-07
1.105080116e-07
1.106745607e-07
1.108506654e-07
1.1103707e-07
1.11234623e-07
1.114443185e-07
1.116673027e-07
1.119049059e-07
1.121586814e-07
1.124304584e-07
1.127224134e-07
1.130371651e-07
1.133779147e-07
1.1374863e-07
1.141542763e-07
1.146011508e-07
1.150973725e-07
1.156535982e-07
1.162840801e-07
1.17008129e-07
1.178528707e-07
1.188569258e-07
1.200774001e-07
1.216009767e-07
1.23565366e-07
1.261912498e-07
1.298413203e-07
1.458312014e-07
1.717416706e-07
4.23952993e-07
4.247426382e-07
4.261267435e-07
4.276526232e-07
4.290985107e-07
4.304435539e-07
4.3247955e-07
4.352021854e-07
4.345339362e-07
4.305568146e-07
4.28301405e-07
4.281098398e-07
4.284703695e-07
4.289813453e-07
4.294968144e-07
4.299676816e-07
4.303630385e-07
4.306696866e-07
4.308861636e-07
4.310035313e-07
4.310200548e-07
4.309187005e-07
4.306889223e-07
4.302914415e-07
4.296950106e-07
4.288136141e-07
4.275003689e-07
4.254325416e-07
4.217917829e-07
4.15799391e-07
4.079184547e-07
4.031264758e-07
3.990989408e-07
3.947985586e-07
3.89152863e-07
3.811554913e-07
3.704533602e-07
3.570689783e-07
3.42235592e-07
3.32555809e-07
3.259642563e-07
3.21017526e-07
3.171163068e-07
3.139609899e-07
3.113838584e-07
3.092506876e-07
3.074710953e-07
3.059904791e-07
3.047476323e-07
3.0371324e-07
3.028402706e-07
3.021165213e-07
3.015010171e-07
3.009920828e-07
3.005545685e-07
3.001822829e-07
2.998644676e-07
2.995928951e-07
2.993760495e-07
2.991890108e-07
2.990239575e-07
2.988899419e-07
2.987777327e-07
2.98691883e-07
2.986188729e-07
2.985668175e-07
2.98514648e-07
2.984637204e-07
2.984310713e-07
2.983993024e-07
2.983842985e-07
2.983716966e-07
2.983699423e-07
2.983615057e-07
2.983497376e-07
2.983459332e-07
2.983425961e-07
2.983507597e-07
2.983538538e-07
2.983507779e-07
2.983559359e-07
2.983571925e-07
2.983527577e-07
2.983593624e-07
2.983682877e-07
2.983903193e-07
2.984098828e-07
2.984301024e-07
2.984765336e-07
2.985299409e-07
2.986017469e-07
2.986857278e-07
2.987902226e-07
2.989034675e-07
2.990395531e-07
2.991849809e-07
2.993539924e-07
2.995323319e-07
2.997324426e-07
2.999462222e-07
3.001830121e-07
3.004368488e-07
3.007204899e-07
3.010184555e-07
3.013411788e-07
3.016774182e-07
3.020283971e-07
3.024074887e-07
3.028025147e-07
3.032153711e-07
3.036618622e-07
3.041252984e-07
3.046130996e-07
3.0513861e-07
3.056932137e-07
3.062900141e-07
3.069205008e-07
3.075928353e-07
3.083080379e-07
3.090679933e-07
3.098616053e-07
3.106996771e-07
3.115669664e-07
3.124666771e-07
3.134065422e-07
3.143740392e-07
3.153813657e-07
3.164093121e-07
3.174625045e-07
3.18533796e-07
3.196034527e-07
3.206391734e-07
3.215984875e-07
3.223923775e-07
3.228787237e-07
3.227413909e-07
3.218993361e-07
3.203535486e-07
3.180636639e-07
3.14879508e-07
3.105691435e-07
3.049791283e-07
2.987470858e-07
2.97337586e-07
2.980387412e-07
2.999840122e-07
3.027339232e-07
3.059571361e-07
3.090268962e-07
3.118179211e-07
3.14190968e-07
3.163832656e-07
3.21323327e-07
3.268056872e-07
3.317539812e-07
3.361848656e-07
3.420100006e-07
3.483530385e-07
3.55118268e-07
3.622266351e-07
3.697439583e-07
3.776762366e-07
3.861306273e-07
3.954070926e-07
4.067205149e-07
4.201314118e-07
4.33045742e-07
4.460064093e-07
4.593928776e-07
4.733667218e-07
4.880094019e-07
5.033595276e-07
5.194050561e-07
5.360497184e-07
5.528542714e-07
5.700653331e-07
5.886021606e-07
6.095407426e-07
6.32901559e-07
6.588361073e-07
6.849596277e-07
7.123522919e-07
7.618203945e-07
8.122745666e-07
8.680723682e-07
9.293737915e-07
9.938165879e-07
1.062702909e-06
1.136497235e-06
1.218258405e-06
1.307859107e-06
1.406810711e-06
1.51455556e-06
1.633315289e-06
1.812204366e-06
2.022267101e-06
2.256620772e-06
2.516304126e-06
2.807743093e-06
3.136430638e-06
3.610051102e-06
4.19095019e-06
4.859936239e-06
5.654173294e-06
6.797207678e-06
8.102461341e-06
9.869243566e-06
1.214748839e-05
1.537063387e-05
1.976746624e-05
2.604829663e-05
3.526532281e-05
4.895675736e-05
7.023746519e-05
0.0001038283184
0.0001589280054
0.0002522791037
0.0004147171669
0.0006872762087
0.001046833041
0.001311052199
0.001261028298
0.001049811678
0.0009313640614
0.0007957814999
0.0006546796798
0.0005363494061
0.0004242444745
0.0003319484232
0.0002554764119
0.0001972547312
0.000155328188
0.0001240193186
0.0001004933204
8.28560511e-05
6.920600219e-05
5.855756009e-05
5.001333589e-05
4.291550603e-05
3.694903449e-05
3.187045584e-05
2.754311221e-05
2.384899552e-05
2.069844601e-05
1.80124278e-05
1.571735849e-05
1.375024032e-05
1.205756008e-05
1.059554776e-05
9.328070561e-06
8.225525268e-06
7.263424102e-06
6.421512801e-06
5.68293796e-06
5.033518618e-06
4.461243974e-06
3.956055193e-06
3.509353637e-06
3.113789149e-06
2.763042271e-06
2.451666131e-06
2.174952398e-06
1.928813729e-06
1.709696059e-06
1.514499951e-06
1.340523795e-06
1.185460688e-06
1.047439755e-06
9.25521159e-07
8.183978437e-07
7.233648419e-07
6.375408302e-07
5.60801002e-07
4.92632208e-07
4.327522094e-07
3.810104562e-07
3.377467398e-07
3.032412483e-07
2.760875434e-07
2.535200001e-07
2.340237746e-07
2.168541077e-07
2.016022326e-07
1.88009629e-07
1.758822704e-07
1.650625108e-07
1.554137119e-07
1.468107787e-07
1.431800788e-07
1.417192525e-07
1.404128452e-07
1.392451962e-07
1.381988358e-07
1.372598007e-07
1.364162477e-07
1.356582251e-07
1.349767528e-07
1.343639245e-07
1.338129644e-07
1.333176721e-07
1.328724769e-07
1.324723722e-07
1.32112859e-07
1.317898966e-07
1.314998521e-07
1.312394432e-07
1.310057118e-07
1.307959989e-07
1.306079202e-07
1.304393389e-07
1.302883437e-07
1.301532036e-07
1.300323208e-07
1.299242792e-07
1.298278126e-07
1.297417838e-07
1.296651687e-07
1.295970441e-07
1.295365776e-07
1.294830203e-07
1.294356988e-07
1.293940076e-07
1.29357402e-07
1.293253911e-07
1.292975319e-07
1.29273425e-07
1.292527096e-07
1.292350604e-07
1.292201846e-07
1.292078185e-07
1.29197725e-07
1.291896909e-07
1.291835239e-07
1.291790508e-07
1.291761155e-07
1.291745764e-07
1.291743061e-07
1.29175189e-07
1.291771206e-07
1.291800063e-07
1.291837604e-07
1.291883053e-07
1.291935708e-07
1.291994934e-07
1.292060155e-07
1.29213085e-07
1.292206549e-07
1.292286823e-07
1.292371286e-07
1.292459587e-07
1.292551405e-07
1.292646451e-07
1.292744457e-07
1.292845176e-07
1.292948351e-07
1.293053697e-07
1.293161109e-07
1.293270432e-07
1.293381514e-07
1.293494207e-07
1.293608377e-07
1.293723898e-07
1.293840653e-07
1.293958533e-07
1.294077442e-07
1.294197292e-07
1.294318011e-07
1.294439538e-07
1.294561794e-07
1.294684675e-07
1.294808095e-07
1.294931979e-07
1.295056259e-07
1.29518087e-07
1.295305751e-07
1.29543084e-07
1.29555608e-07
1.295681413e-07
1.295806784e-07
1.295932139e-07
1.296057423e-07
1.296182584e-07
1.296307569e-07
1.296432327e-07
1.296556807e-07
1.296680956e-07
1.296804726e-07
1.296928064e-07
1.297050922e-07
1.297173248e-07
1.297294993e-07
1.297416106e-07
1.297536538e-07
1.297656239e-07
1.297775158e-07
1.297893245e-07
1.298010451e-07
1.298126723e-07
1.298242009e-07
1.298356259e-07
1.298469417e-07
1.298581432e-07
1.298692248e-07
1.29880181e-07
1.298910064e-07
1.299016955e-07
1.29912243e-07
1.299226438e-07
1.299328928e-07
1.29942985e-07
1.299529158e-07
1.299626807e-07
1.299722752e-07
1.299816947e-07
1.299909349e-07
1.299999912e-07
1.30008859e-07
1.300175337e-07
1.300260107e-07
1.300342851e-07
1.300423523e-07
1.300502074e-07
1.300578457e-07
1.300652627e-07
1.300724534e-07
1.30079413e-07
1.30086137e-07
1.300926205e-07
1.300988592e-07
1.301048485e-07
1.301105842e-07
1.301160622e-07
1.301212787e-07
1.301262301e-07
1.301309128e-07
1.301353235e-07
1.30139459e-07
1.301433162e-07
1.301468917e-07
1.301501826e-07
1.301531856e-07
1.301558972e-07
1.301583138e-07
1.301604317e-07
1.30162247e-07
1.301637556e-07
1.301649541e-07
1.301658378e-07
1.301664022e-07
1.301666421e-07
1.301665526e-07
1.30166133e-07
1.30165372e-07
1.301642906e-07
1.301628657e-07
1.301611006e-07
1.301589922e-07
1.301565371e-07
1.301537323e-07
1.301505783e-07
1.301470689e-07
1.301432021e-07
1.301389754e-07
1.301343863e-07
1.301294328e-07
1.301241119e-07
1.301184217e-07
1.301123593e-07
1.301059204e-07
1.300991042e-07
1.300919081e-07
1.300843301e-07
1.30076368e-07
1.300680196e-07
1.300592829e-07
1.300501559e-07
1.300406365e-07
1.300307227e-07
1.300204127e-07
1.300097046e-07
1.299985967e-07
1.29987087e-07
1.299751738e-07
1.299628555e-07
1.299501302e-07
1.299369964e-07
1.299234524e-07
1.299094964e-07
1.298951269e-07
1.298803423e-07
1.298651408e-07
1.298495208e-07
1.298334806e-07
1.298170183e-07
1.298001322e-07
1.297828203e-07
1.297650805e-07
1.297469107e-07
1.297283088e-07
1.297092724e-07
1.296897991e-07
1.296698865e-07
1.296495319e-07
1.296287329e-07
1.296074866e-07
1.295857902e-07
1.295636407e-07
1.295410352e-07
1.295179707e-07
1.29494444e-07
1.294704522e-07
1.294459925e-07
1.294210622e-07
1.293956589e-07
1.293697806e-07
1.293434253e-07
1.293165912e-07
1.292892766e-07
1.292614791e-07
1.29233196e-07
1.292044239e-07
1.291751588e-07
1.29145396e-07
1.291151303e-07
1.290843562e-07
1.290530662e-07
1.290212481e-07
1.289889001e-07
1.289560091e-07
1.28922563e-07
1.288885486e-07
1.288539425e-07
1.288187286e-07
1.287828826e-07
1.287463767e-07
1.287091799e-07
1.286712703e-07
1.286325889e-07
1.285931125e-07
1.285527979e-07
1.285116016e-07
1.284694779e-07
1.284263787e-07
1.28382253e-07
1.283370465e-07
1.282907014e-07
1.282431559e-07
1.281943422e-07
1.281441874e-07
1.2809261e-07
1.280395164e-07
1.279847902e-07
1.279283503e-07
1.278701009e-07
1.278099301e-07
1.27747712e-07
1.276833037e-07
1.276165424e-07
1.275472438e-07
1.27475201e-07
1.274001856e-07
1.273219497e-07
1.272402293e-07
1.271547477e-07
1.270652249e-07
1.269714021e-07
1.268729405e-07
1.267695503e-07
1.266608732e-07
1.26546501e-07
1.264260244e-07
1.262989937e-07
1.261649211e-07
1.260232905e-07
1.258735647e-07
1.257151908e-07
1.25547734e-07
1.253707789e-07
1.251839748e-07
1.249870619e-07
1.24779917e-07
1.24562636e-07
1.243356324e-07
1.240998531e-07
1.238570577e-07
1.236101125e-07
1.233634778e-07
1.23123991e-07
1.229020408e-07
1.227133312e-07
1.225813462e-07
1.225415928e-07
1.226485265e-07
1.229861544e-07
1.23682535e-07
1.249455156e-07
1.27449924e-07
1.311575185e-07
1.358332827e-07
1.422764183e-07
3.901118963e-07
3.906567158e-07
3.91598067e-07
3.927258903e-07
3.938848421e-07
3.950219385e-07
3.962336044e-07
3.972462281e-07
3.970584028e-07
3.956035218e-07
3.943988941e-07
3.939188301e-07
3.938469982e-07
3.93956244e-07
3.941282353e-07
3.94293375e-07
3.944090106e-07
3.94450412e-07
3.944001395e-07
3.942428628e-07
3.939630487e-07
3.935398758e-07
3.929472352e-07
3.921436873e-07
3.910725232e-07
3.89641614e-07
3.877066365e-07
3.850375861e-07
3.813137432e-07
3.763989287e-07
3.707915737e-07
3.6584322e-07
3.611067186e-07
3.56004714e-07
3.499352175e-07
3.42422618e-07
3.333609825e-07
3.230948614e-07
3.1272427e-07
3.043510489e-07
2.978567122e-07
2.927343041e-07
2.886078568e-07
2.852360174e-07
2.824715519e-07
2.801726452e-07
2.782467064e-07
2.766307549e-07
2.752694337e-07
2.741236572e-07
2.731557062e-07
2.723404607e-07
2.716502699e-07
2.710673724e-07
2.705690458e-07
2.701421728e-07
2.697799509e-07
2.694722522e-07
2.692146198e-07
2.689940187e-07
2.688037612e-07
2.686451687e-07
2.685121223e-07
2.684041797e-07
2.683147541e-07
2.68243205e-07
2.681807385e-07
2.681262399e-07
2.680844688e-07
2.680512083e-07
2.680292833e-07
2.680137047e-07
2.680055485e-07
2.679977225e-07
2.679902844e-07
2.679888257e-07
2.679911886e-07
2.679995957e-07
2.68008261e-07
2.680165871e-07
2.680295987e-07
2.680426959e-07
2.680569608e-07
2.680782437e-07
2.681053716e-07
2.681410586e-07
2.681795133e-07
2.682218755e-07
2.682464587e-07
2.682781056e-07
2.683247476e-07
2.683856644e-07
2.684662246e-07
2.685673573e-07
2.686954612e-07
2.688419152e-07
2.690093822e-07
2.691945542e-07
2.69401986e-07
2.696300382e-07
2.698861107e-07
2.701763376e-07
2.705078028e-07
2.708671074e-07
2.71253052e-07
2.716596678e-07
2.72086235e-07
2.725366444e-07
2.730072688e-07
2.734993626e-07
2.740179159e-07
2.745593362e-07
2.751262387e-07
2.757249137e-07
2.763550353e-07
2.770222698e-07
2.777266115e-07
2.784730795e-07
2.792622966e-07
2.800962168e-07
2.809717973e-07
2.818903953e-07
2.828464361e-07
2.838385205e-07
2.848676333e-07
2.859273632e-07
2.870158737e-07
2.881229265e-07
2.892424586e-07
2.903605646e-07
2.91454588e-07
2.924895154e-07
2.934140762e-07
2.941414815e-07
2.945493387e-07
2.945086115e-07
2.939466561e-07
2.928360156e-07
2.911470655e-07
2.888548374e-07
2.85991753e-07
2.827886455e-07
2.799989218e-07
2.79238211e-07
2.800521738e-07
2.820068835e-07
2.847497367e-07
2.8798317e-07
2.913984431e-07
2.948761598e-07
2.984239617e-07
3.023078219e-07
3.073067094e-07
3.129155424e-07
3.186262614e-07
3.243785721e-07
3.30708107e-07
3.375589035e-07
3.448847655e-07
3.529380263e-07
3.614918731e-07
3.706056898e-07
3.804190828e-07
3.911794948e-07
4.032664761e-07
4.165688523e-07
4.303086406e-07
4.444567437e-07
4.591435241e-07
4.744787747e-07
4.905415752e-07
5.073860122e-07
5.250423491e-07
5.435204102e-07
5.629952913e-07
5.835818187e-07
6.057733643e-07
6.300887931e-07
6.567043036e-07
6.856121786e-07
7.163409405e-07
7.492923942e-07
7.855212179e-07
8.294866839e-07
9.005731811e-07
9.775983961e-07
1.060413065e-06
1.14988262e-06
1.247274256e-06
1.354383719e-06
1.472200211e-06
1.602633048e-06
1.746982936e-06
1.907502461e-06
2.139917228e-06
2.42660085e-06
2.749102693e-06
3.113463016e-06
3.527024977e-06
4.034498992e-06
4.755061928e-06
5.590817599e-06
6.561068766e-06
7.978558683e-06
9.686154107e-06
1.193833323e-05
1.485426372e-05
1.894207179e-05
2.451036209e-05
3.233817477e-05
4.364084984e-05
6.005659235e-05
8.490105272e-05
0.0001228218558
0.0001818377761
0.0002761520534
0.0004252304071
0.0006448949536
0.0009209069522
0.001182329996
0.001311567313
0.001238440075
0.001142468344
0.001034153716
0.0008963159529
0.0007489716166
0.0006134905541
0.0004984931661
0.0004136624748
0.0003297575157
0.0002624653856
0.0002080212273
0.0001659802569
0.000134095202
0.0001099532395
9.140879546e-05
7.670782538e-05
6.490944083e-05
5.531073181e-05
4.739925957e-05
4.081004405e-05
3.527954017e-05
3.060629704e-05
2.663820716e-05
2.325492944e-05
2.035615873e-05
1.786265069e-05
1.57081385e-05
1.383968118e-05
1.221347033e-05
1.079380612e-05
9.55088796e-06
8.460004366e-06
7.500415774e-06
6.654601079e-06
5.907771765e-06
5.24723576e-06
4.662204811e-06
4.143380359e-06
3.682764569e-06
3.273419946e-06
2.909336303e-06
2.585278632e-06
2.296697362e-06
2.039627296e-06
1.810631549e-06
1.606749584e-06
1.425453042e-06
1.264540647e-06
1.121593864e-06
9.938146765e-07
8.792751608e-07
7.772345659e-07
6.867811336e-07
6.07229751e-07
5.379428902e-07
4.783546786e-07
4.276334639e-07
3.843151453e-07
3.466539477e-07
3.134552351e-07
2.839669334e-07
2.576803433e-07
2.342176733e-07
2.132716125e-07
1.945800563e-07
1.779115188e-07
1.707884854e-07
1.680251889e-07
1.655462865e-07
1.633233378e-07
1.613283803e-07
1.595357943e-07
1.579238532e-07
1.564733302e-07
1.551681807e-07
1.53993089e-07
1.529343769e-07
1.519808984e-07
1.511219956e-07
1.503481783e-07
1.496509132e-07
1.490225338e-07
1.484561605e-07
1.479456276e-07
1.47485343e-07
1.470702622e-07
1.466958496e-07
1.463580425e-07
1.460531971e-07
1.457780137e-07
1.455295209e-07
1.453050822e-07
1.451022992e-07
1.449190181e-07
1.447533047e-07
1.446034163e-07
1.444677804e-07
1.44344979e-07
1.442337352e-07
1.441329021e-07
1.440414499e-07
1.439584525e-07
1.43883076e-07
1.438145687e-07
1.437522521e-07
1.436955144e-07
1.436438039e-07
1.435966242e-07
1.435535291e-07
1.435141183e-07
1.434780319e-07
1.434449468e-07
1.434145721e-07
1.433866458e-07
1.433609318e-07
1.433372172e-07
1.433153098e-07
1.432950363e-07
1.432762398e-07
1.432587789e-07
1.43242526e-07
1.432273658e-07
1.432131945e-07
1.431999182e-07
1.431874527e-07
1.431757218e-07
1.431646569e-07
1.431541962e-07
1.431442839e-07
1.431348697e-07
1.431259082e-07
1.431173585e-07
1.431091843e-07
1.431013547e-07
1.43093846e-07
1.430866193e-07
1.430796476e-07
1.430729077e-07
1.430663785e-07
1.430600408e-07
1.430538772e-07
1.430478716e-07
1.430420094e-07
1.430362774e-07
1.430306639e-07
1.430251599e-07
1.43019762e-07
1.430144627e-07
1.430092443e-07
1.430040964e-07
1.429990107e-07
1.429939797e-07
1.429889964e-07
1.429840542e-07
1.429791467e-07
1.429742681e-07
1.429694126e-07
1.429645749e-07
1.429597495e-07
1.429549315e-07
1.429501157e-07
1.429452976e-07
1.429404721e-07
1.429356349e-07
1.429307814e-07
1.429259071e-07
1.429210076e-07
1.429160786e-07
1.429111159e-07
1.429061153e-07
1.429010726e-07
1.428959838e-07
1.428908447e-07
1.428856514e-07
1.428803998e-07
1.428750859e-07
1.428697056e-07
1.428642546e-07
1.428587287e-07
1.428531235e-07
1.428474343e-07
1.428416565e-07
1.428357852e-07
1.428298154e-07
1.428237424e-07
1.428175613e-07
1.428112675e-07
1.428048566e-07
1.427983242e-07
1.427916666e-07
1.427848798e-07
1.427779601e-07
1.427709039e-07
1.427637072e-07
1.42756366e-07
1.427488761e-07
1.42741233e-07
1.42733432e-07
1.427254683e-07
1.427173369e-07
1.427090328e-07
1.427005508e-07
1.426918857e-07
1.42683032e-07
1.426739841e-07
1.426647363e-07
1.426552831e-07
1.426456188e-07
1.426357378e-07
1.426256348e-07
1.426153046e-07
1.426047423e-07
1.425939433e-07
1.42582903e-07
1.425716171e-07
1.425600814e-07
1.425482915e-07
1.42536243e-07
1.425239315e-07
1.425113522e-07
1.424985e-07
1.424853692e-07
1.424719538e-07
1.424582472e-07
1.424442426e-07
1.424299335e-07
1.424153124e-07
1.424003719e-07
1.423851013e-07
1.423694861e-07
1.423535287e-07
1.423372242e-07
1.423205703e-07
1.423035557e-07
1.42286175e-07
1.422684213e-07
1.42250287e-07
1.422317582e-07
1.422128448e-07
1.421935239e-07
1.421737918e-07
1.421536399e-07
1.421330603e-07
1.421120465e-07
1.420905872e-07
1.420686767e-07
1.420463059e-07
1.420234579e-07
1.420001295e-07
1.419763091e-07
1.419519876e-07
1.419271547e-07
1.419018001e-07
1.41875913e-07
1.418494826e-07
1.418224975e-07
1.417949464e-07
1.417668173e-07
1.417380984e-07
1.41708777e-07
1.416788404e-07
1.416482753e-07
1.416170683e-07
1.415852054e-07
1.415526721e-07
1.415194535e-07
1.414855344e-07
1.414508989e-07
1.414155306e-07
1.413794126e-07
1.413425271e-07
1.41304856e-07
1.412663803e-07
1.412270802e-07
1.411869351e-07
1.411459234e-07
1.411040229e-07
1.410612101e-07
1.410174608e-07
1.409727497e-07
1.409270504e-07
1.408803357e-07
1.40832577e-07
1.407837445e-07
1.407338074e-07
1.406827334e-07
1.406304889e-07
1.405770391e-07
1.405223479e-07
1.404663777e-07
1.4040909e-07
1.40350445e-07
1.40290402e-07
1.402289189e-07
1.401659529e-07
1.401014594e-07
1.40035392e-07
1.39967702e-07
1.398983375e-07
1.398272437e-07
1.397543623e-07
1.396796314e-07
1.396029862e-07
1.395243598e-07
1.394436846e-07
1.393608578e-07
1.392758312e-07
1.391885041e-07
1.390987849e-07
1.390065872e-07
1.389117751e-07
1.388142541e-07
1.387138952e-07
1.386105635e-07
1.385041154e-07
1.383943992e-07
1.382812488e-07
1.381644981e-07
1.38043969e-07
1.379194745e-07
1.377908193e-07
1.376577986e-07
1.37520198e-07
1.373777919e-07
1.372303429e-07
1.370776011e-07
1.369193024e-07
1.367551676e-07
1.365848985e-07
1.364081747e-07
1.36224654e-07
1.360339881e-07
1.358358118e-07
1.356297373e-07
1.354153482e-07
1.351921922e-07
1.34959775e-07
1.347175557e-07
1.344649456e-07
1.342013096e-07
1.339259699e-07
1.336382109e-07
1.333372835e-07
1.330224122e-07
1.326927971e-07
1.323475868e-07
1.319858665e-07
1.316067836e-07
1.31209489e-07
1.30793038e-07
1.303563861e-07
1.298984277e-07
1.294180338e-07
1.289140968e-07
1.283855873e-07
1.278314934e-07
1.272510248e-07
1.26643632e-07
1.260090453e-07
1.253473836e-07
1.246593842e-07
1.239465376e-07
1.232116249e-07
1.22459397e-07
1.216970849e-07
1.209353756e-07
1.201899718e-07
1.194838124e-07
1.202998959e-07
1.21554907e-07
1.229520042e-07
1.245181038e-07
1.262869071e-07
1.28300253e-07
1.30608546e-07
1.332671693e-07
1.363217484e-07
1.397608123e-07
1.433872938e-07
3.514239439e-07
3.518021823e-07
3.524508636e-07
3.532506434e-07
3.54094144e-07
3.549075242e-07
3.556359689e-07
3.561031511e-07
3.560334781e-07
3.55426936e-07
3.547646255e-07
3.543169157e-07
3.540659466e-07
3.539333818e-07
3.538503843e-07
3.537644225e-07
3.536367016e-07
3.534391229e-07
3.531494246e-07
3.527469633e-07
3.522110557e-07
3.515171212e-07
3.506343727e-07
3.495208153e-07
3.481202807e-07
3.463547665e-07
3.441198139e-07
3.412858991e-07
3.3774279e-07
3.335091319e-07
3.288490825e-07
3.241677618e-07
3.193731296e-07
3.14197446e-07
3.08347275e-07