/*--------------------------------*- C++ -*----------------------------------*\
| =========                 |                                                 |
| \\      /  F ield         | OpenFOAM: The Open Source CFD Toolbox           |
|  \\    /   O peration     | Version:  v2006                                 |
|   \\  /    A nd           | Website:  www.openfoam.com                      |
|    \\/     M anipulation  |                                                 |
\*---------------------------------------------------------------------------*/
FoamFile
{
    version     2.0;
    format      ascii;
    class       volScalarField;
    location    "0.075";
    object      CO;
}
// * * * * * * * * * * * * * * * * * * * * * * * * * * * * * * * * * * * * * //

dimensions      [0 0 0 0 0 0 0];


internalField   nonuniform List<scalar> 
72000
(
0.002016828145
0.00202054023
0.002027473048
0.002033041671
0.002036620529
0.002036840925
0.002045686331
0.002069929376
0.002056304822
0.002017908033
0.002004389651
0.002008863898
0.002012561268
0.002015711702
0.002017705774
0.002020326831
0.002022290641
0.002023149297
0.002024927452
0.002025651287
0.002027033489
0.002027422817
0.002028148602
0.002027809566
0.002027987266
0.002027572219
0.002026701637
0.002025460439
0.002016758252
0.001991393811
0.001939636246
0.001932018845
0.001925052455
0.001917675362
0.001904836818
0.001879040041
0.00183963506
0.001783191545
0.001701860639
0.001673927025
0.001658275332
0.001646312233
0.001636748944
0.001628617348
0.001622415318
0.001617055438
0.001612400064
0.001609018974
0.001605680867
0.001603546035
0.001601015278
0.001599682383
0.001597719947
0.00159689201
0.001595727939
0.001594716477
0.001594079617
0.001593078297
0.001592911042
0.001592472216
0.001591672107
0.001591577456
0.001591027236
0.00159129273
0.001590719151
0.001590902698
0.001590643551
0.001590234632
0.001590341824
0.001589834513
0.001590115976
0.001589907806
0.001590054644
0.001589859848
0.001589634315
0.001589761051
0.001589319116
0.001589739034
0.001589564548
0.001589291831
0.001589328688
0.001589297642
0.001588729849
0.001589024076
0.001588719996
0.001588906451
0.00158884575
0.001588486152
0.001588719414
0.001588195908
0.001588453354
0.001588255924
0.001588753277
0.001588430842
0.001588876233
0.00158860517
0.001589193466
0.001589109707
0.001589416847
0.001589497274
0.001589982812
0.001590040609
0.001590570808
0.00159051827
0.001591295655
0.001591537603
0.001591544263
0.001592336911
0.001592738501
0.001592875038
0.001593742633
0.001594188054
0.001594678307
0.001595668466
0.001596145931
0.001597273836
0.001598177439
0.00159939288
0.001600462183
0.001602131287
0.001603261794
0.00160506544
0.001606490326
0.001607797983
0.00160970186
0.001611267437
0.001613541651
0.001615173724
0.001617068896
0.00161933361
0.001621654274
0.001623729987
0.001626162008
0.001627929941
0.001629792971
0.001628440867
0.00162434463
0.001617890236
0.00160890631
0.001596606479
0.001579270311
0.001553282067
0.001511104296
0.001509152102
0.001511286192
0.001516053274
0.001522448483
0.001530579154
0.001536635596
0.001540891829
0.001541295543
0.0015310398
0.001544063167
0.001557721586
0.001565153103
0.001563724486
0.001573210381
0.001582824374
0.001593299948
0.001603777187
0.001614754521
0.001625811998
0.001637243318
0.001649131429
0.00167167415
0.00170723585
0.001732685349
0.00175604669
0.001779698758
0.001803822397
0.001828532449
0.00185381766
0.00187942551
0.001904527249
0.001926932724
0.001947639381
0.001970678339
0.002003919846
0.002042502829
0.00208931808
0.002125564438
0.002155058714
0.002197947782
0.002232277243
0.002275642145
0.002325742468
0.002374191188
0.002425220984
0.002477468408
0.002539685282
0.002607245877
0.002681372951
0.002756775163
0.002835627231
0.00291925523
0.00301068513
0.003111771484
0.003219774028
0.003335580981
0.003459755809
0.003593860906
0.003741328707
0.00390198434
0.00407366393
0.004264084216
0.004476328541
0.004714970343
0.004988197298
0.005306863407
0.005676584107
0.006119866926
0.006658937378
0.007324623114
0.00816043463
0.009228204266
0.01061854924
0.01245599874
0.01491406144
0.01823300151
0.02291673752
0.03110188924
0.03418609265
0.02507457974
0.01921926751
0.01525560375
0.01190434085
0.009211123885
0.007026743838
0.005284746094
0.003833703518
0.00271957765
0.001988465519
0.001531231979
0.001212677664
0.0009952992729
0.0008391132387
0.0007147693646
0.0006119803759
0.0005251588028
0.0004508844883
0.0003900070087
0.0003381002714
0.0002918497339
0.0002518284315
0.0002177202889
0.0001887464419
0.0001641007275
0.0001430645235
0.0001250374509
0.0001095240325
9.611961199e-05
8.449348485e-05
7.437503103e-05
6.554010418e-05
5.780308259e-05
5.101080669e-05
4.503460998e-05
3.976588842e-05
3.511221615e-05
3.099493689e-05
2.734685597e-05
2.41102003e-05
2.123507521e-05
1.867819593e-05
1.640175008e-05
1.437227674e-05
1.255904634e-05
1.093043582e-05
9.494075227e-06
8.250262198e-06
7.157803768e-06
6.170697208e-06
5.284851212e-06
4.494788874e-06
3.797508262e-06
3.194320719e-06
2.700088787e-06
2.368201508e-06
2.176844587e-06
2.033697786e-06
1.913960225e-06
1.809604109e-06
1.717223408e-06
1.635072328e-06
1.561839002e-06
1.496552958e-06
1.438348115e-06
1.386464911e-06
1.340176816e-06
1.29878329e-06
1.291120865e-06
1.285293116e-06
1.280096533e-06
1.275450891e-06
1.271291946e-06
1.267567156e-06
1.264230712e-06
1.261242619e-06
1.258568199e-06
1.25617617e-06
1.254038406e-06
1.252129624e-06
1.250427098e-06
1.248910408e-06
1.247561179e-06
1.24636283e-06
1.245300421e-06
1.244360521e-06
1.243531077e-06
1.242801285e-06
1.242161457e-06
1.241602815e-06
1.241117332e-06
1.240697837e-06
1.240337914e-06
1.240031801e-06
1.239774312e-06
1.23956077e-06
1.239386962e-06
1.23924909e-06
1.23914374e-06
1.239067838e-06
1.239018615e-06
1.238993574e-06
1.23899046e-06
1.239007235e-06
1.23904206e-06
1.239093271e-06
1.239159366e-06
1.239238994e-06
1.239330933e-06
1.239434081e-06
1.239547443e-06
1.239670121e-06
1.239801299e-06
1.239940237e-06
1.240086266e-06
1.240238776e-06
1.240397214e-06
1.240561077e-06
1.240729906e-06
1.240903285e-06
1.241080833e-06
1.241262205e-06
1.241447085e-06
1.241635187e-06
1.241826248e-06
1.242020027e-06
1.242216306e-06
1.242414884e-06
1.242615575e-06
1.242818208e-06
1.243022626e-06
1.243228676e-06
1.243436207e-06
1.243645066e-06
1.243855162e-06
1.244066394e-06
1.244278668e-06
1.244491882e-06
1.24470595e-06
1.244920785e-06
1.245136304e-06
1.245352433e-06
1.2455691e-06
1.245786238e-06
1.246003789e-06
1.246221698e-06
1.2464399e-06
1.246658326e-06
1.246876909e-06
1.247095589e-06
1.24731431e-06
1.247533016e-06
1.247751654e-06
1.247970173e-06
1.24818852e-06
1.248406645e-06
1.248624498e-06
1.24884203e-06
1.249059193e-06
1.249275936e-06
1.249492214e-06
1.249707977e-06
1.249923178e-06
1.25013777e-06
1.250351705e-06
1.250564937e-06
1.250777417e-06
1.2509891e-06
1.251199939e-06
1.251409887e-06
1.251618896e-06
1.25182692e-06
1.252033914e-06
1.252239829e-06
1.25244462e-06
1.252648239e-06
1.25285064e-06
1.253051775e-06
1.253251599e-06
1.253450063e-06
1.25364712e-06
1.253842724e-06
1.254036827e-06
1.254229386e-06
1.254420353e-06
1.254609687e-06
1.254797344e-06
1.254983283e-06
1.255167465e-06
1.255349851e-06
1.255530404e-06
1.255709087e-06
1.255885863e-06
1.256060698e-06
1.256233555e-06
1.256404399e-06
1.256573197e-06
1.256739914e-06
1.256904516e-06
1.257066972e-06
1.25722724e-06
1.257385307e-06
1.257541128e-06
1.257694677e-06
1.257845925e-06
1.257994843e-06
1.258141405e-06
1.258285587e-06
1.258427362e-06
1.25856671e-06
1.258703611e-06
1.258838045e-06
1.258969997e-06
1.25909945e-06
1.259226391e-06
1.259350806e-06
1.259472685e-06
1.259592015e-06
1.259708786e-06
1.259822989e-06
1.259934611e-06
1.260043645e-06
1.260150082e-06
1.26025389e-06
1.260355109e-06
1.26045369e-06
1.260549637e-06
1.260642939e-06
1.260733591e-06
1.260821597e-06
1.260906952e-06
1.260989721e-06
1.261069861e-06
1.261147392e-06
1.261222324e-06
1.261294668e-06
1.261364437e-06
1.261431654e-06
1.261496325e-06
1.261558471e-06
1.261618111e-06
1.261675268e-06
1.261729968e-06
1.261782235e-06
1.261832098e-06
1.261879584e-06
1.26192472e-06
1.261967543e-06
1.262008089e-06
1.262046398e-06
1.262082512e-06
1.262116473e-06
1.262148328e-06
1.262178124e-06
1.262205915e-06
1.262231753e-06
1.262255695e-06
1.262277801e-06
1.262298134e-06
1.26231676e-06
1.262333746e-06
1.262349166e-06
1.262363095e-06
1.262375611e-06
1.262386797e-06
1.26239674e-06
1.262405528e-06
1.262413255e-06
1.262420019e-06
1.262425922e-06
1.262431069e-06
1.262435572e-06
1.262439543e-06
1.262443102e-06
1.262446374e-06
1.262449487e-06
1.262452575e-06
1.262455778e-06
1.262459241e-06
1.262463116e-06
1.26246756e-06
1.262472738e-06
1.262478822e-06
1.262485991e-06
1.262494431e-06
1.262504338e-06
1.262515914e-06
1.262529373e-06
1.262544939e-06
1.262562845e-06
1.262583339e-06
1.262606678e-06
1.262633135e-06
1.262662996e-06
1.262696558e-06
1.262734135e-06
1.26277605e-06
1.262822641e-06
1.262874258e-06
1.262931264e-06
1.262994035e-06
1.263062965e-06
1.263138462e-06
1.263220946e-06
1.263310845e-06
1.263408635e-06
1.263514783e-06
1.263629774e-06
1.263754108e-06
1.263888284e-06
1.264032839e-06
1.264188311e-06
1.264355255e-06
1.264534246e-06
1.264725898e-06
1.264930769e-06
1.265149539e-06
1.265382877e-06
1.265631488e-06
1.265896107e-06
1.266177512e-06
1.266476515e-06
1.266793966e-06
1.267130755e-06
1.267487849e-06
1.267866169e-06
1.268266768e-06
1.268690702e-06
1.269139103e-06
1.269613362e-06
1.270114533e-06
1.270643854e-06
1.271202685e-06
1.271792444e-06
1.272414597e-06
1.273070654e-06
1.273762167e-06
1.274490746e-06
1.275258074e-06
1.276065938e-06
1.276916256e-06
1.277811113e-06
1.278752745e-06
1.279743258e-06
1.280785839e-06
1.281883855e-06
1.283040668e-06
1.284259832e-06
1.285545313e-06
1.286901461e-06
1.288333082e-06
1.289845564e-06
1.291445024e-06
1.293138534e-06
1.294934649e-06
1.29684337e-06
1.298876474e-06
1.30104791e-06
1.303374345e-06
1.305875944e-06
1.308577401e-06
1.311509559e-06
1.31471151e-06
1.318233201e-06
1.322139273e-06
1.326514815e-06
1.331473845e-06
1.337171953e-06
1.343823458e-06
1.351735566e-06
1.36135209e-06
1.373339641e-06
1.388721611e-06
1.40914068e-06
1.43721998e-06
1.477194739e-06
1.737817163e-06
2.16604069e-06
0.001877441258
0.001879326886
0.001882556939
0.001885820426
0.001888464379
0.00189043938
0.001894014033
0.001899240178
0.001895133622
0.001882374985
0.001874716474
0.001872990547
0.001872960662
0.001873482614
0.001874132258
0.001874757725
0.001875264051
0.001875605455
0.00187576762
0.001875721542
0.001875457266
0.001874927792
0.00187410324
0.001872879838
0.001871177033
0.001868772482
0.001865279079
0.001859836967
0.001850226044
0.001834312959
0.001813329276
0.001800838172
0.00179044629
0.001779348093
0.001764656717
0.0017436668
0.001715428007
0.001679958046
0.001640557059
0.001615246004
0.001598234951
0.001585553373
0.001575588397
0.001567546141
0.001560980739
0.001555553063
0.001551030478
0.001547265679
0.001544108891
0.001541479431
0.001539263756
0.001537424788
0.001535863384
0.001534570069
0.001533462507
0.001532525851
0.00153172163
0.001531037733
0.001530490223
0.001530023327
0.001529616607
0.001529284292
0.001529011175
0.001528801187
0.00152862745
0.001528503518
0.001528383796
0.001528271572
0.001528202804
0.001528138932
0.001528114407
0.001528099397
0.001528108205
0.001528104425
0.001528096808
0.001528105012
0.001528117486
0.001528155278
0.001528184998
0.001528202999
0.001528237664
0.001528267018
0.001528286181
0.001528329049
0.001528381205
0.001528462949
0.001528543196
0.001528629959
0.001528780186
0.001528951916
0.001529166942
0.001529417982
0.00152971832
0.001530045557
0.001530428021
0.001530838722
0.001531306604
0.00153180236
0.001532350195
0.001532937193
0.001533579105
0.001534262545
0.001535009134
0.001535794729
0.001536638264
0.001537519318
0.00153843981
0.001539424777
0.001540451047
0.001541522865
0.001542672228
0.0015438641
0.001545117685
0.001546458134
0.001547870357
0.001549380878
0.001550974866
0.001552665874
0.001554464235
0.001556366412
0.001558350603
0.001560437418
0.001562595651
0.001564833026
0.001567160189
0.001569551256
0.001572031143
0.001574556679
0.001577131066
0.001579734825
0.001582317715
0.001584797532
0.001587066259
0.001588895627
0.001589918171
0.001589307813
0.00158685673
0.001582568076
0.00157632776
0.0015677296
0.001556142836
0.001541127218
0.001524343915
0.00152017072
0.001521337442
0.001525490104
0.001531454697
0.001538283964
0.001544256218
0.001549042
0.001552297987
0.001554730371
0.001564393091
0.001575265329
0.001584351788
0.001591761548
0.001602686599
0.001614751114
0.001627650415
0.001641177993
0.001655485487
0.001670616762
0.001686901088
0.001705255541
0.001728978664
0.001758004296
0.001785046167
0.001811283431
0.001837657828
0.001864555504
0.001892130871
0.001920398152
0.001949212974
0.001978203177
0.002006344774
0.002034467605
0.002065230958
0.002101725507
0.002143861198
0.002191377435
0.002237079534
0.002282371271
0.002332995513
0.002383411638
0.002439852164
0.002502053231
0.002565665218
0.002631874268
0.002701343875
0.002778881974
0.002863929938
0.002957124375
0.003055298637
0.003160248853
0.003271811198
0.00339514277
0.003531505573
0.003679512952
0.003843905843
0.004027171654
0.004232341583
0.004462729908
0.004722747865
0.005018652276
0.005354903969
0.005761164202
0.006231682893
0.006783305591
0.007437923342
0.008223746424
0.009171694805
0.01032483809
0.01174019681
0.01349231288
0.01568253676
0.01844490672
0.02195563858
0.02642232101
0.03184638799
0.03697843666
0.03821492425
0.03174803743
0.02422652924
0.01960574287
0.01571302668
0.01236541108
0.009764868124
0.007530977235
0.005765159592
0.004369107666
0.00334641692
0.002625302072
0.002098769166
0.001709058602
0.001415642466
0.001187031953
0.001006573362
0.0008603020713
0.0007383674214
0.0006356529873
0.0005480964824
0.0004734577074
0.0004097752799
0.0003554936327
0.0003092396524
0.0002697338722
0.0002358851235
0.0002067670913
0.0001816234276
0.0001598302014
0.0001408766119
0.0001243403113
0.0001098721439
9.718169828e-05
8.602458142e-05
7.619389382e-05
6.75164398e-05
5.984417312e-05
5.305068028e-05
4.702725686e-05
4.168021231e-05
3.69285768e-05
3.270206027e-05
2.893954409e-05
2.558772297e-05
2.260011467e-05
1.993694745e-05
1.756565137e-05
1.546888736e-05
1.362446462e-05
1.198825738e-05
1.051094457e-05
9.189221331e-06
8.01358652e-06
6.978350521e-06
6.079907987e-06
5.322666172e-06
4.71040033e-06
4.221228275e-06
3.811441887e-06
3.456202482e-06
3.142961122e-06
2.864614698e-06
2.61655715e-06
2.395281415e-06
2.197913547e-06
2.021956369e-06
1.865116702e-06
1.802154439e-06
1.779827533e-06
1.759851609e-06
1.741989736e-06
1.725976085e-06
1.711597996e-06
1.69867495e-06
1.687055231e-06
1.67660193e-06
1.66719449e-06
1.658729596e-06
1.651112712e-06
1.644258906e-06
1.63809185e-06
1.632542952e-06
1.627550614e-06
1.623059457e-06
1.619019443e-06
1.615385481e-06
1.612117038e-06
1.609177774e-06
1.606535115e-06
1.604159934e-06
1.602025845e-06
1.6001085e-06
1.598386318e-06
1.596840004e-06
1.595452227e-06
1.594207386e-06
1.593091413e-06
1.592091629e-06
1.591196627e-06
1.590396149e-06
1.589680977e-06
1.589042816e-06
1.588474195e-06
1.587968372e-06
1.587519271e-06
1.587121402e-06
1.586769824e-06
1.586460081e-06
1.586188171e-06
1.585950492e-06
1.585743808e-06
1.585565202e-06
1.58541205e-06
1.585281983e-06
1.585172862e-06
1.585082755e-06
1.585009918e-06
1.58495277e-06
1.584909884e-06
1.584879969e-06
1.584861855e-06
1.584854487e-06
1.58485691e-06
1.584868261e-06
1.58488776e-06
1.584914702e-06
1.584948449e-06
1.584988425e-06
1.585034107e-06
1.585085022e-06
1.58514074e-06
1.585200869e-06
1.585265041e-06
1.585332882e-06
1.585403969e-06
1.585478152e-06
1.585555213e-06
1.585634928e-06
1.585717087e-06
1.585801497e-06
1.58588798e-06
1.585976369e-06
1.586066514e-06
1.586158276e-06
1.586251537e-06
1.586346197e-06
1.586442179e-06
1.586539374e-06
1.586637635e-06
1.586736843e-06
1.586836898e-06
1.586937709e-06
1.587039187e-06
1.587141252e-06
1.587243823e-06
1.587346824e-06
1.587450179e-06
1.587553818e-06
1.587657669e-06
1.587761661e-06
1.587865726e-06
1.587969796e-06
1.588073806e-06
1.588177687e-06
1.588281375e-06
1.588384805e-06
1.58848791e-06
1.588590626e-06
1.588692888e-06
1.588794632e-06
1.588895794e-06
1.588996308e-06
1.589096108e-06
1.589195132e-06
1.589293312e-06
1.589390583e-06
1.589486878e-06
1.589582128e-06
1.589676265e-06
1.589769217e-06
1.589860914e-06
1.58995128e-06
1.590040243e-06
1.590127728e-06
1.590213662e-06
1.590297972e-06
1.590380587e-06
1.590461439e-06
1.59054046e-06
1.590617586e-06
1.590692756e-06
1.590765907e-06
1.590836977e-06
1.590905905e-06
1.590972627e-06
1.591037079e-06
1.591099194e-06
1.591158906e-06
1.591216146e-06
1.591270846e-06
1.591322937e-06
1.591372347e-06
1.59141901e-06
1.591462854e-06
1.591503808e-06
1.591541801e-06
1.591576763e-06
1.591608625e-06
1.59163732e-06
1.591662782e-06
1.591684947e-06
1.591703757e-06
1.591719153e-06
1.591731081e-06
1.591739486e-06
1.591744316e-06
1.591745519e-06
1.591743043e-06
1.591736834e-06
1.591726837e-06
1.591712995e-06
1.591695247e-06
1.591673528e-06
1.591647771e-06
1.591617906e-06
1.591583871e-06
1.591545587e-06
1.591502975e-06
1.591455943e-06
1.591404407e-06
1.591348344e-06
1.591287569e-06
1.591222386e-06
1.591152431e-06
1.591077741e-06
1.590998248e-06
1.590913887e-06
1.590824596e-06
1.590730361e-06
1.590631069e-06
1.590526672e-06
1.590417108e-06
1.590302319e-06
1.59018225e-06
1.590056833e-06
1.589926015e-06
1.589789721e-06
1.589647865e-06
1.589500401e-06
1.589347264e-06
1.58918839e-06
1.589023717e-06
1.588853177e-06
1.588676704e-06
1.588494233e-06
1.588305695e-06
1.588111023e-06
1.587910147e-06
1.587702997e-06
1.587489504e-06
1.587269594e-06
1.587043195e-06
1.586810232e-06
1.586570628e-06
1.586324308e-06
1.586071191e-06
1.585811195e-06
1.585544239e-06
1.585270236e-06
1.584989098e-06
1.584700735e-06
1.584405053e-06
1.584101954e-06
1.583791336e-06
1.583473094e-06
1.583147119e-06
1.582813294e-06
1.582471501e-06
1.582121617e-06
1.581763511e-06
1.58139705e-06
1.581022095e-06
1.5806385e-06
1.580246117e-06
1.579844787e-06
1.579434348e-06
1.579014632e-06
1.578585463e-06
1.578146662e-06
1.577698043e-06
1.577239419e-06
1.576770597e-06
1.576291382e-06
1.575801578e-06
1.575300983e-06
1.57478939e-06
1.574266584e-06
1.573732334e-06
1.573186394e-06
1.572628498e-06
1.572058361e-06
1.571475679e-06
1.570880129e-06
1.57027137e-06
1.569649025e-06
1.569012629e-06
1.568361859e-06
1.567696215e-06
1.567015194e-06
1.566318259e-06
1.565604705e-06
1.564873919e-06
1.56412515e-06
1.563357573e-06
1.562570294e-06
1.56176254e-06
1.560932947e-06
1.560080677e-06
1.559204563e-06
1.558303406e-06
1.557375947e-06
1.556420863e-06
1.555436754e-06
1.554422139e-06
1.553375448e-06
1.552295012e-06
1.551179032e-06
1.550025587e-06
1.548832584e-06
1.547597692e-06
1.546318182e-06
1.544991807e-06
1.54361603e-06
1.542188009e-06
1.540704612e-06
1.539162371e-06
1.537557433e-06
1.535885522e-06
1.534141917e-06
1.532321458e-06
1.530418569e-06
1.528427287e-06
1.526341313e-06
1.524154129e-06
1.521859355e-06
1.519449187e-06
1.516916338e-06
1.514252225e-06
1.511447212e-06
1.50849132e-06
1.505373583e-06
1.502082021e-06
1.49860374e-06
1.494924953e-06
1.491030981e-06
1.48690817e-06
1.482542262e-06
1.477918924e-06
1.473023937e-06
1.467843652e-06
1.462365919e-06
1.456581188e-06
1.450485269e-06
1.444082901e-06
1.437391331e-06
1.430446527e-06
1.423313457e-06
1.416101681e-06
1.408988972e-06
1.402254244e-06
1.396335228e-06
1.391923475e-06
1.390109706e-06
1.392579539e-06
1.402116397e-06
1.428381358e-06
1.470043072e-06
1.522583971e-06
1.597186655e-06
0.001798545597
0.001799623032
0.001801425198
0.001803415379
0.001805198409
0.001806659
0.001808090983
0.001808880777
0.001806653014
0.001801415569
0.001797016901
0.001794629846
0.001793426014
0.001792808945
0.001792461619
0.001792195153
0.001791892775
0.001791483436
0.0017909152
0.001790144408
0.001789127677
0.001787811321
0.0017861291
0.001783979577
0.001781224503
0.001777640748
0.001772875978
0.001766365315
0.001757313433
0.001745374995
0.001731776804
0.001719871019
0.001708528032
0.001696312358
0.001681736946
0.001663628667
0.001641722812
0.001616856974
0.001591751926
0.001571629219
0.00155614504
0.001544004662
0.00153426666
0.001526334272
0.001519846746
0.001514463178
0.001509961471
0.001506188328
0.001503014963
0.001500346854
0.001498097944
0.001496206538
0.001494610394
0.0014932657
0.001492122826
0.001491150861
0.001490329708
0.001489638075
0.001489063688
0.001488579844
0.001488170595
0.001487835158
0.001487561461
0.001487345903
0.001487175925
0.001487048049
0.001486945664
0.001486865842
0.001486815854
0.001486787817
0.001486785702
0.00148680048
0.001486832534
0.001486869245
0.001486910561
0.001486965526
0.001487031344
0.001487111156
0.001487195575
0.001487282972
0.001487381721
0.001487484668
0.001487594175
0.001487719927
0.001487861642
0.001488023602
0.00148819641
0.001488382718
0.001488480409
0.001488592843
0.001488740111
0.001488923074
0.001489152317
0.001489432437
0.001489776392
0.001490165595
0.001490603918
0.001491085486
0.001491618693
0.001492201618
0.001492849207
0.001493577723
0.001494401339
0.001495290733
0.00149624092
0.001497240376
0.00149828618
0.001499383886
0.001500527065
0.001501718107
0.001502965559
0.001504263328
0.001505617093
0.001507037961
0.001508526701
0.00151009458
0.00151174376
0.001513483976
0.001515318854
0.001517250391
0.001519273237
0.001521388537
0.001523585657
0.001525860358
0.001528210939
0.001530622929
0.001533089082
0.001535585671
0.00153809394
0.001540578764
0.001542985402
0.001545230207
0.001547190677
0.001548658396
0.001549338955
0.001548921433
0.00154722982
0.001544193993
0.001539655126
0.00153355823
0.001526015767
0.001517565195
0.001510018743
0.001507278408
0.001508182943
0.001511623357
0.001516708205
0.001522673094
0.001528735849
0.001534608108
0.00154033734
0.00154663651
0.001555483061
0.001565599513
0.001575702631
0.001585664119
0.001596830442
0.001609053596
0.001622203241
0.00163687594
0.001652649334
0.001669541674
0.00168788805
0.001708312135
0.001731712991
0.001757674603
0.001784092405
0.001810739441
0.00183783968
0.00186559178
0.001894119983
0.001923480756
0.001953669636
0.001984644846
0.002016592791
0.002050007491
0.002086154995
0.002126295167
0.002170660916
0.002218826034
0.002269180164
0.002322470062
0.002381137248
0.00244413235
0.002511146615
0.002583035802
0.002659008138
0.00273962152
0.002826075576
0.002920359847
0.003023100605
0.003135046235
0.003256145962
0.003387777422
0.00352983705
0.003684981781
0.003856300339
0.00404587267
0.004257434783
0.004494367334
0.004760203946
0.005060984465
0.00540344866
0.005794516684
0.006244726946
0.006785508175
0.007421924345
0.008171127616
0.009059704494
0.01012116206
0.01139603828
0.01293582284
0.01480589755
0.01708829324
0.01988083413
0.02329018428
0.02736576405
0.03193716664
0.03622080577
0.03858819181
0.03706930679
0.03140239812
0.02642514227
0.02215395258
0.0181591199
0.01456653725
0.01155255852
0.009146992024
0.007399513195
0.005832815351
0.004618859884
0.003673441303
0.002948297272
0.002394328308
0.001969941754
0.001639636289
0.001376084417
0.001163733022
0.0009906794051
0.0008479970078
0.0007292321446
0.0006296526614
0.0005456409018
0.0004744004992
0.0004137445129
0.0003618385112
0.0003172411296
0.000278746857
0.000245395247
0.0002163927272
0.0001910937426
0.0001689602292
0.0001495465734
0.0001324793972
0.0001174437359
0.0001041740381
9.244264381e-05
8.205620946e-05
7.284823861e-05
6.467571061e-05
5.741467071e-05
5.095784433e-05
4.521182516e-05
4.009545944e-05
3.553801961e-05
3.147816806e-05
2.786299635e-05
2.464725011e-05
2.179155269e-05
1.925354008e-05
1.698467474e-05
1.495053577e-05
1.313692428e-05
1.152701861e-05
1.010795122e-05
8.867843129e-06
7.796311368e-06
6.879062689e-06
6.0918936e-06
5.405769022e-06
4.800269401e-06
4.26225794e-06
3.782666038e-06
3.354666458e-06
2.972665456e-06
2.631874881e-06
2.328060195e-06
2.204285508e-06
2.16214703e-06
2.124337248e-06
2.090423509e-06
2.059980479e-06
2.032618114e-06
2.008005614e-06
1.985850186e-06
1.965907491e-06
1.947944349e-06
1.931752468e-06
1.91716209e-06
1.904010938e-06
1.892154498e-06
1.881462842e-06
1.871819239e-06
1.863118945e-06
1.855268085e-06
1.848181516e-06
1.841782445e-06
1.836001814e-06
1.830777778e-06
1.826054862e-06
1.821782839e-06
1.817916473e-06
1.814415628e-06
1.8112438e-06
1.808368202e-06
1.805759396e-06
1.803390858e-06
1.801238658e-06
1.799281213e-06
1.797499097e-06
1.79587486e-06
1.79439283e-06
1.793038925e-06
1.791800461e-06
1.790666004e-06
1.789625242e-06
1.788668872e-06
1.78778851e-06
1.786976614e-06
1.78622641e-06
1.785531814e-06
1.784887368e-06
1.784288166e-06
1.783729798e-06
1.783208293e-06
1.782720071e-06
1.782261908e-06
1.781830897e-06
1.781424413e-06
1.781040087e-06
1.780675782e-06
1.780329571e-06
1.779999715e-06
1.779684649e-06
1.779382962e-06
1.779093386e-06
1.778814776e-06
1.778546106e-06
1.778286448e-06
1.778034968e-06
1.777790916e-06
1.777553617e-06
1.777322461e-06
1.777096913e-06
1.776876517e-06
1.776660924e-06
1.776449559e-06
1.776242025e-06
1.776037985e-06
1.775837131e-06
1.775639187e-06
1.7754439e-06
1.775251041e-06
1.775060401e-06
1.774871795e-06
1.774685058e-06
1.774500067e-06
1.774316785e-06
1.774135112e-06
1.773954793e-06
1.773775684e-06
1.773597673e-06
1.773420659e-06
1.773244551e-06
1.77306926e-06
1.772894705e-06
1.772720811e-06
1.772547504e-06
1.772374715e-06
1.772202377e-06
1.772030426e-06
1.771858801e-06
1.771687442e-06
1.77151629e-06
1.771345289e-06
1.771174384e-06
1.77100352e-06
1.770832645e-06
1.770661706e-06
1.770490652e-06
1.770319433e-06
1.770147999e-06
1.7699763e-06
1.769804287e-06
1.769631913e-06
1.769459129e-06
1.769285885e-06
1.769112133e-06
1.76893782e-06
1.768762893e-06
1.768587296e-06
1.768410972e-06
1.76823386e-06
1.768055897e-06
1.767877019e-06
1.767697163e-06
1.767516265e-06
1.767334266e-06
1.767151106e-06
1.766966731e-06
1.766781088e-06
1.766594129e-06
1.766405804e-06
1.766216065e-06
1.766024858e-06
1.76583213e-06
1.765637823e-06
1.765441872e-06
1.765244214e-06
1.765044779e-06
1.764843496e-06
1.764640292e-06
1.764435092e-06
1.764227819e-06
1.764018393e-06
1.763806731e-06
1.763592748e-06
1.76337636e-06
1.763157482e-06
1.762936029e-06
1.762711921e-06
1.762485077e-06
1.762255421e-06
1.762022881e-06
1.761787386e-06
1.761548868e-06
1.761307258e-06
1.761062486e-06
1.760814481e-06
1.76056317e-06
1.760308475e-06
1.760050312e-06
1.759788588e-06
1.759523202e-06
1.759254048e-06
1.758981013e-06
1.758703986e-06
1.758422848e-06
1.75813747e-06
1.757847682e-06
1.757553248e-06
1.757254192e-06
1.756950427e-06
1.7566419e-06
1.756328424e-06
1.756009904e-06
1.755686213e-06
1.75535722e-06
1.755022691e-06
1.754682761e-06
1.754337057e-06
1.753985502e-06
1.753627942e-06
1.753264231e-06
1.752894248e-06
1.752517791e-06
1.752134749e-06
1.751744952e-06
1.751348114e-06
1.750944156e-06
1.750532868e-06
1.750114078e-06
1.749687595e-06
1.749253223e-06
1.748810763e-06
1.748360008e-06
1.747900746e-06
1.747432761e-06
1.746955828e-06
1.746469718e-06
1.745974193e-06
1.745469009e-06
1.744953913e-06
1.744428646e-06
1.743892939e-06
1.743346516e-06
1.74278909e-06
1.742220365e-06
1.741640036e-06
1.741047787e-06
1.740443289e-06
1.739826202e-06
1.739196174e-06
1.738552836e-06
1.737895807e-06
1.737224689e-06
1.736539066e-06
1.735838507e-06
1.735122562e-06
1.734390762e-06
1.733642619e-06
1.732877627e-06
1.732095258e-06
1.731294962e-06
1.730476166e-06
1.729638274e-06
1.728780664e-06
1.72790269e-06
1.727003678e-06
1.72608293e-06
1.725139723e-06
1.724173308e-06
1.723182911e-06
1.722167736e-06
1.721126965e-06
1.720059751e-06
1.71896522e-06
1.717842457e-06
1.716690503e-06
1.715508344e-06
1.71429491e-06
1.713049066e-06
1.711769615e-06
1.710455298e-06
1.70910482e-06
1.707716857e-06
1.706289539e-06
1.704821811e-06
1.703311806e-06
1.701757778e-06
1.700158048e-06
1.698510164e-06
1.696812286e-06
1.695062033e-06
1.693256912e-06
1.691394277e-06
1.689471338e-06
1.687485063e-06
1.685432396e-06
1.683310068e-06
1.681114655e-06
1.678842572e-06
1.676490062e-06
1.674053186e-06
1.671527804e-06
1.668909558e-06
1.666193859e-06
1.663375863e-06
1.660450449e-06
1.657412163e-06
1.65425516e-06
1.65097321e-06
1.647559928e-06
1.644008614e-06
1.64031215e-06
1.636462912e-06
1.632452651e-06
1.628272388e-06
1.623912349e-06
1.619361923e-06
1.614609682e-06
1.60964343e-06
1.604450253e-06
1.599016584e-06
1.593328283e-06
1.587370661e-06
1.58112804e-06
1.574583552e-06
1.567721015e-06
1.560524014e-06
1.552974359e-06
1.545051983e-06
1.536735475e-06
1.528002593e-06
1.51883087e-06
1.5091984e-06
1.499082814e-06
1.488464248e-06
1.477325494e-06
1.465652411e-06
1.453435343e-06
1.440672326e-06
1.427370813e-06
1.413555351e-06
1.399277296e-06
1.384621827e-06
1.369721772e-06
1.354779957e-06
1.340101151e-06
1.348037504e-06
1.362139887e-06
1.377838869e-06
1.395436909e-06
1.415312701e-06
1.437936384e-06
1.463874345e-06
1.493748918e-06
1.528072791e-06
1.566717065e-06
1.607467324e-06
0.001722328322
0.001722965651
0.001724012655
0.001725195752
0.001726270737
0.00172708407
0.001727544448
0.001727287553
0.001725732511
0.001722966106
0.001720185218
0.001718046928
0.0017165003
0.001715345805
0.001714407316
0.001713549547
0.001712671933
0.001711700284
0.00171057518
0.001709242562
0.001707649427
0.001705735122
0.001703425222
0.001700620227
0.001697188008
0.001692945833
0.001687648143
0.001680988769
0.001672705135
0.001662836183
0.001652001792
0.001641155869
0.00163007262
0.001618112863
0.001604579444
0.001589017281
0.001571530449
0.001552826322
0.001534452661
0.001518360387
0.001504942795
0.001493875641
0.001484718768
0.001477095345
0.00146873001
0.001461647999
0.001455662624
0.001450595022
0.001446296232
0.00144264677
0.001439543941
0.001436905292
0.001434656922
0.001432738893
0.00143109571
0.001429685938
0.001428479661
0.001427447875
0.001426567576
0.001425812268
0.001425163649
0.001424612051
0.001424143996
0.001423750868
0.001423420551
0.001423145897
0.001422915371
0.001422722667
0.001422567202
0.001422443366
0.001422349564
0.001422279164
0.001422228984
0.001422191388
0.001422165418
0.001422155446
0.001422160535
0.001422181248
0.001422212516
0.001422253784
0.001422308986
0.001422375973
0.001422457004
0.001422558288
0.001422680635
0.001422825487