/*--------------------------------*- C++ -*----------------------------------*\
| =========                 |                                                 |
| \\      /  F ield         | OpenFOAM: The Open Source CFD Toolbox           |
|  \\    /   O peration     | Version:  v2006                                 |
|   \\  /    A nd           | Website:  www.openfoam.com                      |
|    \\/     M anipulation  |                                                 |
\*---------------------------------------------------------------------------*/
FoamFile
{
    version     2.0;
    format      ascii;
    class       volScalarField;
    location    "0.075";
    object      CO2;
}
// * * * * * * * * * * * * * * * * * * * * * * * * * * * * * * * * * * * * * //

dimensions      [0 0 0 0 0 0 0];


internalField   nonuniform List<scalar> 
72000
(
0.150218045
0.150209852
0.1501936462
0.1501708873
0.1501408424
0.1501047845
0.1500542632
0.1499785739
0.1499442939
0.1499562069
0.1499497134
0.1499292797
0.1499119633
0.1498971913
0.1498850732
0.149874039
0.1498648781
0.1498577147
0.1498509555
0.1498458716
0.1498412074
0.1498381189
0.1498356569
0.1498349165
0.1498348718
0.149836593
0.1498404068
0.1498471528
0.1498641201
0.1499001685
0.1499614391
0.1499838797
0.1500036009
0.1500241913
0.1500521093
0.1500956729
0.1501565908
0.1502358171
0.150333201
0.1503875561
0.1504249073
0.1504537889
0.1504769412
0.1504959652
0.1505112182
0.1505239849
0.1505347673
0.1505434262
0.1505509313
0.1505568251
0.1505621382
0.1505661502
0.1505699301
0.1505726429
0.1505752287
0.1505775345
0.1505792957
0.1505810367
0.1505820891
0.1505832017
0.1505844435
0.1505851471
0.1505860015
0.1505863137
0.1505869704
0.1505871334
0.1505875704
0.1505881518
0.1505883554
0.150588857
0.1505888849
0.1505891633
0.1505891558
0.150589406
0.1505897728
0.1505898629
0.150590232
0.1505901114
0.1505903366
0.1505907105
0.1505908127
0.1505910483
0.1505916039
0.150591666
0.1505920137
0.1505920112
0.150592209
0.1505926172
0.1505926175
0.1505929605
0.1505928391
0.1505929263
0.1505925899
0.1505926252
0.1505922018
0.1505921046
0.1505915129
0.1505912238
0.1505906275
0.1505901593
0.1505893971
0.150588916
0.1505881766
0.1505877148
0.1505867528
0.1505860381
0.1505854346
0.1505842822
0.1505832764
0.1505823515
0.150580867
0.1505795269
0.1505781276
0.150576245
0.1505744645
0.1505721438
0.1505698136
0.1505670847
0.1505642898
0.1505609806
0.1505577787
0.150554034
0.1505503881
0.1505467282
0.150542562
0.150538443
0.1505337923
0.1505293415
0.1505245461
0.1505193716
0.1505140067
0.1505086721
0.1505032915
0.1504985059
0.1504944936
0.1504933949
0.1504952137
0.1504996263
0.1505065635
0.1505162012
0.1505286916
0.1505431359
0.1505539766
0.1505572931
0.1505496459
0.1505346707
0.1505136408
0.1504847756
0.1504426027
0.1503896266
0.150326055
0.1502509266
0.1501977953
0.1501418045
0.1500745283
0.1499915251
0.149917728
0.1498407924
0.1497613371
0.1496789866
0.149594195
0.1495071735
0.1494189464
0.1493319054
0.1492666159
0.1492243955
0.1491563166
0.1490730708
0.1489788897
0.148875362
0.1487629356
0.1486413234
0.1485094132
0.1483646859
0.1482020549
0.148024952
0.1478481702
0.1476958107
0.1475608465
0.147445612
0.1472819848
0.14707977
0.1469173679
0.1467082028
0.1465358661
0.1463858695
0.1461906873
0.1459609058
0.1456918567
0.1454538358
0.1452302108
0.1450185613
0.1447385447
0.1444029304
0.1440136723
0.1436517562
0.1432995604
0.1428811665
0.1424731955
0.1420552634
0.1416251471
0.1411166713
0.1405595263
0.1400256585
0.1394537567
0.1389450601
0.1384700827
0.1379261673
0.1372915607
0.1365556335
0.1356732759
0.134600534
0.1332766334
0.1316162375
0.1294991164
0.1267513515
0.1231353537
0.1183271812
0.1118838845
0.1028687952
0.08652385824
0.03515590514
0.02036542442
0.01236176813
0.008212279919
0.005653105654
0.003969069205
0.002776732846
0.00190989012
0.001257195646
0.0008288790982
0.0005818165627
0.0004385670739
0.0003394371613
0.0002785372942
0.0002370889461
0.000203884208
0.0001762358233
0.0001527158499
0.0001325084527
0.0001154986025
0.0001005077122
8.691670758e-05
7.507899126e-05
6.49629863e-05
5.635457651e-05
4.90223649e-05
4.275698454e-05
3.738264852e-05
3.275373852e-05
2.875102889e-05
2.527689066e-05
2.22513415e-05
1.960799103e-05
1.729179847e-05
1.525736605e-05
1.346649107e-05
1.188689837e-05
1.04911102e-05
9.255722449e-06
8.160724854e-06
7.188899697e-06
6.325365402e-06
5.557205219e-06
4.873136055e-06
4.263192235e-06
3.718296023e-06
3.229183991e-06
2.795808578e-06
2.417908936e-06
2.087376485e-06
1.788911076e-06
1.52083383e-06
1.281204407e-06
1.068728535e-06
8.830981561e-07
7.271709751e-07
6.131889717e-07
5.365084394e-07
4.753552293e-07
4.230210381e-07
3.770686969e-07
3.363042804e-07
3.000330501e-07
2.677092216e-07
2.389078166e-07
2.132450067e-07
1.90383265e-07
1.699972041e-07
1.517707874e-07
1.497108085e-07
1.483506874e-07
1.471350404e-07
1.460456607e-07
1.450678522e-07
1.441895619e-07
1.434002675e-07
1.426907778e-07
1.420531218e-07
1.414801113e-07
1.409652832e-07
1.405028285e-07
1.400875268e-07
1.397146873e-07
1.3938009e-07
1.390799273e-07
1.388107685e-07
1.385695299e-07
1.383534448e-07
1.381600333e-07
1.379870717e-07
1.378325463e-07
1.376946159e-07
1.375716355e-07
1.374621338e-07
1.373647901e-07
1.372784157e-07
1.372019396e-07
1.371343966e-07
1.370749179e-07
1.370227224e-07
1.369771077e-07
1.369374416e-07
1.369031543e-07
1.368737319e-07
1.368487107e-07
1.368276723e-07
1.368102392e-07
1.367960713e-07
1.367848626e-07
1.367763376e-07
1.367702482e-07
1.367663708e-07
1.367645039e-07
1.367644653e-07
1.367660906e-07
1.367692307e-07
1.36773751e-07
1.367795293e-07
1.367864551e-07
1.367944282e-07
1.368033577e-07
1.368131616e-07
1.368237652e-07
1.36835101e-07
1.368471079e-07
1.368597304e-07
1.368729182e-07
1.368866256e-07
1.369008112e-07
1.369154372e-07
1.369304692e-07
1.369458752e-07
1.369616252e-07
1.369776888e-07
1.369940359e-07
1.370106495e-07
1.370275115e-07
1.370446045e-07
1.370619098e-07
1.370794119e-07
1.370970954e-07
1.37114946e-07
1.371329507e-07
1.371510976e-07
1.37169376e-07
1.371877768e-07
1.372062916e-07
1.372249105e-07
1.372436214e-07
1.372624138e-07
1.372812782e-07
1.37300206e-07
1.373191888e-07
1.373382189e-07
1.373572884e-07
1.3737639e-07
1.373955163e-07
1.374146603e-07
1.374338147e-07
1.374529728e-07
1.374721276e-07
1.374912724e-07
1.375104003e-07
1.375295047e-07
1.37548579e-07
1.375676164e-07
1.375866103e-07
1.376055539e-07
1.376244408e-07
1.376432642e-07
1.376620174e-07
1.376806939e-07
1.376992867e-07
1.377177891e-07
1.377361946e-07
1.37754496e-07
1.377726865e-07
1.377907591e-07
1.378087066e-07
1.378265219e-07
1.378441976e-07
1.378617263e-07
1.378791006e-07
1.378963131e-07
1.379133564e-07
1.379302232e-07
1.379469065e-07
1.379633992e-07
1.379796946e-07
1.379957862e-07
1.380116676e-07
1.380273324e-07
1.380427745e-07
1.380579875e-07
1.380729652e-07
1.380877013e-07
1.381021892e-07
1.381164227e-07
1.381303952e-07
1.381441004e-07
1.381575319e-07
1.381706812e-07
1.381835461e-07
1.381961169e-07
1.382083882e-07
1.382203536e-07
1.382320069e-07
1.38243342e-07
1.382543531e-07
1.382650343e-07
1.382753803e-07
1.382853857e-07
1.382950458e-07
1.383043556e-07
1.383133107e-07
1.383219066e-07
1.38330139e-07
1.383380034e-07
1.383454958e-07
1.383526116e-07
1.383593464e-07
1.383656953e-07
1.383716539e-07
1.383772175e-07
1.383823757e-07
1.383871343e-07
1.383914793e-07
1.383954075e-07
1.383989127e-07
1.384019894e-07
1.384046345e-07
1.384068422e-07
1.384086222e-07
1.384099599e-07
1.384108543e-07
1.384113021e-07
1.384112998e-07
1.384108442e-07
1.384099341e-07
1.384085642e-07
1.384067316e-07
1.384044337e-07
1.384016679e-07
1.383984316e-07
1.383947222e-07
1.383905373e-07
1.383858739e-07
1.383807285e-07
1.383750995e-07
1.38368985e-07
1.383623831e-07
1.383552919e-07
1.383477097e-07
1.383396349e-07
1.383310658e-07
1.383220012e-07
1.383124396e-07
1.383023799e-07
1.38291821e-07
1.38280762e-07
1.382692021e-07
1.382571404e-07
1.382445764e-07
1.382315094e-07
1.382179392e-07
1.382038653e-07
1.381892877e-07
1.38174206e-07
1.381586203e-07
1.381425306e-07
1.38125937e-07
1.381088396e-07
1.380912387e-07
1.380731342e-07
1.380545266e-07
1.380354161e-07
1.380158027e-07
1.379956868e-07
1.379750688e-07
1.379539488e-07
1.379323273e-07
1.379102047e-07
1.378875814e-07
1.37864458e-07
1.378408351e-07
1.378167133e-07
1.377920933e-07
1.377669762e-07
1.377413631e-07
1.377152555e-07
1.376886552e-07
1.376615643e-07
1.37633986e-07
1.376059233e-07
1.375773805e-07
1.375483616e-07
1.375188711e-07
1.374889135e-07
1.374584928e-07
1.374276128e-07
1.373962768e-07
1.373644879e-07
1.373322488e-07
1.372995619e-07
1.372664281e-07
1.37232846e-07
1.371988199e-07
1.371643476e-07
1.371294263e-07
1.370940509e-07
1.370582103e-07
1.370218959e-07
1.369850941e-07
1.369477875e-07
1.369099564e-07
1.368715832e-07
1.368326292e-07
1.367930751e-07
1.367528911e-07
1.367120451e-07
1.366705034e-07
1.366282302e-07
1.365851868e-07
1.365413317e-07
1.364966192e-07
1.364510075e-07
1.364044301e-07
1.363568347e-07
1.363081528e-07
1.362583154e-07
1.362072926e-07
1.361549576e-07
1.361012027e-07
1.36045923e-07
1.359890005e-07
1.359302992e-07
1.358696606e-07
1.35806902e-07
1.357418152e-07
1.356741674e-07
1.356037034e-07
1.355301471e-07
1.354532042e-07
1.353725532e-07
1.352877729e-07
1.351986104e-07
1.351047664e-07
1.35005843e-07
1.349013763e-07
1.347908698e-07
1.346737718e-07
1.345494701e-07
1.344172963e-07
1.342765294e-07
1.341264116e-07
1.339662254e-07
1.33795233e-07
1.336126861e-07
1.334178361e-07
1.332099574e-07
1.329883974e-07
1.327526489e-07
1.325025057e-07
1.322382625e-07
1.319609385e-07
1.316726502e-07
1.313772296e-07
1.31081183e-07
1.307951695e-07
1.305358423e-07
1.303304626e-07
1.302218743e-07
1.302799184e-07
1.306177645e-07
1.314256066e-07
1.330020009e-07
1.357892593e-07
2.362877818e-07
4.060937826e-07
0.150783207
0.1507758713
0.1507619016
0.1507420337
0.1507164825
0.1506854766
0.1506475599
0.1506039018
0.1505722328
0.1505585452
0.1505441994
0.1505267568
0.1505102611
0.1504954558
0.1504824592
0.1504711227
0.1504614295
0.1504532679
0.1504464377
0.1504409277
0.1504366262
0.150433613
0.1504318698
0.1504316145
0.1504329898
0.1504364861
0.1504427865
0.1504532875
0.1504709271
0.1504980694
0.1505324341
0.1505575118
0.1505802809
0.1506044452
0.1506339938
0.1506725749
0.150721128
0.1507782385
0.1508384738
0.150884214
0.1509192335
0.1509469552
0.1509693877
0.150987758
0.1510027628
0.1510152129
0.151025599
0.1510341423
0.1510412807
0.1510471228
0.1510520184
0.1510559803
0.1510593011
0.1510619476
0.1510642008
0.1510661167
0.1510676139
0.1510688562
0.1510697466
0.1510705077
0.1510711745
0.1510715971
0.1510719287
0.1510720544
0.1510721383
0.1510720591
0.1510720164
0.151072002
0.1510718502
0.1510717059
0.1510714265
0.1510711602
0.1510707864
0.1510704828
0.1510702362
0.151069887
0.1510695577
0.1510691162
0.1510687434
0.1510684306
0.1510680202
0.151067667
0.1510673725
0.1510669587
0.1510665538
0.1510660286
0.1510655472
0.1510650913
0.1510644509
0.1510637911
0.1510629795
0.1510621416
0.1510611505
0.1510601402
0.1510589654
0.1510577639
0.1510563964
0.1510549969
0.1510534322
0.1510518176
0.1510500284
0.1510481857
0.1510461556
0.1510440601
0.1510417627
0.1510394103
0.1510369777
0.1510342996
0.1510315178
0.1510286133
0.151025425
0.1510221046
0.1510186225
0.151014822
0.1510108139
0.1510064678
0.1510018964
0.1509969872
0.1509918283
0.1509863175
0.150980573
0.15097448
0.1509681842
0.1509616689
0.1509548018
0.1509476942
0.1509402357
0.1509325584
0.1509245482
0.1509162191
0.1509076472
0.1508989549
0.1508903002
0.1508819748
0.1508743697
0.1508681834
0.1508635507
0.1508603191
0.1508582312
0.1508571133
0.1508566283
0.1508558102
0.1508528658
0.1508414576
0.1508233031
0.1507984919
0.1507672963
0.1507289872
0.1506829161
0.1506292703
0.1505685665
0.1505021321
0.1504359343
0.1503681182
0.1502949744
0.1502170874
0.1501380709
0.1500573232
0.1499741873
0.149888903
0.1498014114
0.1497124514
0.1496231462
0.1495360847
0.1494543173
0.1493743767
0.1492868022
0.1491892057
0.1490819941
0.1489656253
0.1488402255
0.1487055722
0.1485611381
0.1484062926
0.1482421433
0.1480716849
0.1479005411
0.1477342009
0.1475714991
0.1474058344
0.1472242117
0.14702866
0.1468294945
0.1466213145
0.1464132664
0.1462001641
0.1459683794
0.1457156815
0.1454458373
0.1451709617
0.1448887667
0.1445891099
0.1442538896
0.1438808037
0.143476033
0.1430528538
0.1426063992
0.142124025
0.1416104466
0.1410586646
0.1404566464
0.1397845611
0.1390437602
0.138239434
0.1373563772
0.136561981
0.1356462579
0.1345740239
0.1333034828
0.1317795245
0.1299458738
0.127720941
0.1249971801
0.1216402945
0.1174585641
0.1122046153
0.1055361621
0.09692564812
0.08552463337
0.07027434453
0.05107213196
0.03068015565
0.0193705902
0.01265951926
0.008679794079
0.00608920716
0.004340317329
0.003119985978
0.002259502988
0.001649074924
0.001241649169
0.0009680021811
0.0007766286285
0.0006386660952
0.0005334640563
0.000450061372
0.0003826236901
0.0003268955781
0.0002801739888
0.0002407420643
0.0002071208947
0.0001785211047
0.0001542207647
0.000133583414
0.0001160508127
0.0001011107339
8.833396482e-05
7.735955937e-05
6.789515702e-05
5.970086354e-05
5.25810585e-05
4.637450152e-05
4.094824149e-05
3.619192092e-05
3.201273749e-05
2.833230759e-05
2.50850875e-05
2.221510308e-05
1.967472749e-05
1.742300649e-05
1.542466008e-05
1.364922663e-05
1.207027143e-05
1.06648161e-05
9.412820135e-06
8.296792093e-06
7.301672398e-06
6.414772329e-06
5.628195973e-06
4.933826629e-06
4.317555496e-06
3.76153383e-06
3.263223279e-06
2.818316769e-06
2.423720042e-06
2.076918559e-06
1.777898027e-06
1.526872055e-06
1.318220126e-06
1.139923007e-06
9.840472359e-07
8.461820651e-07
7.235810536e-07
6.143347959e-07
5.16934754e-07
4.301180206e-07
3.527807008e-07
2.839017091e-07
2.597465504e-07
2.546073393e-07
2.500055182e-07
2.458875534e-07
2.421927421e-07
2.388724414e-07
2.358852996e-07
2.331965514e-07
2.307748214e-07
2.285924751e-07
2.266258308e-07
2.248532227e-07
2.232551862e-07
2.218142301e-07
2.205146374e-07
2.19342294e-07
2.182845112e-07
2.173298256e-07
2.164679071e-07
2.156894703e-07
2.149861909e-07
2.143506079e-07
2.137760495e-07
2.132564732e-07
2.127863038e-07
2.123605999e-07
2.119749434e-07
2.116253672e-07
2.113082998e-07
2.110205219e-07
2.107591323e-07
2.105215212e-07
2.103053425e-07
2.101084888e-07
2.099290641e-07
2.097653612e-07
2.09615841e-07
2.094791157e-07
2.093539336e-07
2.092391675e-07
2.091338027e-07
2.090369278e-07
2.089477235e-07
2.08865454e-07
2.087894576e-07
2.08719139e-07
2.086539615e-07
2.085934411e-07
2.085371417e-07
2.084846693e-07
2.084356683e-07
2.083898175e-07
2.083468271e-07
2.083064353e-07
2.082684059e-07
2.082325262e-07
2.081986044e-07
2.081664673e-07
2.081359592e-07
2.081069397e-07
2.080792823e-07
2.08052873e-07
2.080276088e-07
2.080033968e-07
2.079801525e-07
2.079577975e-07
2.079362515e-07
2.079154229e-07
2.078952828e-07
2.078757861e-07
2.078568873e-07
2.078385435e-07
2.078207159e-07
2.078033686e-07
2.07786469e-07
2.077699877e-07
2.077538985e-07
2.077381792e-07
2.077228124e-07
2.077077855e-07
2.076930788e-07
2.076786637e-07
2.076645185e-07
2.076506251e-07
2.076369677e-07
2.076235315e-07
2.076103028e-07
2.075972685e-07
2.075844161e-07
2.075717334e-07
2.075592092e-07
2.075468319e-07
2.075345907e-07
2.075224749e-07
2.075104739e-07
2.074985774e-07
2.074867751e-07
2.07475057e-07
2.074634131e-07
2.074518331e-07
2.074403073e-07
2.074288256e-07
2.07417378e-07
2.074059547e-07
2.073945454e-07
2.073831398e-07
2.073717282e-07
2.073602998e-07
2.073488442e-07
2.073373505e-07
2.073258075e-07
2.073142036e-07
2.07302527e-07
2.072907654e-07
2.07278906e-07
2.072669357e-07
2.072548417e-07
2.072426105e-07
2.072302293e-07
2.072176853e-07
2.072049659e-07
2.071920593e-07
2.071789537e-07
2.071656376e-07
2.071521e-07
2.071383289e-07
2.071243129e-07
2.071100397e-07
2.070954965e-07
2.070806703e-07
2.070655477e-07
2.070501146e-07
2.070343568e-07
2.070182597e-07
2.070018085e-07
2.069849888e-07
2.069677849e-07
2.069501812e-07
2.06932162e-07
2.069137115e-07
2.068948143e-07
2.068754547e-07
2.068556176e-07
2.06835288e-07
2.068144518e-07
2.06793095e-07
2.06771204e-07
2.067487653e-07
2.067257655e-07
2.06702191e-07
2.066780282e-07
2.066532629e-07
2.066278803e-07
2.066018648e-07
2.065751997e-07
2.065478673e-07
2.065198493e-07
2.064911261e-07
2.0646168e-07
2.064314888e-07
2.064005305e-07
2.063687798e-07
2.063362123e-07
2.063028179e-07
2.062685489e-07
2.062334696e-07
2.061974903e-07
2.061606133e-07
2.061228168e-07
2.06084079e-07
2.060443781e-07
2.060037038e-07
2.059620223e-07
2.059193139e-07
2.05875556e-07
2.058307265e-07
2.057848031e-07
2.057377603e-07
2.056895757e-07
2.056402219e-07
2.055896672e-07
2.055378902e-07
2.054848633e-07
2.054305599e-07
2.05374952e-07
2.05318011e-07
2.052597076e-07
2.052000118e-07
2.051388928e-07
2.050763192e-07
2.050122587e-07
2.049466783e-07
2.048795439e-07
2.048108205e-07
2.047404723e-07
2.046684623e-07
2.045947523e-07
2.045193033e-07
2.044420748e-07
2.043630251e-07
2.04282111e-07
2.041992881e-07
2.041145103e-07
2.0402773e-07
2.039388976e-07
2.038479617e-07
2.037548689e-07
2.036595635e-07
2.035619879e-07
2.034620816e-07
2.033597823e-07
2.032550246e-07
2.03147741e-07
2.030378608e-07
2.02925311e-07
2.028100151e-07
2.02691894e-07
2.02570865e-07
2.024468421e-07
2.023197359e-07
2.021894537e-07
2.02055899e-07
2.019189722e-07
2.017785701e-07
2.016345861e-07
2.014869107e-07
2.013354307e-07
2.01180029e-07
2.010205843e-07
2.008569699e-07
2.006890521e-07
2.005166906e-07
2.003397366e-07
2.001580328e-07
1.999714137e-07
1.997797048e-07
1.995827238e-07
1.993802744e-07
1.991721358e-07
1.989581146e-07
1.987379708e-07
1.985114585e-07
1.982783176e-07
1.980382437e-07
1.977909465e-07
1.975360967e-07
1.97273341e-07
1.970023025e-07
1.967226235e-07
1.964338025e-07
1.961354489e-07
1.958270872e-07
1.95508224e-07
1.951783416e-07
1.948368951e-07
1.944833105e-07
1.941169815e-07
1.937372673e-07
1.933434898e-07
1.929349247e-07
1.925108035e-07
1.920702987e-07
1.916125101e-07
1.91136425e-07
1.906411173e-07
1.901255702e-07
1.895886704e-07
1.890292101e-07
1.884458732e-07
1.878372219e-07
1.872016841e-07
1.865375463e-07
1.8584295e-07
1.851158927e-07
1.843542303e-07
1.83555682e-07
1.827178513e-07
1.818382986e-07
1.809141797e-07
1.799426756e-07
1.789205703e-07
1.778442946e-07
1.767100693e-07
1.755137422e-07
1.742507618e-07
1.729161737e-07
1.715045968e-07
1.70010188e-07
1.684270323e-07
1.667487229e-07
1.649684175e-07
1.630788013e-07
1.610720918e-07
1.589401266e-07
1.566744551e-07
1.542667593e-07
1.517093962e-07
1.489958572e-07
1.461217059e-07
1.430862606e-07
1.398952312e-07
1.365647971e-07
1.331272481e-07
1.29641301e-07
1.262094518e-07
1.230044255e-07
1.20303333e-07
1.185846562e-07
1.197876791e-07
1.233071592e-07
1.277456865e-07
1.35228466e-07
0.1512573756
0.1512507549
0.1512383812
0.151220889
0.1511987807
0.1511725507
0.1511427022
0.1511113731
0.1510841822
0.1510639829
0.1510461858
0.1510289897
0.1510129663
0.1509984707
0.1509855773
0.1509742827
0.1509645685
0.1509563661
0.1509495931
0.1509442117
0.1509401938
0.1509375787
0.1509364292
0.1509369108
0.1509392551
0.1509438664
0.1509513309
0.1509625267
0.1509785411
0.1509996616
0.15102395
0.1510468011
0.1510694453
0.1510937756
0.151121862
0.1511552841
0.1511941825
0.1512369379
0.1512798002
0.1513165889
0.151347023
0.1513720755
0.1513927669
0.1514098951
0.151424037
0.1514357855
0.1514455596
0.1514536404
0.1514603323
0.1514658258
0.151470347
0.1514740122
0.1514769949
0.1514793764
0.1514813087
0.151482863
0.151484043
0.1514849272
0.1514855295
0.1514859493
0.1514862177
0.1514862998
0.1514862466
0.1514860415
0.1514857428
0.1514853408
0.1514849107
0.1514844553
0.1514839206
0.1514833407
0.1514826814
0.1514819877
0.151481238
0.1514804972
0.1514797629
0.1514789761
0.1514781648
0.1514773027
0.1514764501
0.1514756062
0.1514747209
0.1514738423
0.1514729621
0.1514720198
0.1514710397
0.1514699927
0.1514689355
0.1514678606
0.1514669163
0.1514659344
0.1514648519
0.1514637005
0.1514624335
0.1514610724
0.1514595666
0.1514579695
0.151456243
0.1514544197
0.1514524534
0.1514503699
0.1514481084
0.1514456559
0.151442955
0.1514400928
0.1514370533
0.151433883
0.1514305654
0.1514270425
0.151423346
0.1514194613
0.151415332
0.1514109927
0.1514064248
0.1514015619
0.1513964184
0.1513909513
0.1513851838
0.1513790766
0.1513726513
0.151365873
0.1513587711
0.1513513194
0.1513435616
0.151335489
0.1513270512
0.1513182704
0.1513091171
0.1512996224
0.1512897528
0.1512795229
0.1512689858
0.1512582333
0.1512473969
0.1512366722
0.1512263123
0.1512165356
0.151207391
0.1511987497
0.1511905215
0.1511822977
0.1511733745
0.151162777
0.1511490334
0.1511298701
0.151105141
0.1510745823
0.1510381123
0.1509954315
0.1509463621
0.1508911524
0.1508304572
0.150765536
0.150697919
0.1506271762
0.1505527318
0.1504750563
0.1503951112
0.1503129185
0.1502283799
0.1501421411
0.1500538739
0.1499639908
0.1498731143
0.1497820814
0.1496910915
0.1495980067
0.1494992129
0.1493928379
0.1492782881
0.1491554272
0.149024173
0.1488843963
0.1487359775
0.1485790427
0.1484143722
0.1482439062
0.1480701163
0.1478946515
0.147716404
0.1475318307
0.1473365819
0.1471306382
0.1469163011
0.1466931487
0.1464621529
0.1462203035
0.1459627394
0.1456875262
0.1453952318
0.1450879964
0.1447639059
0.1444159415
0.1440366085
0.1436232863
0.1431776892
0.1427023465
0.1421917127
0.1416390574
0.1410403326
0.1403886539
0.1396712635
0.1388753054
0.1379939266
0.137014826
0.1359180625
0.1348434423
0.1336411973
0.1322301356
0.1305580217
0.1285676278
0.1261807316
0.1233081019
0.1198257248
0.1155848317
0.1103874393
0.1039799521
0.09603686744
0.08616482919
0.074055026
0.05982470878
0.04449241809
0.03052375431
0.02122272009
0.01500969449
0.01080888638
0.007848898877
0.005723284813
0.004213082887
0.003158321866
0.002423680994
0.00189868717
0.001519562405
0.001233321463
0.001011138346
0.0008368533083
0.0006975144221
0.0005847481118
0.0004931986331
0.0004184375462
0.0003568676821
0.000305783702
0.0002631263432
0.0002273183377
0.0001970855139
0.0001714530246
0.0001495990337
0.0001308855957
0.0001147816535
0.0001008669966
8.879645832e-05
7.829056344e-05
6.911755369e-05
6.108619879e-05
5.403701084e-05
4.783601574e-05
4.237059766e-05
3.754453596e-05
3.327629321e-05
2.949583691e-05
2.614321493e-05
2.316659066e-05
2.052122699e-05
1.816821072e-05
1.607375879e-05
1.420843221e-05
1.254666228e-05
1.106631182e-05
9.748363997e-06
8.576288005e-06
7.533284197e-06
6.60067004e-06
5.764185084e-06
5.016833655e-06
4.351013678e-06
3.760652937e-06
3.240245834e-06
2.785141667e-06
2.389976123e-06
2.046761992e-06
1.745723948e-06
1.479343365e-06
1.242461199e-06
1.031311713e-06
8.429585962e-07
6.749526494e-07
5.251788134e-07
3.917604988e-07
3.43921832e-07
3.342743037e-07
3.256144927e-07
3.178437681e-07
3.108651896e-07
3.045897147e-07
2.98941816e-07
2.938546195e-07
2.892723174e-07
2.851416762e-07
2.814151257e-07
2.780538857e-07
2.750209034e-07
2.722831793e-07
2.698110471e-07
2.675778548e-07
2.655596893e-07
2.637351199e-07
2.620847101e-07
2.605909297e-07
2.592380164e-07
2.580118535e-07
2.568997802e-07
2.558903332e-07
2.549731892e-07
2.541391884e-07
2.53380001e-07
2.526881465e-07
2.520569083e-07
2.514802357e-07
2.509526704e-07
2.504692898e-07
2.500256642e-07
2.496178149e-07
2.4924217e-07
2.488955198e-07
2.485749748e-07
2.482779307e-07
2.480020396e-07
2.477451842e-07
2.475054574e-07
2.472811439e-07
2.470707042e-07
2.468727567e-07
2.466860622e-07
2.465095083e-07
2.463420953e-07
2.461829238e-07
2.460311841e-07
2.458861473e-07
2.457471569e-07
2.45613621e-07
2.454850057e-07
2.453608305e-07
2.45240662e-07
2.451241105e-07
2.450108254e-07
2.449004915e-07
2.447928256e-07
2.446875736e-07
2.445845073e-07
2.444834216e-07
2.443841328e-07
2.442864757e-07
2.441903026e-07
2.44095481e-07
2.440018945e-07
2.439094455e-07
2.438180604e-07
2.437276145e-07
2.436380231e-07
2.435492154e-07
2.434611274e-07
2.433737019e-07
2.432868874e-07
2.432006378e-07
2.431149114e-07
2.430296715e-07
2.42944887e-07
2.428605356e-07
2.427766143e-07
2.426931067e-07
2.426099605e-07
2.425271487e-07
2.424446519e-07
2.423624527e-07
2.42280536e-07
2.421988877e-07
2.42117495e-07
2.420363465e-07
2.419554311e-07
2.418747387e-07
2.4179426e-07
2.417139862e-07
2.416339087e-07
2.415540197e-07
2.414743116e-07
2.413947771e-07
2.413154093e-07
2.412362016e-07
2.411571472e-07
2.4107824e-07
2.409994738e-07
2.409208427e-07
2.408423408e-07
2.407639624e-07
2.406857015e-07
2.406075529e-07
2.405295107e-07
2.404515688e-07
2.403737213e-07
2.402959613e-07
2.402182818e-07
2.401406752e-07
2.400631327e-07
2.399856455e-07
2.399082038e-07
2.398307976e-07
2.397534165e-07
2.396760506e-07
2.395986901e-07
2.395213254e-07
2.394439479e-07
2.393665492e-07
2.392891215e-07
2.392116569e-07
2.391341472e-07
2.390565835e-07
2.389789562e-07
2.389012544e-07
2.388234661e-07
2.387455788e-07
2.386675786e-07
2.385894511e-07
2.385111815e-07
2.384327541e-07
2.383541525e-07
2.382753595e-07
2.38196357e-07
2.381171267e-07
2.380376495e-07
2.379579067e-07
2.378778789e-07
2.377975474e-07
2.377168938e-07
2.376359004e-07
2.375545497e-07
2.374728247e-07
2.373907086e-07
2.373081844e-07
2.372252345e-07
2.371418409e-07
2.370579847e-07
2.369736459e-07
2.368888026e-07
2.368034309e-07
2.367175048e-07
2.366309963e-07
2.365438764e-07
2.364561157e-07
2.363676827e-07
2.362785439e-07
2.361886551e-07
2.360979583e-07
2.360064525e-07
2.359141124e-07
2.358209198e-07
2.357268255e-07
2.356318008e-07
2.355358098e-07
2.354388148e-07
2.353407551e-07
2.352416523e-07
2.35141413e-07
2.350400105e-07
2.349374003e-07
2.348335386e-07
2.347283876e-07
2.346218904e-07
2.3451401e-07
2.344046961e-07
2.342938709e-07
2.341815034e-07
2.340675324e-07
2.339519047e-07
2.338345623e-07
2.337154453e-07
2.335944923e-07
2.334716402e-07
2.333468236e-07
2.332199753e-07
2.33091026e-07
2.329599042e-07
2.328265361e-07
2.326908453e-07
2.32552753e-07
2.324121778e-07
2.322690357e-07
2.321232395e-07
2.319746994e-07
2.318233221e-07
2.316690113e-07
2.31511667e-07
2.313511858e-07
2.311874601e-07
2.310203783e-07
2.308498245e-07
2.306756778e-07
2.304978128e-07
2.303160985e-07
2.301303989e-07
2.29940572e-07
2.297464705e-07
2.295479406e-07
2.293448227e-07
2.291369506e-07
2.289241511e-07
2.28706244e-07
2.284830414e-07
2.282543477e-07
2.280199594e-07
2.277796644e-07
2.275332424e-07
2.272804651e-07
2.270210952e-07
2.267548876e-07
2.264815888e-07
2.262009366e-07
2.259126601e-07
2.256164779e-07
2.253120964e-07
2.249992079e-07
2.246774884e-07
2.243465969e-07
2.240061735e-07
2.236558396e-07
2.232951984e-07
2.229238389e-07
2.225413393e-07
2.221471476e-07
2.217408921e-07
2.2132201e-07
2.208899599e-07
2.204442093e-07
2.199840425e-07
2.195088766e-07
2.190179973e-07
2.185106575e-07
2.179860664e-07
2.174433918e-07
2.168817372e-07
2.163001906e-07
2.156977816e-07
2.150734934e-07
2.144262606e-07
2.13754967e-07
2.130584415e-07
2.123354538e-07
2.115847095e-07
2.108048456e-07
2.099944248e-07
2.091519292e-07
2.082757461e-07
2.073641542e-07
2.064153225e-07
2.05427362e-07
2.043982864e-07
2.033259879e-07
2.022082149e-07
2.01042542e-07
1.998263444e-07
1.985567792e-07
1.972307739e-07
1.958450265e-07
1.943960119e-07
1.928799902e-07
1.912930143e-07
1.896309438e-07
1.878894419e-07
1.860638694e-07
1.841492306e-07
1.821405852e-07
1.800328283e-07
1.778203314e-07
1.754969012e-07
1.730558806e-07
1.704902419e-07
1.677926979e-07
1.649558464e-07
1.619719024e-07
1.588333205e-07
1.555327724e-07
1.520631693e-07
1.484178965e-07
1.445914267e-07
1.405795846e-07
1.363810942e-07
1.319995412e-07
1.274446634e-07
1.227350799e-07
1.179028052e-07
1.129997384e-07
1.13000426e-07
1.141917609e-07
1.155179728e-07
1.170046123e-07
1.186836708e-07
1.205948645e-07
1.227860402e-07
1.253097714e-07
1.282093686e-07
1.314739428e-07
1.349164254e-07
0.1517043339
0.1516983592
0.151687333
0.1516719092
0.1516527091
0.1516304056
0.1516058807
0.1515807263
0.1515571992
0.151536724
0.1515184285
0.1515015996
0.1514861822
0.1514722421
0.1514598144
0.1514489055
0.1514395056
0.1514315815
0.1514250938
0.1514200229
0.1514163686
0.1514141714
0.1514135086
0.1514145215
0.1514174153
0.1514224887
0.151430126
0.1514407715
0.1514547605
0.1514719182
0.1514912319
0.1515112383
0.1515321158
0.1515546648
0.1515797994
0.1516080958
0.1516392732
0.1516721211
0.1517044833
0.1517337535
0.1517591599
0.1517807844
0.1517990329
0.1518143578
0.1518271824
0.1518378927
0.1518468091
0.1518541903
0.1518602721
0.1518652488
0.1518692945
0.1518725428
0.1518751265
0.1518771451
0.1518787037
0.1518798716
0.1518806889
0.1518812101
0.1518814727
0.1518815323
0.1518814181
0.1518811355
0.15188071
0.1518801515
0.1518794896
0.1518787382
0.1518779302
0.151877071
0.1518761462
0.151875164
0.1518741189
0.151873027
0.1518718905
0.1518707326
0.1518695533
0.1518683342
0.1518670803
0.1518657884
0.1518644781
0.15186315
0.1518617893
0.1518604066
0.1518589952
0.1518575323
0.1518560196
0.1518544513
0.1518528453
0.1518512043
0.1518495289
0.1518477916
0.1518459652
0.151844048
0.1518420245
0.1518398707
0.1518375538
0.1518351206
0.1518325546
0.1518298551
0.1518270032
0.1518239937
0.1518208006
0.151817414
0.1518138193
0.1518100384
0.1518060887
0.1518019622
0.1517976433
0.1517931076
0.151788354
0.1517833689
0.1517781268
0.1517726258
0.1517668481
0.151760761
0.1517543535
0.1517476042
0.1517405092
0.1517330501
0.1517252242
0.1517170163
0.1517084281
0.1516994492
0.1516900863
0.1516803289
0.151670154
0.1516595576
0.1516485266
0.1516370635
0.1516251582
0.1516128206
0.1516000842
0.151587006
0.1515736663
0.1515601363
0.1515464741
0.1515328005
0.1515190889
0.1515051978
0.1514909316
0.1514758678
0.1514593732
0.1514406468
0.1514186768
0.151392416
0.1513613492
0.1513252062
0.1512838275
0.1512370918
0.1511850174
0.1511278413
0.1510660536
0.1510003471
0.1509313456
0.1508591371
0.1507837139
0.1507052907
0.1506242508
0.1505407386
0.1504547796
0.1503663935
0.1502758521
0.150183351
0.1500895845
0.1499943258
0.1498968739
0.1497958741
0.1496895184
0.1495768057
0.1494568245
0.1493292545
0.1491939331
0.1490507729
0.1488997863
0.1487412033
0.1485756169
0.1484040304
0.1482277073
0.1480469732
0.1478606843
0.1476669256
0.1474637627
0.1472506179
0.1470276265
0.1467945324
0.1465509774
0.1462947565
0.1460230381
0.1457340765
0.1454270174
0.1451013008
0.1447536219
0.1443798318
0.1439755161
0.1435383998
0.1430665173
0.1425576096
0.1420070933