/*--------------------------------*- C++ -*----------------------------------*\
| =========                 |                                                 |
| \\      /  F ield         | OpenFOAM: The Open Source CFD Toolbox           |
|  \\    /   O peration     | Version:  v2006                                 |
|   \\  /    A nd           | Website:  www.openfoam.com                      |
|    \\/     M anipulation  |                                                 |
\*---------------------------------------------------------------------------*/
FoamFile
{
    version     2.0;
    format      ascii;
    class       volScalarField;
    location    "0.075";
    object      H;
}
// * * * * * * * * * * * * * * * * * * * * * * * * * * * * * * * * * * * * * //

dimensions      [0 0 0 0 0 0 0];


internalField   nonuniform List<scalar> 
72000
(
5.217514558e-09
5.230861212e-09
5.255158998e-09
5.267697007e-09
5.26442485e-09
5.239272585e-09
5.2470954e-09
5.362180855e-09
5.24452583e-09
5.033812025e-09
4.961654296e-09
4.96926272e-09
4.976019186e-09
4.982266544e-09
4.985032704e-09
4.991367339e-09
4.996070827e-09
4.997075267e-09
5.002608674e-09
5.004431364e-09
5.009575242e-09
5.011240758e-09
5.014832804e-09
5.014709689e-09
5.017469168e-09
5.018678601e-09
5.019003203e-09
5.019186117e-09
4.989204841e-09
4.890048716e-09
4.682032355e-09
4.660462684e-09
4.640966799e-09
4.619560068e-09
4.575753173e-09
4.479020507e-09
4.327698032e-09
4.108550041e-09
3.795228392e-09
3.695735578e-09
3.643627915e-09
3.604825461e-09
3.574406097e-09
3.5487567e-09
3.529250261e-09
3.512739318e-09
3.498834325e-09
3.489091217e-09
3.47950944e-09
3.474033604e-09
3.467145987e-09
3.464444498e-09
3.45944435e-09
3.458396977e-09
3.456325884e-09
3.455167737e-09
3.454986606e-09
3.453607861e-09
3.455059302e-09
3.455793131e-09
3.455458469e-09
3.457471511e-09
3.457983326e-09
3.461361271e-09
3.461721318e-09
3.464675135e-09
3.466279212e-09
3.467675102e-09
3.470716757e-09
3.471637856e-09
3.475353321e-09
3.477455377e-09
3.480564644e-09
3.482725014e-09
3.485168901e-09
3.488604851e-09
3.490065523e-09
3.494576528e-09
3.497098853e-09
3.499609874e-09
3.502888527e-09
3.506284313e-09
3.507912834e-09
3.512616138e-09
3.515227923e-09
3.519430924e-09
3.523061484e-09
3.525917971e-09
3.530810112e-09
3.532998976e-09
3.538077098e-09
3.541718322e-09
3.547927364e-09
3.551221438e-09
3.557389104e-09
3.561066151e-09
3.568017177e-09
3.572649251e-09
3.578629962e-09
3.58414141e-09
3.591058245e-09
3.596654483e-09
3.603905657e-09
3.609156369e-09
3.617524131e-09
3.624117929e-09
3.630163388e-09
3.6390659e-09
3.646745021e-09
3.653726544e-09
3.663346103e-09
3.671620406e-09
3.680563199e-09
3.691249302e-09
3.70018803e-09
3.711614235e-09
3.722570058e-09
3.734607845e-09
3.746518103e-09
3.760767647e-09
3.773194149e-09
3.788251176e-09
3.802257998e-09
3.816354687e-09
3.83280425e-09
3.848368149e-09
3.866937501e-09
3.883457594e-09
3.901118128e-09
3.920399034e-09
3.940021079e-09
3.958714354e-09
3.979214909e-09
3.997010306e-09
4.015580223e-09
4.020145739e-09
4.012717188e-09
3.994867829e-09
3.965615286e-09
3.921092862e-09
3.853008693e-09
3.744282462e-09
3.561230671e-09
3.56193358e-09
3.581803553e-09
3.612844531e-09
3.651382589e-09
3.696644295e-09
3.730641586e-09
3.75447407e-09
3.759035083e-09
3.721285912e-09
3.787756311e-09
3.857541874e-09
3.898977682e-09
3.902842673e-09
3.969748141e-09
4.039715116e-09
4.113731595e-09
4.189589825e-09
4.268127413e-09
4.349115743e-09
4.432965275e-09
4.522715761e-09
4.657614891e-09
4.844778051e-09
4.998232679e-09
5.148374359e-09
5.304276252e-09
5.464343526e-09
5.628369232e-09
5.795803116e-09
5.964735603e-09
6.129940757e-09
6.278772087e-09
6.416263945e-09
6.567705968e-09
6.78154524e-09
7.103056169e-09
7.546006426e-09
7.900774761e-09
8.193827878e-09
8.603918111e-09
8.934946589e-09
9.354496255e-09
9.844061685e-09
1.030821133e-08
1.078374778e-08
1.132145849e-08
1.20423795e-08
1.283830756e-08
1.372134324e-08
1.459035739e-08
1.56384481e-08
1.676814842e-08
1.801263939e-08
1.942536314e-08
2.083573866e-08
2.23650353e-08
2.399368179e-08
2.591589217e-08
2.85502539e-08
3.143711554e-08
3.462822861e-08
3.816628728e-08
4.340599259e-08
5.03530206e-08
5.8526613e-08
6.875277949e-08
8.31611866e-08
1.013558279e-07
1.25452142e-07
1.572002564e-07
2.000903913e-07
2.600424408e-07
3.459022783e-07
4.693441371e-07
6.50160331e-07
9.121051509e-07
1.382992864e-06
2.408821755e-06
1.622662305e-07
3.632809672e-08
1.398809651e-08
5.645244766e-09
3.436146521e-09
2.229426805e-09
1.386894347e-09
9.765233377e-10
7.871637829e-10
5.981866566e-10
4.387889112e-10
3.334410226e-10
2.531492704e-10
1.836948112e-10
1.357698612e-10
1.017567415e-10
7.708276216e-11
5.891375056e-11
4.540710062e-11
3.634169049e-11
2.969524874e-11
2.430738782e-11
2.00497366e-11
1.669345195e-11
1.402193508e-11
1.186949383e-11
1.011500057e-11
8.669831648e-12
7.468137596e-12
6.46049913e-12
5.609346016e-12
4.885748438e-12
4.267083019e-12
3.735447793e-12
3.276570345e-12
2.878910847e-12
2.533075806e-12
2.231359902e-12
1.967387975e-12
1.735851602e-12
1.532302065e-12
1.352987895e-12
1.194730156e-12
1.054821281e-12
9.309447678e-13
8.211069181e-13
7.234407543e-13
6.364178284e-13
5.596156494e-13
4.918812939e-13
4.308421382e-13
3.761006462e-13
3.270935583e-13
2.832544552e-13
2.440115496e-13
2.088433185e-13
1.776729808e-13
1.507178989e-13
1.274512145e-13
1.070267288e-13
8.895096583e-14
7.288355571e-14
5.858123363e-14
4.584266734e-14
3.450113413e-14
2.440427072e-14
1.541782559e-14
7.411437871e-15
2.577313111e-16
2.724817018e-17
2.668264918e-17
2.617661563e-17
2.572260364e-17
2.531456464e-17
2.494753101e-17
2.461716358e-17
2.431967092e-17
2.405176492e-17
2.38104805e-17
2.359315173e-17
2.339738264e-17
2.322102001e-17
2.306212925e-17
2.291896993e-17
2.278997177e-17
2.267372e-17
2.256894288e-17
2.247449958e-17
2.23893675e-17
2.231262974e-17
2.224345608e-17
2.21810875e-17
2.212484584e-17
2.207412461e-17
2.202837949e-17
2.19871206e-17
2.194990663e-17
2.191633997e-17
2.188606284e-17
2.185875361e-17
2.183412314e-17
2.181191133e-17
2.179188384e-17
2.177382947e-17
2.175755772e-17
2.174289678e-17
2.17296918e-17
2.171780339e-17
2.170710621e-17
2.169748754e-17
2.168884599e-17
2.168109034e-17
2.167413843e-17
2.166791612e-17
2.166235653e-17
2.165739924e-17
2.165298966e-17
2.164907847e-17
2.164562104e-17
2.164257703e-17
2.163990999e-17
2.163758697e-17
2.163557825e-17
2.163385696e-17
2.163239878e-17
2.163118185e-17
2.163018638e-17
2.162939447e-17
2.162879e-17
2.16283583e-17
2.162808613e-17
2.16279613e-17
2.162797232e-17
2.162810759e-17
2.162835565e-17
2.162871038e-17
2.162916524e-17
2.162971397e-17
2.16303498e-17
2.163106721e-17
2.163186079e-17
2.163272559e-17
2.163365714e-17
2.16346514e-17
2.163570492e-17
2.163681482e-17
2.163797859e-17
2.163919299e-17
2.164045398e-17
2.164175811e-17
2.164310238e-17
2.164448409e-17
2.164590073e-17
2.164734992e-17
2.164882938e-17
2.165033694e-17
2.165187044e-17
2.165342783e-17
2.165500705e-17
2.165660614e-17
2.165822311e-17
2.165985605e-17
2.166150299e-17
2.166316207e-17
2.166483139e-17
2.166650905e-17
2.166819314e-17
2.166988175e-17
2.1671573e-17
2.167326496e-17
2.167495574e-17
2.167664336e-17
2.167832586e-17
2.168000127e-17
2.168166761e-17
2.168332278e-17
2.168496472e-17
2.168659125e-17
2.168820022e-17
2.168978937e-17
2.169135638e-17
2.169289888e-17
2.169441449e-17
2.169590077e-17
2.169735534e-17
2.169877579e-17
2.170015979e-17
2.170150498e-17
2.170280915e-17
2.170407009e-17
2.170528567e-17
2.170645373e-17
2.170757214e-17
2.170863867e-17
2.170965117e-17
2.171060733e-17
2.171150482e-17
2.17123413e-17
2.171311439e-17
2.171382163e-17
2.171446068e-17
2.171502812e-17
2.171552326e-17
2.171594215e-17
2.171628266e-17
2.171654223e-17
2.171671829e-17
2.171680837e-17
2.171680998e-17
2.171672065e-17
2.171653804e-17
2.171625987e-17
2.171588394e-17
2.171540809e-17
2.171483018e-17
2.17141481e-17
2.171335977e-17
2.171246304e-17
2.171145578e-17
2.171033576e-17
2.170910063e-17
2.170774794e-17
2.170627526e-17
2.170468012e-17
2.170295754e-17
2.170110931e-17
2.169912885e-17
2.169701408e-17
2.169476166e-17
2.169236845e-17
2.16898322e-17
2.168714954e-17
2.168432355e-17
2.168134703e-17
2.167821848e-17
2.167493532e-17
2.167149488e-17
2.166789454e-17
2.166413238e-17
2.16602048e-17
2.165610916e-17
2.165184273e-17
2.164740282e-17
2.164278671e-17
2.163799149e-17
2.16330143e-17
2.162785199e-17
2.162250109e-17
2.161695887e-17
2.16112223e-17
2.160528839e-17
2.159915397e-17
2.159281588e-17
2.158627089e-17
2.157951571e-17
2.157254699e-17
2.156536133e-17
2.15579553e-17
2.155032534e-17
2.154246789e-17
2.153437924e-17
2.152605564e-17
2.151749324e-17
2.150868808e-17
2.149963614e-17
2.149033326e-17
2.148077518e-17
2.147095751e-17
2.146087571e-17
2.14505251e-17
2.143990091e-17
2.142899807e-17
2.141781145e-17
2.140633563e-17
2.139456502e-17
2.138249382e-17
2.137011592e-17
2.135742507e-17
2.134441472e-17
2.133107806e-17
2.1317408e-17
2.130339721e-17
2.128903805e-17
2.127432255e-17
2.125924247e-17
2.124378918e-17
2.122795375e-17
2.121172693e-17
2.119509914e-17
2.117806049e-17
2.116060076e-17
2.114270946e-17
2.112437584e-17
2.110558883e-17
2.108633707e-17
2.106660868e-17
2.104639131e-17
2.102567196e-17
2.100443681e-17
2.098267118e-17
2.096035951e-17
2.093748529e-17
2.091403112e-17
2.088997855e-17
2.086530766e-17
2.083999654e-17
2.081402473e-17
2.078736799e-17
2.076000069e-17
2.073189509e-17
2.070301967e-17
2.067334279e-17
2.064282915e-17
2.06114405e-17
2.057913615e-17
2.054587451e-17
2.051160358e-17
2.047627749e-17
2.043984412e-17
2.040224833e-17
2.036343197e-17
2.032333376e-17
2.028188868e-17
2.023902775e-17
2.019467748e-17
2.014876286e-17
2.010119524e-17
2.005188834e-17
2.000074528e-17
1.994766488e-17
1.989255763e-17
1.983528899e-17
1.977572715e-17
1.971373566e-17
1.964916643e-17
1.9581857e-17
1.951162819e-17
1.943828244e-17
1.936160268e-17
1.928135157e-17
1.919727147e-17
1.910908401e-17
1.90164896e-17
1.89191624e-17
1.881671813e-17
1.870882374e-17
1.859510579e-17
1.84751259e-17
1.834839086e-17
1.821436317e-17
1.807244674e-17
1.792197953e-17
1.776222898e-17
1.759238614e-17
1.741156293e-17
1.721881389e-17
1.701309708e-17
1.6793262e-17
1.655803298e-17
1.630599366e-17
1.603557509e-17
1.574504493e-17
1.543251901e-17
1.509597554e-17
1.473325608e-17
1.434209723e-17
1.392021983e-17
1.346549473e-17
1.297622661e-17
1.245143221e-17
1.189204945e-17
1.130187483e-17
1.069053311e-17
1.007721692e-17
9.499301454e-18
9.014244253e-18
8.689481933e-18
5.27279847e-14
1.499577313e-13
1.146012534e-08
1.147270195e-08
1.14929113e-08
1.150701894e-08
1.15079125e-08
1.149529836e-08
1.149304351e-08
1.150440744e-08
1.142395217e-08
1.126885368e-08
1.117197122e-08
1.113813328e-08
1.112556e-08
1.11222514e-08
1.112333155e-08
1.11259226e-08
1.112987017e-08
1.113446636e-08
1.113839074e-08
1.114202542e-08
1.114438724e-08
1.114575785e-08
1.114503604e-08
1.114206823e-08
1.11354026e-08
1.112337182e-08
1.11019528e-08
1.10629382e-08
1.098501066e-08
1.084692667e-08
1.065937426e-08
1.055466597e-08
1.047040268e-08
1.03779228e-08
1.024856677e-08
1.005501396e-08
9.786601817e-09
9.44183332e-09
9.053715605e-09
8.809261014e-09
8.649696806e-09
8.534150958e-09
8.446144611e-09
8.377384535e-09
8.321645017e-09
8.277790618e-09
8.243612658e-09
8.215917967e-09
8.194902592e-09
8.17830176e-09
8.166632127e-09
8.157955805e-09
8.152809613e-09
8.14957028e-09
8.149258065e-09
8.151705977e-09
8.154601194e-09
8.159411265e-09
8.164793505e-09
8.172064933e-09
8.181007338e-09
8.189889886e-09
8.200168316e-09
8.210374644e-09
8.22176796e-09
8.2329317e-09
8.245295293e-09
8.258809343e-09
8.272036764e-09
8.286139649e-09
8.299972856e-09
8.314754488e-09
8.329049827e-09
8.344373866e-09
8.360771859e-09
8.376561016e-09
8.393163662e-09
8.409284131e-09
8.426449845e-09
8.444546227e-09
8.46200426e-09
8.480512516e-09
8.500027122e-09
8.519079313e-09
8.539091708e-09
8.558782229e-09
8.579705703e-09
8.601980869e-09
8.624431122e-09
8.6481918e-09
8.67201771e-09
8.697438666e-09
8.723096846e-09
8.750329682e-09
8.777902546e-09
8.80711047e-09
8.836717342e-09
8.867963441e-09
8.899582839e-09
8.933016747e-09
8.966862091e-09
9.010345212e-09
9.065521129e-09
9.123330363e-09
9.181236383e-09
9.242116761e-09
9.305849686e-09
9.369517458e-09
9.436013177e-09
9.505394415e-09
9.574918989e-09
9.64746483e-09
9.723401547e-09
9.799856956e-09
9.879555563e-09
9.960304396e-09
1.004473412e-08
1.013043805e-08
1.02203244e-08
1.031169829e-08
1.040702069e-08
1.050393614e-08
1.060534887e-08
1.071141905e-08
1.081922585e-08
1.093136407e-08
1.10458206e-08
1.116502609e-08
1.128608961e-08
1.140856847e-08
1.153204809e-08
1.165560049e-08
1.177777315e-08
1.18952206e-08
1.200252123e-08
1.208702556e-08
1.2144873e-08
1.217510947e-08
1.217480598e-08
1.213614693e-08
1.204732607e-08
1.18993033e-08
1.171771639e-08
1.174127578e-08
1.185470747e-08
1.201713709e-08
1.22128879e-08
1.242224483e-08
1.261472924e-08
1.278438896e-08
1.292567014e-08
1.305337571e-08
1.331137253e-08
1.366684028e-08
1.400361653e-08
1.432820702e-08
1.472986147e-08
1.516113318e-08
1.561433632e-08
1.608861861e-08
1.658495725e-08
1.710823169e-08
1.766237545e-08
1.826972287e-08
1.899535408e-08
1.984345083e-08
2.067355347e-08
2.150678568e-08
2.235970228e-08
2.323773104e-08
2.414228024e-08
2.507195822e-08
2.602145213e-08
2.69794003e-08
2.806277475e-08
2.927986864e-08
3.058986993e-08
3.208439588e-08
3.378419465e-08
3.569220915e-08
3.759554167e-08
3.954301392e-08
4.225035629e-08
4.500630543e-08
4.808692778e-08
5.149445916e-08
5.535106639e-08
5.970231887e-08
6.430438877e-08
6.944414864e-08
7.512260069e-08
8.136738563e-08
8.791071281e-08
9.480895545e-08
1.040525529e-07
1.1496218e-07
1.270717082e-07
1.401822511e-07
1.547761428e-07
1.714991449e-07
1.941565457e-07
2.19966272e-07
2.490209411e-07
2.827260291e-07
3.288797131e-07
3.96356536e-07
4.805867887e-07
5.907609986e-07
7.353488444e-07
9.195562547e-07
1.167954559e-06
1.496175043e-06
1.926719245e-06
2.515217406e-06
3.284215497e-06
4.289332242e-06
5.572102136e-06
6.901380824e-06
7.176277634e-06
4.880648054e-06
1.93646585e-06
3.98399831e-07
1.094339171e-07
5.594462952e-08
2.515091343e-08
1.538017579e-08
5.033562642e-09
2.536806069e-09
2.194371678e-09
1.770410689e-09
1.386968956e-09
1.054598913e-09
7.56008423e-10
5.328324772e-10
3.757111117e-10
2.68318763e-10
2.027512056e-10
1.598846402e-10
1.278636774e-10
1.03637084e-10
8.50180797e-11
7.058491946e-11
5.91984868e-11
5.009754775e-11
4.271617766e-11
3.665473224e-11
3.161912303e-11
2.739621771e-11
2.38257186e-11
2.078594076e-11
1.818248151e-11
1.59413063e-11
1.400346013e-11
1.232136211e-11
1.085626621e-11
9.576386121e-12
8.455233421e-12
7.470714588e-12
6.60433535e-12
5.840447078e-12
5.165750763e-12
4.568902252e-12
4.040168334e-12
3.571173129e-12
3.15467928e-12
2.784415744e-12
2.454949394e-12
2.161544635e-12
1.900516818e-12
1.668800769e-12
1.462181413e-12
1.276299441e-12
1.109611944e-12
9.602803862e-13
8.2667362e-13
7.07270634e-13
6.010863957e-13
5.075053898e-13
4.259321847e-13
3.546403432e-13
2.917318694e-13
2.359080648e-13
1.86223507e-13
1.419564347e-13
1.025113908e-13
6.737775725e-14
3.610643568e-14
8.278839703e-15
7.167056868e-17
6.952696869e-17
6.760684903e-17
6.588803923e-17
6.434530624e-17
6.295842035e-17
6.171017523e-17
6.058610381e-17
5.957314844e-17
5.865980708e-17
5.783622284e-17
5.709337809e-17
5.642317102e-17
5.581832116e-17
5.527228633e-17
5.477919164e-17
5.433375532e-17
5.393120559e-17
5.356724222e-17
5.323800005e-17
5.294001369e-17
5.267017732e-17
5.242571347e-17
5.220410674e-17
5.200303626e-17
5.182044495e-17
5.165449355e-17
5.150353062e-17
5.136606941e-17
5.124076979e-17
5.112642419e-17
5.102194625e-17
5.09263596e-17
5.083878711e-17
5.075843985e-17
5.068460746e-17
5.061664964e-17
5.055398915e-17
5.049610542e-17
5.044252974e-17
5.039284031e-17
5.034665835e-17
5.030364349e-17
5.026349015e-17
5.022592367e-17
5.019069687e-17
5.015758724e-17
5.012639408e-17
5.009693665e-17
5.006905177e-17
5.004259227e-17
5.00174253e-17
4.999343105e-17
4.997050134e-17
4.994853879e-17
4.992745569e-17
4.9907173e-17
4.988761954e-17
4.986873137e-17
4.985045086e-17
4.983272622e-17
4.981551087e-17
4.97987628e-17
4.978244417e-17
4.976652077e-17
4.975096074e-17
4.973573155e-17
4.972079588e-17
4.970614263e-17
4.969175383e-17
4.967761144e-17
4.966369848e-17
4.964999962e-17
4.963650081e-17
4.962318938e-17
4.96100539e-17
4.959708434e-17
4.958427235e-17
4.957161153e-17
4.955909751e-17
4.954672304e-17
4.953447701e-17
4.952235121e-17
4.951033903e-17
4.949843472e-17
4.9486633e-17
4.947492897e-17
4.946331808e-17
4.945179593e-17
4.944035838e-17
4.942900151e-17
4.94177214e-17
4.940651437e-17
4.939537679e-17
4.938430515e-17
4.937329598e-17
4.936234577e-17
4.935145125e-17
4.934060905e-17
4.932981572e-17
4.931906802e-17
4.930836258e-17
4.929769605e-17
4.928706512e-17
4.927646634e-17
4.926589623e-17
4.925535145e-17
4.924482837e-17
4.923432338e-17
4.922383269e-17
4.921335233e-17
4.92028783e-17
4.919240629e-17
4.918193191e-17
4.917145048e-17
4.916095724e-17
4.915044741e-17
4.913991607e-17
4.912935843e-17
4.911876976e-17
4.910814533e-17
4.909748073e-17
4.908677155e-17
4.907601354e-17
4.906520246e-17
4.905433386e-17
4.904340327e-17
4.903240598e-17
4.902133705e-17
4.901019129e-17
4.899896341e-17
4.898764785e-17
4.897623891e-17
4.896473068e-17
4.895311713e-17
4.894139245e-17
4.892955018e-17
4.891758392e-17
4.890548713e-17
4.889325333e-17
4.888087596e-17
4.886834857e-17
4.885566471e-17
4.88428181e-17
4.88298026e-17
4.881661235e-17
4.880324139e-17
4.87896839e-17
4.877593402e-17
4.876198581e-17
4.874783319e-17
4.873346993e-17
4.871888942e-17
4.870408469e-17
4.868904827e-17
4.867377229e-17
4.86582485e-17
4.864246808e-17
4.862642305e-17
4.861010336e-17
4.859349911e-17
4.857659887e-17
4.85593917e-17
4.854187237e-17
4.852402004e-17
4.850586064e-17
4.848735559e-17
4.846850475e-17
4.844929781e-17
4.842972451e-17
4.840977443e-17
4.838944187e-17
4.836871136e-17
4.834757318e-17
4.832601635e-17
4.830403e-17
4.828160313e-17
4.825872333e-17
4.823537947e-17
4.821155808e-17
4.818724402e-17
4.816242622e-17
4.813709102e-17
4.811122502e-17
4.808481425e-17
4.805784427e-17
4.803030032e-17
4.800216725e-17
4.797342946e-17
4.794407096e-17
4.791407536e-17
4.788342572e-17
4.785210469e-17
4.78200943e-17
4.778737612e-17
4.775393114e-17
4.771973967e-17
4.768478157e-17
4.764903586e-17
4.761248093e-17
4.757509446e-17
4.753685334e-17
4.749773366e-17
4.745771055e-17
4.741675827e-17
4.737485007e-17
4.733195808e-17
4.728805337e-17
4.724310585e-17
4.719708405e-17
4.714995545e-17
4.710168603e-17
4.705224048e-17
4.700158201e-17
4.694967242e-17
4.689647183e-17
4.684193882e-17
4.67860302e-17
4.672870095e-17
4.666990431e-17
4.660959158e-17
4.654771221e-17
4.648421374e-17
4.64190418e-17
4.635214016e-17
4.628345065e-17
4.621291315e-17
4.61404653e-17
4.606604229e-17
4.598957642e-17
4.591099651e-17
4.583022765e-17
4.574719077e-17
4.566180243e-17
4.557397481e-17
4.548361559e-17
4.539062802e-17
4.529490872e-17
4.519634277e-17
4.509482583e-17
4.499023273e-17
4.488243458e-17
4.477129527e-17
4.46566587e-17
4.453837317e-17
4.441626904e-17
4.429016502e-17
4.415986802e-17
4.402519122e-17
4.388588525e-17
4.374174539e-17
4.359252883e-17
4.343798283e-17
4.327784178e-17
4.311182594e-17
4.293964026e-17
4.276097294e-17
4.257549415e-17
4.238285464e-17
4.218268176e-17
4.197457984e-17
4.175812381e-17
4.153285268e-17
4.129825275e-17
4.105384063e-17
4.079908813e-17
4.053341939e-17
4.025621073e-17
3.996678433e-17
3.966440142e-17
3.934825619e-17
3.901747146e-17
3.867109617e-17
3.830810408e-17
3.792739322e-17
3.752778632e-17
3.710803722e-17
3.666685951e-17
3.620277083e-17
3.571427115e-17
3.519966087e-17
3.465705463e-17
3.40844366e-17
3.347958551e-17
3.284005591e-17
3.21631682e-17
3.144598815e-17
3.068529966e-17
2.987775558e-17
2.9019682e-17
2.81070798e-17
2.713558174e-17
2.61004211e-17
2.499642678e-17
2.381800945e-17
2.255927396e-17
2.121416506e-17
1.97765523e-17
1.824048519e-17
1.660072075e-17
1.485359674e-17
1.299843456e-17
1.103949048e-17
8.989736591e-18
6.877439105e-18
4.756336249e-18
2.718663451e-18
9.352968519e-19
2.146169615e-19
2.210007985e-19
2.290516564e-19
1.121204925e-18
2.353701166e-08
2.355012546e-08
2.357009811e-08
2.358540223e-08
2.358743411e-08
2.35744527e-08
2.355509354e-08
2.351844995e-08
2.341643867e-08
2.325584055e-08
2.312415856e-08
2.304653239e-08
2.300347676e-08
2.298054413e-08
2.296952511e-08
2.296488899e-08
2.29640392e-08
2.296488322e-08
2.296522357e-08
2.296408403e-08
2.29598327e-08
2.295149797e-08
2.293708571e-08
2.291466993e-08
2.288072684e-08
2.283040248e-08
2.275540864e-08
2.264287769e-08
2.247462414e-08
2.224191387e-08
2.197118578e-08
2.173823613e-08
2.151690825e-08
2.127320551e-08
2.097216949e-08
2.05856183e-08
2.010601657e-08
1.955177029e-08
1.89874352e-08
1.853931844e-08
1.820101024e-08
1.794223016e-08
1.774065544e-08
1.758172684e-08
1.745585574e-08
1.735646039e-08
1.7278474e-08
1.721727376e-08
1.717065735e-08
1.713568912e-08
1.711127458e-08
1.709515841e-08
1.708675122e-08
1.708437551e-08
1.708806196e-08
1.709703451e-08
1.710959188e-08
1.712592362e-08
1.714511984e-08
1.716776856e-08
1.719347794e-08
1.722102277e-08
1.725080804e-08
1.728197357e-08
1.731507568e-08
1.734940362e-08
1.738580162e-08
1.742411661e-08
1.746335744e-08
1.750400997e-08
1.754537125e-08
1.758805317e-08
1.763142176e-08
1.767640026e-08
1.772293685e-08
1.777004468e-08
1.781833078e-08
1.78672507e-08
1.79178139e-08
1.796994544e-08
1.802283769e-08
1.807742217e-08
1.813373523e-08
1.819087519e-08
1.824956765e-08
1.83093322e-08
1.837120878e-08
1.843529696e-08
1.852611452e-08
1.862159984e-08
1.871909004e-08
1.882000473e-08
1.892355414e-08
1.90312525e-08
1.914233112e-08
1.925754006e-08
1.937579315e-08
1.949821759e-08
1.962390083e-08
1.975408822e-08
1.988803678e-08
2.002764963e-08
2.017213073e-08
2.032178016e-08
2.047533205e-08
2.063434596e-08
2.079856928e-08
2.096651067e-08
2.113964213e-08
2.131807618e-08
2.150054469e-08
2.168868457e-08
2.188274794e-08
2.208130889e-08
2.228569277e-08
2.249523541e-08
2.271152792e-08
2.293388265e-08
2.316393379e-08
2.340065257e-08
2.364542381e-08
2.389749794e-08
2.415865763e-08
2.442892901e-08
2.470662781e-08
2.499262299e-08
2.52857086e-08
2.558638326e-08
2.589215629e-08
2.620124648e-08
2.651171534e-08
2.682072854e-08
2.712376387e-08
2.741292035e-08
2.767664016e-08
2.790288692e-08
2.808377929e-08
2.821492075e-08
2.835970972e-08
2.849372471e-08
2.856936529e-08
2.860565529e-08
2.867498066e-08
2.893966941e-08
2.936006044e-08
2.989243886e-08
3.050391961e-08
3.115960135e-08
3.182396751e-08
3.248499139e-08
3.314572811e-08
3.383998507e-08
3.465968093e-08
3.554851339e-08
3.644694838e-08
3.734964722e-08
3.832269261e-08
3.936061809e-08
4.045634853e-08
4.169680523e-08
4.325430163e-08
4.49329499e-08
4.672278439e-08
4.866254943e-08
5.080512048e-08
5.313872876e-08
5.555936122e-08
5.805351656e-08
6.063117242e-08
6.330092018e-08
6.606799784e-08
6.893431745e-08
7.189852038e-08
7.496670385e-08
7.876282495e-08
8.274620479e-08
8.701737514e-08
9.168942867e-08
9.680985016e-08
1.023674595e-07
1.08246705e-07
1.145235282e-07
1.214480956e-07
1.302105416e-07
1.411956179e-07
1.530833494e-07
1.657996787e-07
1.794230257e-07
1.941368547e-07
2.106924278e-07
2.308116169e-07
2.528863898e-07
2.768969528e-07
3.030814555e-07
3.338140687e-07
3.720085026e-07
4.144983406e-07
4.61833475e-07
5.16345171e-07
5.840871791e-07
6.63291605e-07
7.533620569e-07
8.670124175e-07
1.002540415e-06
1.164989342e-06
1.402426547e-06
1.70273016e-06
2.094936481e-06
2.583508772e-06
3.227042215e-06
4.037250888e-06
5.098667107e-06
6.441296247e-06
8.17469086e-06
1.03018319e-05
1.272399209e-05
1.475811616e-05
1.483743188e-05
1.190999454e-05
7.140256774e-06
3.024594256e-06
9.332049008e-07
4.324854338e-07
2.337524161e-07
1.146915131e-07
5.630484267e-08
2.358044392e-08
1.228987798e-08
3.481697113e-09
2.578734649e-09
2.087005244e-09
1.510221122e-09
1.036375012e-09
7.031526266e-10
5.009175133e-10
3.792484174e-10
2.93618603e-10
2.325226213e-10
1.878420028e-10
1.543254838e-10
1.285894828e-10
1.084203733e-10
9.220886784e-11
7.905015963e-11
6.816978665e-11
5.908645893e-11
5.141896354e-11
4.489917414e-11
3.93161659e-11
3.450928677e-11
3.034989493e-11
2.673606962e-11
2.358511877e-11
2.082932251e-11
1.8412581e-11
1.628808243e-11
1.441662922e-11
1.276496772e-11
1.130480667e-11
1.001202368e-11
8.865894165e-12
7.848594619e-12
6.944679305e-12
6.140755181e-12
5.425163852e-12
4.787756681e-12
4.219697336e-12
3.713338847e-12
3.262021027e-12
2.859497536e-12
2.499295617e-12
2.176294048e-12
1.887135093e-12
1.628529599e-12
1.39767543e-12
1.192093898e-12
1.009754698e-12
8.488121299e-13
7.071192737e-13
5.819590759e-13
4.7086556e-13
3.71972367e-13
2.83813842e-13
2.051984019e-13
1.351120172e-13
7.267038232e-14
1.708607569e-14
1.059786374e-16
1.01922225e-16
9.828043058e-17
9.501188286e-17
9.207591629e-17
8.943515884e-17
8.705790959e-17
8.491609462e-17
8.298628585e-17
8.124613553e-17
7.967566975e-17
7.825860488e-17
7.697938283e-17
7.582414632e-17
7.478043734e-17
7.383706338e-17
7.298398173e-17
7.221219199e-17
7.151353089e-17
7.088063552e-17
7.030688524e-17
6.978635058e-17
6.931371341e-17
6.888415847e-17
6.849334912e-17
6.81374375e-17
6.781292432e-17
6.751666699e-17
6.724584385e-17
6.6997913e-17
6.677058128e-17
6.656178071e-17
6.636965028e-17
6.619251856e-17
6.602888503e-17
6.587740143e-17
6.573685399e-17
6.560614885e-17
6.54842999e-17
6.5370418e-17
6.526370229e-17
6.516343267e-17
6.506896274e-17
6.497971267e-17
6.489516246e-17
6.481484534e-17
6.4738342e-17
6.466527524e-17
6.459530566e-17
6.452812774e-17
6.446346638e-17
6.440107369e-17
6.43407262e-17
6.428222273e-17
6.422538205e-17
6.417004123e-17
6.411605375e-17
6.4063288e-17
6.401162586e-17
6.396096137e-17
6.391119947e-17
6.386225486e-17
6.381405116e-17
6.37665199e-17
6.371959975e-17
6.367323601e-17
6.362738054e-17
6.35819933e-17
6.353704418e-17
6.349248167e-17
6.344827102e-17
6.340438341e-17
6.336079277e-17
6.331747599e-17
6.327441234e-17
6.323158326e-17
6.318897218e-17
6.314656459e-17
6.310434824e-17
6.306231473e-17
6.302046372e-17
6.297878921e-17
6.29372701e-17
6.289589601e-17
6.285465961e-17
6.281355453e-17
6.277257528e-17
6.273171692e-17
6.269097495e-17
6.265034542e-17
6.260982464e-17
6.256940926e-17
6.252909626e-17
6.248888281e-17
6.244876626e-17
6.24087442e-17
6.236881433e-17
6.23289745e-17
6.228922274e-17
6.224955708e-17
6.220997563e-17
6.217047671e-17
6.213105859e-17
6.209171968e-17
6.205245841e-17
6.201327322e-17
6.197416252e-17
6.193512495e-17
6.189615886e-17
6.185726261e-17
6.18184345e-17
6.17796725e-17
6.174097447e-17
6.170233796e-17
6.166376014e-17
6.1625238e-17
6.158676821e-17
6.154834725e-17
6.150997152e-17
6.147163745e-17
6.143334162e-17
6.139508066e-17
6.13568515e-17
6.131865127e-17
6.12804772e-17
6.124232655e-17
6.120419637e-17
6.11660834e-17
6.112798402e-17
6.108989413e-17
6.105180907e-17
6.101372388e-17
6.097563312e-17
6.093753102e-17
6.089941161e-17
6.086126849e-17
6.082309505e-17
6.078488416e-17
6.07466284e-17
6.070832012e-17
6.066995145e-17
6.063151445e-17
6.059300108e-17
6.055440338e-17
6.051571361e-17
6.047692417e-17
6.043802762e-17
6.039901669e-17
6.035988406e-17
6.032062236e-17
6.028122394e-17
6.024168092e-17
6.020198502e-17
6.016212738e-17
6.012209838e-17
6.008188748e-17
6.004148325e-17
6.000087324e-17
5.99600447e-17
5.991898455e-17
5.987767882e-17
5.983611258e-17
5.979426646e-17
5.975211504e-17
5.970965705e-17
5.966688081e-17
5.962377772e-17
5.958032585e-17
5.953651201e-17
5.949231985e-17
5.94477322e-17
5.940272203e-17
5.935729723e-17
5.931141674e-17
5.92650679e-17
5.921823024e-17
5.917088361e-17
5.912301026e-17
5.907458443e-17
5.902558843e-17
5.897599917e-17
5.892578163e-17
5.88749205e-17
5.882338771e-17
5.877115846e-17
5.871820569e-17
5.866450162e-17
5.861001763e-17
5.855472422e-17
5.849859091e-17
5.844158632e-17
5.838367801e-17
5.832483253e-17
5.826501525e-17
5.820419045e-17
5.81423211e-17
5.8079369e-17
5.801529467e-17
5.795005719e-17
5.788361425e-17
5.781592199e-17
5.774693502e-17
5.767660632e-17
5.760488703e-17
5.753172646e-17
5.745707204e-17
5.738086902e-17
5.730306043e-17
5.7223587e-17
5.7142387e-17
5.705939613e-17
5.697454745e-17
5.68877713e-17
5.679899509e-17
5.670814339e-17
5.66151376e-17
5.651989584e-17
5.642233278e-17
5.632235963e-17
5.62198837e-17
5.61148086e-17
5.600703384e-17
5.589645495e-17
5.578296351e-17
5.566644681e-17
5.554678818e-17
5.542386679e-17
5.52975576e-17
5.516773107e-17
5.503425253e-17
5.489698145e-17
5.475577043e-17
5.461046446e-17
5.446090025e-17
5.430690576e-17
5.414829991e-17
5.398489284e-17
5.381648768e-17
5.364288163e-17
5.346381561e-17
5.327910555e-17
5.308848496e-17
5.289169503e-17
5.268847903e-17
5.247850088e-17
5.226147895e-17
5.203707405e-17
5.180493096e-17
5.156467378e-17
5.131590663e-17
5.105820391e-17
5.079113063e-17
5.051422433e-17
5.022699959e-17
4.992894716e-17
4.961953259e-17
4.929819436e-17
4.89643416e-17
4.86173518e-17
4.825656844e-17
4.788129827e-17
4.749080812e-17
4.70843184e-17
4.666099667e-17
4.621995655e-17
4.576027913e-17
4.528099537e-17
4.478107519e-17
4.425941691e-17
4.371483341e-17
4.314604008e-17
4.255164545e-17
4.193014484e-17
4.127991851e-17
4.059923275e-17
3.988624096e-17
3.913898474e-17
3.835539675e-17
3.753329663e-17
3.66703418e-17
3.576400021e-17
3.481172168e-17
3.381083866e-17
3.275840587e-17
3.165117505e-17
3.048562877e-17
2.925800991e-17
2.796435708e-17
2.660055243e-17
2.516218959e-17
2.364482086e-17
2.204392358e-17
2.03548808e-17
1.857304656e-17
1.669396766e-17
1.471344818e-17
1.262815435e-17
1.043638985e-17
8.138565052e-18
5.738271568e-18
3.244115121e-18
6.723920992e-19
2.023058486e-19
2.044667609e-19
2.068723208e-19
2.095688737e-19
2.126144473e-19
2.160810811e-19
2.200555626e-19
2.246332525e-19
2.298927099e-19
2.358141837e-19
2.420583581e-19
4.121481685e-08
4.122687757e-08
4.124437309e-08
4.125782032e-08
4.12585157e-08
4.124178004e-08
4.12063097e-08
4.113998949e-08
4.102305701e-08
4.086402666e-08
4.071607645e-08
4.060721514e-08
4.053464323e-08
4.048883561e-08
4.046109439e-08
4.044442562e-08
4.043398402e-08
4.042583311e-08
4.04164199e-08
4.040291456e-08
4.038241443e-08
4.035215349e-08
4.030850588e-08
4.024712862e-08
4.016194119e-08
4.004486334e-08
3.988473146e-08
3.966764094e-08
3.938166687e-08
3.902734041e-08
3.863021879e-08
3.823087502e-08
3.781866177e-08
3.736427164e-08
3.683577469e-08