/*--------------------------------*- C++ -*----------------------------------*\
| =========                 |                                                 |
| \\      /  F ield         | OpenFOAM: The Open Source CFD Toolbox           |
|  \\    /   O peration     | Version:  v2006                                 |
|   \\  /    A nd           | Website:  www.openfoam.com                      |
|    \\/     M anipulation  |                                                 |
\*---------------------------------------------------------------------------*/
FoamFile
{
    version     2.0;
    format      ascii;
    class       volScalarField;
    location    "0.075";
    object      H2;
}
// * * * * * * * * * * * * * * * * * * * * * * * * * * * * * * * * * * * * * //

dimensions      [0 0 0 0 0 0 0];


internalField   nonuniform List<scalar> 
72000
(
1.619130084e-05
1.621823618e-05
1.62677304e-05
1.629884073e-05
1.630510247e-05
1.627503439e-05
1.631112886e-05
1.646647123e-05
1.630990856e-05
1.596894735e-05
1.583991325e-05
1.586240862e-05
1.588058014e-05
1.589602459e-05
1.590330569e-05
1.591725155e-05
1.592689193e-05
1.59282687e-05
1.593837204e-05
1.594039063e-05
1.594877613e-05
1.594955056e-05
1.595395121e-05
1.595022054e-05
1.595182027e-05
1.594962319e-05
1.594516874e-05
1.593998129e-05
1.587609925e-05
1.567789954e-05
1.526335195e-05
1.521409935e-05
1.516832218e-05
1.511954096e-05
1.502774934e-05
1.483255609e-05
1.452982742e-05
1.409023414e-05
1.344550467e-05
1.324081591e-05
1.313134165e-05
1.30478441e-05
1.298109414e-05
1.292380529e-05
1.288064158e-05
1.284301502e-05
1.281009757e-05
1.278679589e-05
1.276301446e-05
1.274860981e-05
1.273029806e-05
1.272154662e-05
1.270709585e-05
1.27018216e-05
1.269350347e-05
1.268632084e-05
1.268202599e-05
1.267451779e-05
1.26738257e-05
1.267079497e-05
1.26646888e-05
1.26643797e-05
1.266018348e-05
1.266274905e-05
1.265820342e-05
1.265994067e-05
1.26579941e-05
1.265483973e-05
1.265593751e-05
1.265186157e-05
1.265436029e-05
1.265274649e-05
1.26540381e-05
1.265252101e-05
1.265082038e-05
1.265200759e-05
1.264840986e-05
1.265201543e-05
1.265065911e-05
1.264855026e-05
1.264895821e-05
1.264886834e-05
1.264430402e-05
1.264694089e-05
1.264453846e-05
1.264618307e-05
1.264580649e-05
1.264296231e-05
1.264502063e-05
1.264069222e-05
1.264287481e-05
1.264122117e-05
1.264535217e-05
1.264256585e-05
1.264617903e-05
1.264374836e-05
1.264849354e-05
1.264756729e-05
1.264984544e-05
1.265023036e-05
1.265395359e-05
1.265413166e-05
1.265826331e-05
1.265748894e-05
1.266362734e-05
1.266525269e-05
1.266489767e-05
1.267103493e-05
1.267385232e-05
1.267440691e-05
1.268096466e-05
1.268392866e-05
1.268724513e-05
1.269459425e-05
1.269752678e-05
1.270577049e-05
1.271204455e-05
1.272076478e-05
1.272815992e-05
1.274044126e-05
1.274808352e-05
1.276123388e-05
1.277113968e-05
1.278001167e-05
1.279374421e-05
1.280455007e-05
1.282118383e-05
1.283233916e-05
1.284555359e-05
1.286173482e-05
1.287827108e-05
1.289268439e-05
1.291018842e-05
1.292230233e-05
1.293580633e-05
1.292323381e-05
1.288872924e-05
1.283546512e-05
1.276192613e-05
1.266142291e-05
1.251917867e-05
1.230344033e-05
1.194621309e-05
1.193171827e-05
1.194514829e-05
1.197637437e-05
1.201757844e-05
1.206844461e-05
1.20924358e-05
1.209357854e-05
1.20553386e-05
1.19387226e-05
1.202119107e-05
1.21073724e-05
1.2137695e-05
1.20889722e-05
1.213263631e-05
1.217562517e-05
1.222406457e-05
1.227082646e-05
1.232007716e-05
1.236852995e-05
1.241898641e-05
1.247329963e-05
1.262319697e-05
1.288884762e-05
1.306048515e-05
1.32073481e-05
1.33504514e-05
1.349180763e-05
1.363235645e-05
1.37716288e-05
1.390673379e-05
1.402930854e-05
1.41185361e-05
1.418404369e-05
1.426647401e-05
1.444295416e-05
1.467244108e-05
1.498020996e-05
1.51714734e-05
1.52815714e-05
1.552275219e-05
1.566185516e-05
1.589571697e-05
1.619728679e-05
1.645187003e-05
1.669917733e-05
1.692215764e-05
1.724365576e-05
1.761571818e-05
1.804741778e-05
1.84290498e-05
1.878455208e-05
1.912239616e-05
1.953802716e-05
2.003252779e-05
2.050920057e-05
2.104802501e-05
2.163352895e-05
2.227455672e-05
2.292377407e-05
2.360790504e-05
2.439326062e-05
2.527037628e-05
2.63975555e-05
2.779047117e-05
2.938407752e-05
3.123594847e-05
3.337746083e-05
3.593835486e-05
3.902984092e-05
4.282250714e-05
4.754834289e-05
5.353791525e-05
6.127588649e-05
7.147162683e-05
8.525646599e-05
0.0001047549813
0.0001365377161
0.0002225874865
0.0006871561459
0.0007838078654
0.0009032163635
0.0009856920659
0.001010454845
0.001002442658
0.0009735444565
0.0009405067682
0.0009026679938
0.0008402896043
0.0007671722653
0.0007035959708
0.0006555483817
0.0005799127797
0.0005065647653
0.0004422888998
0.0003847725693
0.0003329082189
0.0002859083889
0.0002496629259
0.0002210266382
0.0001959253473
0.0001742690077
0.0001557756451
0.0001400221581
0.0001265796467
0.0001150702276
0.0001051771311
9.663815102e-05
8.923851552e-05
8.280247024e-05
7.718571713e-05
7.226936838e-05
6.795485485e-05
6.415961682e-05
6.081424658e-05
5.786006621e-05
5.524721081e-05
5.293311895e-05
5.088129242e-05
4.906032974e-05
4.744314033e-05
4.60063099e-05
4.472958632e-05
4.359544038e-05
4.258850613e-05
4.169512982e-05
4.093414146e-05
4.031225278e-05
3.967836849e-05
3.908735131e-05
3.855406179e-05
3.808241973e-05
3.767340767e-05
3.733000814e-05
3.706371224e-05
3.691001539e-05
3.684802576e-05
3.681130498e-05
3.678404987e-05
3.676162018e-05
3.674250118e-05
3.672599811e-05
3.67117986e-05
3.669966128e-05
3.668940037e-05
3.668087024e-05
3.66739587e-05
3.666860574e-05
3.666787303e-05
3.666801371e-05
3.666870832e-05
3.666985541e-05
3.66713965e-05
3.667329067e-05
3.667550483e-05
3.667801113e-05
3.668078555e-05
3.66838062e-05
3.668705333e-05
3.669050899e-05
3.669415698e-05
3.669798258e-05
3.67019725e-05
3.670611463e-05
3.671039802e-05
3.671481274e-05
3.671934984e-05
3.672400121e-05
3.672875952e-05
3.673361802e-05
3.673857049e-05
3.67436113e-05
3.674873537e-05
3.675393808e-05
3.675921517e-05
3.676456274e-05
3.676997716e-05
3.677545509e-05
3.678099344e-05
3.678658929e-05
3.679223995e-05
3.679794284e-05
3.680369557e-05
3.680949582e-05
3.681534143e-05
3.68212303e-05
3.682716045e-05
3.683312994e-05
3.683913696e-05
3.684517971e-05
3.68512565e-05
3.685736567e-05
3.686350563e-05
3.686967482e-05
3.687587175e-05
3.688209497e-05
3.688834306e-05
3.689461466e-05
3.690090844e-05
3.69072231e-05
3.691355738e-05
3.691991006e-05
3.692627993e-05
3.693266582e-05
3.693906657e-05
3.694548107e-05
3.69519082e-05
3.695834688e-05
3.696479603e-05
3.697125459e-05
3.697772152e-05
3.698419578e-05
3.699067633e-05
3.699716214e-05
3.700365226e-05
3.701014571e-05
3.70166415e-05
3.702313867e-05
3.702963625e-05
3.703613328e-05
3.70426288e-05
3.704912187e-05
3.705561154e-05
3.706209687e-05
3.706857693e-05
3.70750508e-05
3.708151753e-05
3.708797619e-05
3.709442585e-05
3.71008656e-05
3.710729451e-05
3.711371167e-05
3.712011617e-05
3.712650711e-05
3.713288359e-05
3.71392447e-05
3.714558956e-05
3.715191727e-05
3.715822693e-05
3.716451766e-05
3.717078858e-05
3.71770388e-05
3.718326745e-05
3.718947365e-05
3.719565652e-05
3.720181521e-05
3.720794884e-05
3.721405655e-05
3.72201375e-05
3.722619084e-05
3.723221571e-05
3.72382113e-05
3.724417677e-05
3.725011131e-05
3.725601411e-05
3.726188437e-05
3.726772133e-05
3.727352421e-05
3.727929226e-05
3.728502475e-05
3.729072095e-05
3.729638016e-05
3.730200172e-05
3.730758496e-05
3.731312924e-05
3.731863395e-05
3.73240985e-05
3.732952233e-05
3.73349049e-05
3.734024569e-05
3.734554421e-05
3.735080002e-05
3.735601266e-05
3.736118175e-05
3.736630688e-05
3.737138772e-05
3.737642395e-05
3.738141525e-05
3.738636137e-05
3.739126207e-05
3.739611713e-05
3.740092639e-05
3.740568967e-05
3.741040687e-05
3.74150779e-05
3.741970269e-05
3.742428121e-05
3.742881346e-05
3.743329948e-05
3.743773934e-05
3.744213313e-05
3.744648099e-05
3.745078309e-05
3.745503963e-05
3.745925084e-05
3.7463417e-05
3.746753843e-05
3.747161546e-05
3.747564849e-05
3.747963794e-05
3.748358428e-05
3.7487488e-05
3.749134967e-05
3.749516984e-05
3.749894919e-05
3.750268837e-05
3.750638811e-05
3.751004918e-05
3.75136724e-05
3.751725866e-05
3.752080889e-05
3.752432409e-05
3.752780528e-05
3.753125356e-05
3.753467007e-05
3.753805601e-05
3.754141264e-05
3.754474131e-05
3.75480434e-05
3.755132035e-05
3.755457369e-05
3.755780501e-05
3.756101597e-05
3.756420831e-05
3.756738382e-05
3.757054438e-05
3.757369197e-05
3.757682862e-05
3.757995645e-05
3.758307769e-05
3.758619463e-05
3.758930967e-05
3.75924253e-05
3.75955441e-05
3.759866875e-05
3.760180206e-05
3.760494693e-05
3.760810636e-05
3.761128349e-05
3.761448156e-05
3.761770396e-05
3.762095418e-05
3.762423587e-05
3.762755281e-05
3.763090892e-05
3.763430827e-05
3.763775512e-05
3.764125384e-05
3.764480902e-05
3.76484254e-05
3.765210792e-05
3.765586171e-05
3.76596921e-05
3.766360464e-05
3.766760508e-05
3.767169943e-05
3.767589393e-05
3.768019506e-05
3.768460959e-05
3.768914454e-05
3.769380725e-05
3.769860533e-05
3.770354672e-05
3.770863972e-05
3.771389294e-05
3.771931537e-05
3.772491639e-05
3.773070577e-05
3.773669371e-05
3.774289083e-05
3.774930824e-05
3.775595751e-05
3.776285073e-05
3.777000053e-05
3.777742006e-05
3.778512309e-05
3.779312399e-05
3.780143777e-05
3.78100801e-05
3.781906737e-05
3.78284167e-05
3.7838146e-05
3.784827398e-05
3.785882021e-05
3.786980517e-05
3.788125027e-05
3.789317794e-05
3.790561163e-05
3.791857591e-05
3.793209649e-05
3.794620031e-05
3.796091562e-05
3.797627199e-05
3.799230047e-05
3.800903363e-05
3.802650561e-05
3.804475232e-05
3.806381147e-05
3.808372267e-05
3.810452761e-05
3.812627017e-05
3.814899651e-05
3.817275531e-05
3.819759787e-05
3.822357833e-05
3.825075383e-05
3.827918477e-05
3.830893504e-05
3.83400723e-05
3.837266844e-05
3.840679929e-05
3.844254548e-05
3.847999283e-05
3.851923272e-05
3.856036257e-05
3.860348636e-05
3.864871529e-05
3.869616843e-05
3.874597356e-05
3.879826802e-05
3.88531998e-05
3.891092863e-05
3.897162725e-05
3.903548268e-05
3.910269919e-05
3.917349927e-05
3.924812561e-05
3.932684407e-05
3.940994698e-05
3.94977569e-05
3.959063099e-05
3.968896637e-05
3.979320639e-05
3.990384833e-05
4.002145291e-05
4.014665524e-05
4.028017866e-05
4.042285203e-05
4.057563126e-05
4.073962673e-05
4.09161384e-05
4.110670148e-05
4.131314641e-05
4.153767839e-05
4.178298514e-05
4.205238559e-05
4.23500389e-05
4.268124472e-05
4.305288509e-05
4.347410146e-05
4.395735427e-05
4.452016722e-05
4.518812229e-05
4.600034602e-05
4.702018422e-05
4.835800865e-05
5.024552481e-05
5.312163126e-05
1.541744546e-05
1.54291201e-05
1.544804855e-05
1.546280091e-05
1.546755933e-05
1.546203127e-05
1.546575685e-05
1.548004286e-05
1.541851407e-05
1.529229434e-05
1.52120431e-05
1.518323565e-05
1.517051008e-05
1.516406318e-05
1.516014543e-05
1.515726265e-05
1.51545564e-05
1.515153024e-05
1.514789496e-05
1.514338962e-05
1.513783292e-05
1.513087022e-05
1.512221116e-05
1.511109395e-05
1.509689341e-05
1.507797967e-05
1.505137499e-05
1.501038263e-05
1.493721829e-05
1.481446278e-05
1.465152775e-05
1.455799319e-05
1.448157246e-05
1.439979396e-05
1.42896809e-05
1.412965389e-05
1.391193763e-05
1.363581899e-05
1.332711026e-05
1.31337022e-05
1.300659986e-05
1.291291884e-05
1.283973882e-05
1.278086147e-05
1.273279364e-05
1.26931047e-05
1.266006645e-05
1.26325042e-05
1.260940326e-05
1.259010512e-05
1.25738558e-05
1.256031735e-05
1.254882361e-05
1.253925039e-05
1.253107598e-05
1.252420518e-05
1.251822255e-05
1.251314633e-05
1.250903663e-05
1.250556856e-05
1.250258429e-05
1.25000893e-05
1.24980681e-05
1.24964625e-05
1.249516029e-05
1.249418328e-05
1.249328179e-05
1.249247854e-05
1.249196097e-05
1.249150223e-05
1.249129517e-05
1.249119145e-05
1.249121951e-05
1.249119674e-05
1.249119118e-05
1.249124959e-05
1.24913685e-05
1.249162912e-05
1.249187736e-05
1.249207468e-05
1.249234592e-05
1.249262154e-05
1.24928597e-05
1.24932213e-05
1.249368181e-05
1.249431798e-05
1.249498545e-05
1.249574366e-05
1.249693651e-05
1.249832068e-05
1.249998413e-05
1.250196388e-05
1.250427613e-05
1.250682996e-05
1.250976168e-05
1.251294248e-05
1.25165178e-05
1.252033565e-05
1.252450383e-05
1.252900316e-05
1.253387161e-05
1.253914973e-05
1.25449471e-05
1.255106991e-05
1.255756726e-05
1.256438723e-05
1.257152903e-05
1.257907185e-05
1.258693698e-05
1.259514963e-05
1.26038537e-05
1.261287385e-05
1.262236162e-05
1.263240268e-05
1.264296678e-05
1.265417575e-05
1.266600179e-05
1.267846299e-05
1.269173747e-05
1.270569797e-05
1.272025811e-05
1.273549588e-05
1.275126601e-05
1.276762584e-05
1.278454897e-05
1.280191062e-05
1.281983217e-05
1.283805074e-05
1.285648682e-05
1.287497436e-05
1.289312154e-05
1.291028387e-05
1.292561105e-05
1.293727721e-05
1.294229235e-05
1.293381432e-05
1.291010267e-05
1.287109792e-05
1.281564182e-05
1.274006414e-05
1.263863629e-05
1.25069553e-05
1.235861582e-05
1.231570153e-05
1.231530399e-05
1.233673187e-05
1.236985029e-05
1.24057712e-05
1.242889911e-05
1.243641383e-05
1.24256265e-05
1.240360412e-05
1.244449617e-05
1.249524911e-05
1.25265366e-05
1.254789206e-05
1.260371827e-05
1.26678262e-05
1.273731284e-05
1.281056884e-05
1.288875163e-05
1.297257724e-05
1.306524879e-05
1.317563361e-05
1.333246643e-05
1.353359801e-05
1.371410347e-05
1.388223185e-05
1.404572356e-05
1.420776873e-05
1.436947054e-05
1.453057197e-05
1.468931001e-05
1.484194972e-05
1.49811423e-05
1.511526347e-05
1.526891715e-05
1.547090583e-05
1.571995884e-05
1.600983433e-05
1.627242619e-05
1.652003129e-05
1.680765112e-05
1.708465036e-05
1.740890573e-05
1.777453214e-05
1.813605344e-05
1.850054105e-05
1.887435042e-05
1.930674613e-05
1.97911184e-05
2.032375127e-05
2.086045271e-05
2.141138137e-05
2.197639772e-05
2.261220819e-05
2.332336365e-05
2.408262361e-05
2.493297774e-05
2.58863818e-05
2.69458823e-05
2.811145082e-05
2.941959292e-05
3.092546725e-05
3.263328616e-05
3.510670935e-05
3.795855931e-05
4.129471835e-05
4.522553018e-05
4.991235159e-05
5.553434793e-05
6.23295953e-05
7.063949757e-05
8.0999217e-05
9.422048765e-05
0.0001118700181
0.0001373137762
0.0001783793759
0.0002523918884
0.0003828388067
0.0005695467405
0.0007416024704
0.0008086782935
0.0009316651638
0.0009979428219
0.001017579787
0.001015967158
0.0009802982101
0.0009328133856
0.0008678763255
0.0007911895333
0.0007231048829
0.0006434542989
0.0005486342462
0.000470743174
0.0004051681997
0.0003536501727
0.0003130553267
0.0002781080771
0.0002476986984
0.0002210636425
0.0001977798373
0.0001774137004
0.0001597186651
0.0001444114345
0.0001311854475
0.0001197435458
0.0001098222336
0.0001011955559
9.367284093e-05
8.70942697e-05
8.132617199e-05
7.625652576e-05
7.179085707e-05
6.784981089e-05
6.436633976e-05
6.128273741e-05
5.854979847e-05
5.612474675e-05
5.397084168e-05
5.205634673e-05
5.035369776e-05
4.883895062e-05
4.749127745e-05
4.629257383e-05
4.52272003e-05
4.428176869e-05
4.344616586e-05
4.271503744e-05
4.207234619e-05
4.147619963e-05
4.093566941e-05
4.045469338e-05
4.003452378e-05
3.96754296e-05
3.937896071e-05
3.914808658e-05
3.898577486e-05
3.887558743e-05
3.879154562e-05
3.87220842e-05
3.866223485e-05
3.860978137e-05
3.856354004e-05
3.852275736e-05
3.848685546e-05
3.845535634e-05
3.842784486e-05
3.841184058e-05
3.840173289e-05
3.839342775e-05
3.838662425e-05
3.838110672e-05
3.837671767e-05
3.837333501e-05
3.837085829e-05
3.836919751e-05
3.836827475e-05
3.836802323e-05
3.836838111e-05
3.83692929e-05
3.837070849e-05
3.837258271e-05
3.837487485e-05
3.837754823e-05
3.838056961e-05
3.838390897e-05
3.838753924e-05
3.839143607e-05
3.83955776e-05
3.839994422e-05
3.840451805e-05
3.840928239e-05
3.841422251e-05
3.841932514e-05
3.842457829e-05
3.842997107e-05
3.843549357e-05
3.844113677e-05
3.844689245e-05
3.84527531e-05
3.845871186e-05
3.846476244e-05
3.847089903e-05
3.847711629e-05
3.848340927e-05
3.848977335e-05
3.849620428e-05
3.850269805e-05
3.850925096e-05
3.851585952e-05
3.852252049e-05
3.852923079e-05
3.853598754e-05
3.854278804e-05
3.854962969e-05
3.855651006e-05
3.856342685e-05
3.857037785e-05
3.857736096e-05
3.858437419e-05
3.859141564e-05
3.859848347e-05
3.860557593e-05
3.861269135e-05
3.86198281e-05
3.862698462e-05
3.86341594e-05
3.864135098e-05
3.864855794e-05
3.865577888e-05
3.866301246e-05
3.867025736e-05
3.867751227e-05
3.868477587e-05
3.869204683e-05
3.869932405e-05
3.870660635e-05
3.871389255e-05
3.872118148e-05
3.872847197e-05
3.873576289e-05
3.87430531e-05
3.875034149e-05
3.875762694e-05
3.876490836e-05
3.877218468e-05
3.877945482e-05
3.87867177e-05
3.87939722e-05
3.880121725e-05
3.880845177e-05
3.881567471e-05
3.8822885e-05
3.883008161e-05
3.883726348e-05
3.884442959e-05
3.885157889e-05
3.885871036e-05
3.886582297e-05
3.887291569e-05
3.887998751e-05
3.888703741e-05
3.889406437e-05
3.89010674e-05
3.890804547e-05
3.89149976e-05
3.892192279e-05
3.892882003e-05
3.893568834e-05
3.894252675e-05
3.894933426e-05
3.895610992e-05
3.896285276e-05
3.896956183e-05
3.89762362e-05
3.898287491e-05
3.898947707e-05
3.899604176e-05
3.900256809e-05
3.90090552e-05
3.901550222e-05
3.902190832e-05
3.902827267e-05
3.903459449e-05
3.904087301e-05
3.904710747e-05
3.905329716e-05
3.905944138e-05
3.906553947e-05
3.90715908e-05
3.907759476e-05
3.908355077e-05
3.908945829e-05
3.90953168e-05
3.910112581e-05
3.910688487e-05
3.911259355e-05
3.911825146e-05
3.912385822e-05
3.912941351e-05
3.913491702e-05
3.914036849e-05
3.914576767e-05
3.915111437e-05
3.915640841e-05
3.916164965e-05
3.916683799e-05
3.917197337e-05
3.917705574e-05
3.918208512e-05
3.918706153e-05
3.919198508e-05
3.919685586e-05
3.920167404e-05
3.920643982e-05
3.921115343e-05
3.921581514e-05
3.922042529e-05
3.922498421e-05
3.922949233e-05
3.923395007e-05
3.923835792e-05
3.924271642e-05
3.924702614e-05
3.925128769e-05
3.925550176e-05
3.925966905e-05
3.926379034e-05
3.926786644e-05
3.927189822e-05
3.927588666e-05
3.927983269e-05
3.92837376e-05
3.928760232e-05
3.92914281e-05
3.929521618e-05
3.929896787e-05
3.930268453e-05
3.930636766e-05
3.931001874e-05
3.931363935e-05
3.931723118e-05
3.932079595e-05
3.93243355e-05
3.932785171e-05
3.933134658e-05
3.933482216e-05
3.93382806e-05
3.934172415e-05
3.934515514e-05
3.934857603e-05
3.935198933e-05
3.935539769e-05
3.935880384e-05
3.936221064e-05
3.936562105e-05
3.936903815e-05
3.937246513e-05
3.937590533e-05
3.937936219e-05
3.938283931e-05
3.938634041e-05
3.938986935e-05
3.939343017e-05
3.939702703e-05
3.940066427e-05
3.94043464e-05
3.94080781e-05
3.941186422e-05
3.941570983e-05
3.941962016e-05
3.942360067e-05
3.942765704e-05
3.943179515e-05
3.943602114e-05
3.944034138e-05
3.944476249e-05
3.944929137e-05
3.945393519e-05
3.945870143e-05
3.946359785e-05
3.946863255e-05
3.947381396e-05
3.947915086e-05
3.94846524e-05
3.949032811e-05
3.949618793e-05
3.950224222e-05
3.950850179e-05
3.951497791e-05
3.952168233e-05
3.952862733e-05
3.953582572e-05
3.954329087e-05
3.955103673e-05
3.955907789e-05
3.956742957e-05
3.957610766e-05
3.958512878e-05
3.959451025e-05
3.96042702e-05
3.961442756e-05
3.962500212e-05
3.963601457e-05
3.964748653e-05
3.965944059e-05
3.967190047e-05
3.968489089e-05
3.969843776e-05
3.971256819e-05
3.972731049e-05
3.974269439e-05
3.975875099e-05
3.977551287e-05
3.979301418e-05
3.981129085e-05
3.983038026e-05
3.985032201e-05
3.987115755e-05
3.989293044e-05
3.991568649e-05
3.993947393e-05
3.996434349e-05
3.999034865e-05
4.001754575e-05
4.004599426e-05
4.007575689e-05
4.010689992e-05
4.013949338e-05
4.017361131e-05
4.020933194e-05
4.02467388e-05
4.028592044e-05
4.032697088e-05
4.036999013e-05
4.041508469e-05
4.046236816e-05
4.05119619e-05
4.056399575e-05
4.061860893e-05
4.067595103e-05
4.073618315e-05
4.079947915e-05
4.086602725e-05
4.093603191e-05
4.100971445e-05
4.108731687e-05
4.116910267e-05
4.125536009e-05
4.13464062e-05
4.144259044e-05
4.154429935e-05
4.165196231e-05
4.176605825e-05
4.188712365e-05
4.201576397e-05
4.215266387e-05
4.229860221e-05
4.24544701e-05
4.262129351e-05
4.280026187e-05
4.299276422e-05
4.320043703e-05
4.342522601e-05
4.366946642e-05
4.393599123e-05
4.422827886e-05
4.455065733e-05
4.490859168e-05
4.53090892e-05
4.576130605e-05
4.627745175e-05
4.687416287e-05
4.757460613e-05
4.841186565e-05
4.943746241e-05
5.071468721e-05
5.232543561e-05
5.434970211e-05
1.516926925e-05
1.51743746e-05
1.518195973e-05
1.518752243e-05
1.518776939e-05
1.518198905e-05
1.5173255e-05
1.515748121e-05
1.511696584e-05
1.505398311e-05
1.500057585e-05
1.496614553e-05
1.494347443e-05
1.492733566e-05
1.49148684e-05
1.490433071e-05
1.489464386e-05
1.488510638e-05
1.487517648e-05
1.486443017e-05
1.485244647e-05
1.483876731e-05
1.482283005e-05
1.480383295e-05
1.478067875e-05
1.475162606e-05
1.471388125e-05
1.466292612e-05
1.459229427e-05
1.449904339e-05
1.439295038e-05
1.430122118e-05
1.421444053e-05
1.412088369e-05
1.400849317e-05
1.386772789e-05
1.369630246e-05
1.350072583e-05
1.330308938e-05
1.314636217e-05
1.302722398e-05
1.293464924e-05
1.286083773e-05
1.280094255e-05
1.275208686e-05
1.271161129e-05
1.267779522e-05
1.264943233e-05
1.262557214e-05
1.260548009e-05
1.258853942e-05
1.257426131e-05
1.256220817e-05
1.25520309e-05
1.254339524e-05
1.253606855e-05
1.252985808e-05
1.252463086e-05
1.252027809e-05
1.251663784e-05
1.251358677e-05
1.251108098e-05
1.250905288e-05
1.250745025e-05
1.250620772e-05
1.250528014e-05
1.250458143e-05
1.25040861e-05
1.250381084e-05
1.250371491e-05
1.250380254e-05
1.250403126e-05
1.250438304e-05
1.250480092e-05
1.250528231e-05
1.25058561e-05
1.250652328e-05
1.250728771e-05
1.250811855e-05
1.25090004e-05
1.250996404e-05
1.251098953e-05
1.251209252e-05
1.251330748e-05
1.251465624e-05
1.25161514e-05
1.251776044e-05
1.251950283e-05
1.252061336e-05
1.252185829e-05
1.252336263e-05
1.252516664e-05
1.252732602e-05
1.252990811e-05
1.253298679e-05
1.253644042e-05
1.254026862e-05
1.254445082e-05
1.254902275e-05
1.255399496e-05
1.255945252e-05
1.256554612e-05
1.257235536e-05
1.257968209e-05
1.258746088e-05
1.259563466e-05
1.260416514e-05
1.261304998e-05
1.26222665e-05
1.263182687e-05
1.264175792e-05
1.265204303e-05
1.266272177e-05
1.267383506e-05
1.268541023e-05
1.269751131e-05
1.271018563e-05
1.272348568e-05
1.273747083e-05
1.275212581e-05
1.276743453e-05
1.278338228e-05
1.279991982e-05
1.28170039e-05
1.283457097e-05
1.285251628e-05
1.287074594e-05
1.288907708e-05
1.290730174e-05
1.292510715e-05
1.294203411e-05
1.295739045e-05
1.297015837e-05
1.29785882e-05
1.298019318e-05
1.29723232e-05
1.295343291e-05
1.292281742e-05
1.287931936e-05
1.282212001e-05
1.275159223e-05
1.267197276e-05
1.259858792e-05
1.256487926e-05
1.256028696e-05
1.257464759e-05
1.259990187e-05
1.262894098e-05
1.265459135e-05
1.267439706e-05
1.26891749e-05
1.27060687e-05
1.274361326e-05
1.279007708e-05
1.283361106e-05
1.287335672e-05
1.292186564e-05
1.297778066e-05
1.303980586e-05
1.312594647e-05
1.322167873e-05
1.332580803e-05
1.34413442e-05
1.357395904e-05
1.373133265e-05
1.390889119e-05
1.408698871e-05
1.426258703e-05
1.443707589e-05
1.461185248e-05
1.478770493e-05
1.496481142e-05
1.514282789e-05
1.532125297e-05
1.550361223e-05
1.569333842e-05
1.590247645e-05
1.614262078e-05
1.641503783e-05
1.671376204e-05
1.702203541e-05
1.734578957e-05
1.770707851e-05
1.809886221e-05
1.851626028e-05
1.896422542e-05
1.943176301e-05
1.992129382e-05
2.044268266e-05
2.101502959e-05
2.164484319e-05
2.232752277e-05
2.305401912e-05
2.383156584e-05
2.465112154e-05
2.554532576e-05
2.653138094e-05
2.76174993e-05
2.883146224e-05
3.019318226e-05
3.169047951e-05
3.337225874e-05
3.529862148e-05
3.746289913e-05
3.995281994e-05
4.333548174e-05
4.740297009e-05
5.217340956e-05
5.779028577e-05
6.449504862e-05
7.251733927e-05
8.22952961e-05
9.440700448e-05
0.0001099812064
0.0001308757904
0.0001611555458
0.0002085399062
0.0002831467123
0.0003932992588
0.0005326790686
0.0006725449106
0.0007675852626
0.0008688324491
0.0009643009685
0.001013569757
0.001023888202
0.001010055951
0.0009828816954
0.0009586743738
0.0008854461664
0.0008094319632
0.0006951529914
0.0005878866081
0.0004989819254
0.0004292257076
0.000376313329
0.0003324213995
0.0002952867021
0.000263367044
0.000235685237
0.0002115597896
0.0001905282128
0.0001721439682
0.0001561276619
0.0001421671827
0.0001299954153
0.0001193646656
0.0001100623212
0.0001019050616
9.473726272e-05
8.842608978e-05
8.285875762e-05
7.793963023e-05
7.35866974e-05
6.972931726e-05
6.630667606e-05
6.326671215e-05
6.056425785e-05
5.816022146e-05
5.602037196e-05
5.411485069e-05
5.241741536e-05
5.090516538e-05
4.955804766e-05
4.835850011e-05
4.729116576e-05
4.634262601e-05
4.55010079e-05
4.475507907e-05
4.409063374e-05
4.349271877e-05
4.295958837e-05
4.248970067e-05
4.208102665e-05
4.173127611e-05
4.143813763e-05
4.119858103e-05
4.100692536e-05
4.08517584e-05
4.072092102e-05
4.060744998e-05
4.050753766e-05
4.041899618e-05
4.034037456e-05
4.027057739e-05
4.020869784e-05
4.015395189e-05
4.012075151e-05
4.009871884e-05
4.007962035e-05
4.006314211e-05
4.004897247e-05
4.003685317e-05
4.002656691e-05
4.001792635e-05
4.001077517e-05
4.000496009e-05
4.00003478e-05
3.999683158e-05
3.999430616e-05
3.999267859e-05
3.999186486e-05
3.999178934e-05
3.999238396e-05
3.999358761e-05
3.999534476e-05
3.999760528e-05
4.000032396e-05
4.000346024e-05
4.000697762e-05
4.001084299e-05
4.001502651e-05
4.001950171e-05
4.002424434e-05
4.002923255e-05
4.003444662e-05
4.003986868e-05
4.004548251e-05
4.005127339e-05
4.005722795e-05
4.006333404e-05
4.006958063e-05
4.007595766e-05
4.008245595e-05
4.008906707e-05
4.009578326e-05
4.010259739e-05
4.010950287e-05
4.011649364e-05
4.012356407e-05
4.013070898e-05
4.013792355e-05
4.014520331e-05
4.01525441e-05
4.015994201e-05
4.016739341e-05
4.017489489e-05
4.018244324e-05
4.019003543e-05
4.019766864e-05
4.020534017e-05
4.021304748e-05
4.022078816e-05
4.022855994e-05
4.023636063e-05
4.024418817e-05
4.025204056e-05
4.025991592e-05
4.026781241e-05
4.027572828e-05
4.028366182e-05
4.02916114e-05
4.029957543e-05
4.030755237e-05
4.031554076e-05
4.032353918e-05
4.033154606e-05
4.033955997e-05
4.034757952e-05
4.035560335e-05
4.03636301e-05
4.037165846e-05
4.037968713e-05
4.03877148e-05
4.039574021e-05
4.040376212e-05
4.041177929e-05
4.041979058e-05
4.042779477e-05
4.043579052e-05
4.04437766e-05
4.045175182e-05
4.045971496e-05
4.046766485e-05
4.04756003e-05
4.048352014e-05
4.049142319e-05
4.04993083e-05
4.05071743e-05
4.051502004e-05
4.052284438e-05
4.053064616e-05
4.053842424e-05
4.054617748e-05
4.055390475e-05
4.056160492e-05
4.056927686e-05
4.057691945e-05
4.058453157e-05
4.059211211e-05
4.059965995e-05
4.0607174e-05
4.061465316e-05
4.062209635e-05
4.062950248e-05
4.06368705e-05
4.064419935e-05
4.065148799e-05
4.065873539e-05
4.066594054e-05
4.067310245e-05
4.068022013e-05
4.068729264e-05
4.069431903e-05
4.070129839e-05
4.070822985e-05
4.071511254e-05
4.072194564e-05
4.072872834e-05
4.073545988e-05
4.074213952e-05
4.074876658e-05
4.075534038e-05
4.076186029e-05
4.07683257e-05
4.077473605e-05
4.078109081e-05
4.078738946e-05
4.079363153e-05
4.079981659e-05
4.080594424e-05
4.08120141e-05
4.081802584e-05
4.082397917e-05
4.082987382e-05
4.083570956e-05
4.08414862e-05
4.084720359e-05
4.085286162e-05
4.08584602e-05
4.086399932e-05
4.086947896e-05
4.087489919e-05
4.088026009e-05
4.088556181e-05
4.089080453e-05
4.089598847e-05
4.09011139e-05
4.090618113e-05
4.091119054e-05
4.091614251e-05
4.092103751e-05
4.092587603e-05
4.093065861e-05
4.093538584e-05
4.094005836e-05
4.094467687e-05
4.094924213e-05
4.095375492e-05
4.095821607e-05
4.096262642e-05
4.09669871e-05
4.09712992e-05
4.097556386e-05
4.097978225e-05
4.098395564e-05
4.098808537e-05
4.099217281e-05
4.09962194e-05
4.100022683e-05
4.100419659e-05
4.100813043e-05
4.101203012e-05
4.101589753e-05
4.101973464e-05
4.102354347e-05
4.102732616e-05
4.103108495e-05
4.103482209e-05
4.103854006e-05
4.104224136e-05
4.104592862e-05
4.104960457e-05
4.105327207e-05
4.105693407e-05
4.106059365e-05
4.106425401e-05
4.106791849e-05
4.107159055e-05
4.107527377e-05
4.10789719e-05
4.108268883e-05
4.108642857e-05
4.109019533e-05
4.109399346e-05
4.109782747e-05
4.110170208e-05
4.110562214e-05
4.110959275e-05
4.111361916e-05
4.111770685e-05
4.112186151e-05
4.112608904e-05
4.11303956e-05
4.113478756e-05
4.113927158e-05
4.114385455e-05
4.114854365e-05
4.115334637e-05
4.115827047e-05
4.116332405e-05
4.116851553e-05
4.117385368e-05
4.117934764e-05
4.118500692e-05
4.119084143e-05
4.119686151e-05
4.120307793e-05
4.120950192e-05
4.121614518e-05
4.122301993e-05
4.123013891e-05
4.123751543e-05
4.124516338e-05
4.125309726e-05
4.12613322e-05
4.126988403e-05
4.127876925e-05
4.128800511e-05
4.129760961e-05
4.130760155e-05
4.131800057e-05
4.132882719e-05
4.134010286e-05
4.135184999e-05
4.136409206e-05
4.137685334e-05
4.139015974e-05
4.140403792e-05
4.141851592e-05
4.143362317e-05
4.144939006e-05
4.146584889e-05
4.148303319e-05
4.150097814e-05
4.151972059e-05
4.153929917e-05
4.155975438e-05
4.158112878e-05
4.160346703e-05
4.162681607e-05
4.165122525e-05
4.167674647e-05
4.170343437e-05
4.173134648e-05
4.176054341e-05
4.17910891e-05
4.182305097e-05
4.185650024e-05
4.18915121e-05
4.192816605e-05
4.19665462e-05
4.200674188e-05
4.204884791e-05
4.209296497e-05
4.213920009e-05
4.218766714e-05
4.223848741e-05
4.229179029e-05
4.234771407e-05
4.240640686e-05
4.246802762e-05
4.253274737e-05
4.260075055e-05
4.267223651e-05
4.27474213e-05
4.282653912e-05
4.290984448e-05
4.299761634e-05
4.309016021e-05
4.318781035e-05
4.329093378e-05
4.339993561e-05
4.351526502e-05
4.363742224e-05
4.376696697e-05
4.390452675e-05
4.405081066e-05
4.4206623e-05
4.437288029e-05
4.455063296e-05
4.474109335e-05
4.494566621e-05
4.516599571e-05
4.540402273e-05
4.566205348e-05
4.59428519e-05
4.624976273e-05
4.658687409e-05
4.697435775e-05
4.740669504e-05
4.788797937e-05
4.842748317e-05
4.90368161e-05
4.973039124e-05
5.052557231e-05
5.144143828e-05
5.249370658e-05
5.36784256e-05
5.492770787e-05
1.49341659e-05
1.493593278e-05
1.493798669e-05
1.493822716e-05
1.493480349e-05
1.492675119e-05
1.491383938e-05
1.489379539e-05
1.48628162e-05
1.48227514e-05
1.478415575e-05
1.475263399e-05
1.472765837e-05
1.470740835e-05
1.469026325e-05
1.467496428e-05
1.466056969e-05
1.464636553e-05
1.463176894e-05
1.461626427e-05
1.459935807e-05
1.458051751e-05
1.455910601e-05
1.453430178e-05
1.45050234e-05
1.446978751e-05
1.442658694e-05
1.437289616e-05
1.430651931e-05
1.422769128e-05
1.414143134e-05
1.405552918e-05
1.396801552e-05