/*--------------------------------*- C++ -*----------------------------------*\
| =========                 |                                                 |
| \\      /  F ield         | OpenFOAM: The Open Source CFD Toolbox           |
|  \\    /   O peration     | Version:  v2006                                 |
|   \\  /    A nd           | Website:  www.openfoam.com                      |
|    \\/     M anipulation  |                                                 |
\*---------------------------------------------------------------------------*/
FoamFile
{
    version     2.0;
    format      ascii;
    class       volScalarField;
    location    "0.075";
    object      H2O;
}
// * * * * * * * * * * * * * * * * * * * * * * * * * * * * * * * * * * * * * //

dimensions      [0 0 0 0 0 0 0];


internalField   nonuniform List<scalar> 
72000
(
0.1016961445
0.1017000163
0.1017067171
0.1017063807
0.101697119
0.1016764779
0.1016675586
0.1016737048
0.1016245501
0.1015449837
0.1015094576
0.1015079734
0.1015064913
0.1015052166
0.1015027822
0.1015024581
0.1015016876
0.1014994914
0.101499693
0.1014983991
0.1014988984
0.1014979879
0.1014982357
0.1014969899
0.1014973661
0.1014973845
0.1014975605
0.1014985881
0.1014880956
0.1014496668
0.1013639715
0.1013592533
0.1013544644
0.1013492277
0.101335465
0.1013004301
0.1012435846
0.1011573587
0.1010229863
0.1009892759
0.100974506
0.1009634195
0.1009545984
0.1009467039
0.1009411304
0.1009360654
0.1009314825
0.1009286502
0.1009252287
0.1009236953
0.100920875
0.1009201154
0.1009177239
0.1009173831
0.1009161686
0.1009151471
0.1009146881
0.1009133526
0.1009135822
0.1009132032
0.1009120446
0.1009122363
0.100911438
0.1009122486
0.1009112765
0.1009118036
0.1009114449
0.1009108169
0.1009111864
0.1009102777
0.1009109548
0.1009106211
0.1009109582
0.1009106392
0.1009103165
0.1009106635
0.1009098297
0.1009107452
0.1009104588
0.100910028
0.1009101689
0.100910228
0.1009092066
0.1009099322
0.100909411
0.1009098427
0.1009098082
0.1009091908
0.1009097339
0.1009086891
0.1009092163
0.1009087902
0.100909756
0.1009090023
0.1009097923
0.1009090804
0.1009101073
0.1009097233
0.100910081
0.1009099778
0.1009106579
0.1009104928
0.1009112919
0.1009108769
0.1009121272
0.1009122572
0.1009118959
0.1009130665
0.1009133985
0.1009131506
0.1009142979
0.1009145315
0.1009148345
0.1009160309
0.1009160742
0.1009173327
0.1009180532
0.1009192725
0.1009201049
0.1009220475
0.100922779
0.100924777
0.1009259365
0.1009268086
0.1009287867
0.1009299912
0.1009325516
0.1009337112
0.1009352855
0.100937505
0.1009397414
0.100941416
0.1009439039
0.1009451785
0.1009471408
0.1009432554
0.1009346388
0.1009220096
0.1009049222
0.1008816249
0.100848143
0.1007953837
0.1007021506
0.1006995262
0.1006999628
0.1007022115
0.1007046618
0.1007064962
0.1006954135
0.1006735728
0.1006362284
0.1005662906
0.1005649774
0.1005634438
0.1005402815
0.1004865208
0.1004642772
0.100440449
0.1004171644
0.1003921484
0.1003668685
0.1003404499
0.1003142161
0.1002898017
0.1003039461
0.1003630431
0.1003824164
0.1003876785
0.1003870645
0.1003819864
0.1003730048
0.1003599389
0.1003415419
0.1003143597
0.1002701696
0.100213421
0.1001625434
0.1001506303
0.1001541614
0.1001816792
0.1001578897
0.1000967673
0.10008771
0.1000326705
0.1000187768
0.1000324229
0.1000154861
0.0999832381
0.09993011527
0.09991639872
0.09992242022
0.09994919293
0.09993787356
0.09989016702
0.09981526334
0.09977187784
0.0997528135
0.09970739617
0.09968315709
0.09966890822
0.09965996151
0.09961816664
0.09957060163
0.09955645811
0.09955261949
0.0996124894
0.09973165516
0.09986689394
0.1000158113
0.1001733868
0.1003562387
0.1005569785
0.1007854045
0.1010449507
0.1013394818
0.1016669418
0.1020272701
0.1023993139
0.1027358818
0.1028992411
0.1019587208
0.07522859862
0.0559996076
0.04306602308
0.03459848468
0.02759977435
0.02190562407
0.01719603304
0.01329109428
0.009882938415
0.007180270339
0.00536628064
0.004195158861
0.003386902163
0.002812286388
0.002388452479
0.002047783
0.001762941833
0.001519554699
0.001308928641
0.001136074709
0.0009883001077
0.0008557923699
0.0007403899211
0.0006415133524
0.000557173103
0.0004852001525
0.0004236091279
0.0003707164822
0.000325118632
0.0002856608064
0.0002513938238
0.0002215374367
0.0001954428943
0.0001725714029
0.0001524774093
0.0001347858027
0.0001191793003
0.0001053873046
9.317919282e-05
8.235769133e-05
7.2752968e-05
6.421818125e-05
5.662579669e-05
4.986426133e-05
4.38346701e-05
3.844580263e-05
3.360332742e-05
2.933869098e-05
2.565461829e-05
2.241420231e-05
1.948489287e-05
1.685620786e-05
1.451314489e-05
1.244840464e-05
1.066858933e-05
9.22379944e-06
8.286500097e-06
7.784975926e-06
7.423268046e-06
7.124916441e-06
6.866111561e-06
6.637321001e-06
6.433949958e-06
6.252633699e-06
6.090956909e-06
5.946780687e-06
5.818232743e-06
5.703531739e-06
5.600969331e-06
5.577412811e-06
5.558796104e-06
5.542221403e-06
5.527427764e-06
5.514207235e-06
5.502390066e-06
5.491828364e-06
5.482393067e-06
5.473972261e-06
5.466464996e-06
5.459780495e-06
5.453837152e-06
5.448561611e-06
5.443887949e-06
5.439756845e-06
5.436114769e-06
5.43291348e-06
5.430109607e-06
5.427664234e-06
5.425542469e-06
5.423713014e-06
5.422147519e-06
5.420820054e-06
5.419707445e-06
5.418788958e-06
5.418045976e-06
5.417461731e-06
5.417021104e-06
5.416710464e-06
5.416517529e-06
5.416431245e-06
5.416441659e-06
5.416539801e-06
5.416717574e-06
5.416967666e-06
5.417283462e-06
5.41765898e-06
5.418088813e-06
5.418568075e-06
5.419092354e-06
5.419657667e-06
5.420260414e-06
5.420897338e-06
5.42156549e-06
5.422262192e-06
5.422985014e-06
5.423731746e-06
5.424500376e-06
5.425289072e-06
5.426096163e-06
5.426920125e-06
5.427759567e-06
5.428613218e-06
5.429479919e-06
5.430358609e-06
5.431248314e-06
5.432148145e-06
5.433057285e-06
5.433974982e-06
5.434900544e-06
5.435833332e-06
5.436772753e-06
5.437718253e-06
5.438669299e-06
5.439625359e-06
5.440585904e-06
5.44155059e-06
5.44251906e-06
5.443490964e-06
5.444465935e-06
5.445443651e-06
5.446423791e-06
5.447406052e-06
5.448390148e-06
5.449375807e-06
5.450362778e-06
5.451350829e-06
5.452339742e-06
5.453329271e-06
5.454319146e-06
5.455309118e-06
5.456298952e-06
5.457288425e-06
5.45827732e-06
5.459265426e-06
5.460252534e-06
5.461238442e-06
5.462222945e-06
5.463205844e-06
5.464186942e-06
5.465166041e-06
5.466142947e-06
5.467117467e-06
5.468089406e-06
5.469058575e-06
5.470024782e-06
5.470987837e-06
5.47194755e-06
5.47290373e-06
5.47385619e-06
5.474804741e-06
5.475749197e-06
5.476689369e-06
5.477625069e-06
5.478556112e-06
5.479482313e-06
5.480403485e-06
5.481319444e-06
5.482230003e-06
5.483134979e-06
5.484034188e-06
5.484927446e-06
5.485814568e-06
5.486695375e-06
5.487569687e-06
5.488437328e-06
5.489298126e-06
5.490151915e-06
5.490998531e-06
5.491837818e-06
5.492669624e-06
5.493493805e-06
5.494310218e-06
5.495118725e-06
5.49591919e-06
5.496711481e-06
5.497495469e-06
5.498271024e-06
5.499038022e-06
5.499796342e-06
5.500545863e-06
5.501286474e-06
5.502018031e-06
5.502740488e-06
5.50345369e-06
5.504157551e-06
5.504851972e-06
5.505536861e-06
5.506212133e-06
5.506877705e-06
5.507533503e-06
5.508179459e-06
5.508815513e-06
5.509441613e-06
5.510057712e-06
5.51066377e-06
5.511259753e-06
5.511845633e-06
5.512421385e-06
5.512986991e-06
5.513542434e-06
5.514087699e-06
5.514622774e-06
5.515147654e-06
5.515662339e-06
5.516166749e-06
5.51666104e-06
5.517145093e-06
5.517618947e-06
5.518082605e-06
5.518536086e-06
5.518979445e-06
5.51941271e-06
5.519836128e-06
5.520249612e-06
5.520653275e-06
5.5210472e-06
5.521431476e-06
5.521806204e-06
5.522171516e-06
5.522527496e-06
5.522874273e-06
5.52321198e-06
5.523540762e-06
5.523860775e-06
5.524172177e-06
5.524475139e-06
5.524769836e-06
5.52505644e-06
5.525335162e-06
5.525606217e-06
5.52586983e-06
5.526126236e-06
5.526375683e-06
5.526618431e-06
5.526854752e-06
5.527084932e-06
5.527309268e-06
5.527528075e-06
5.527741678e-06
5.527950421e-06
5.528154661e-06
5.528354768e-06
5.528551134e-06
5.528744162e-06
5.528934277e-06
5.529121918e-06
5.529307546e-06
5.529491639e-06
5.529674695e-06
5.529857232e-06
5.530039792e-06
5.530222934e-06
5.530407244e-06
5.530593328e-06
5.530781818e-06
5.530973372e-06
5.53116867e-06
5.531368426e-06
5.531573378e-06
5.531784298e-06
5.532001987e-06
5.532227281e-06
5.532461052e-06
5.532704207e-06
5.532957693e-06
5.533222496e-06
5.533499647e-06
5.533790219e-06
5.534095338e-06
5.534416178e-06
5.53475397e-06
5.535110003e-06
5.535485628e-06
5.53588226e-06
5.536301385e-06
5.536744552e-06
5.537213381e-06
5.537709562e-06
5.53823485e-06
5.538791074e-06
5.539380134e-06
5.540004013e-06
5.540664776e-06
5.541364575e-06
5.542105639e-06
5.542890266e-06
5.543720943e-06
5.544600177e-06
5.545530585e-06
5.546514878e-06
5.547555813e-06
5.548656324e-06
5.549819418e-06
5.551048205e-06
5.552345928e-06
5.553716028e-06
5.555161838e-06
5.556687152e-06
5.558295827e-06
5.559991904e-06
5.561779632e-06
5.563663479e-06
5.565648136e-06
5.56773853e-06
5.569939834e-06
5.57225759e-06
5.574697341e-06
5.57726519e-06
5.57996741e-06
5.582810697e-06
5.585802756e-06
5.5889504e-06
5.592261252e-06
5.595743553e-06
5.59940599e-06
5.603257677e-06
5.607308165e-06
5.611567473e-06
5.616046161e-06
5.620755422e-06
5.625707216e-06
5.630914413e-06
5.636390943e-06
5.642151826e-06
5.648212306e-06
5.654591879e-06
5.661311442e-06
5.668392802e-06
5.67585944e-06
5.683737364e-06
5.692055191e-06
5.700844584e-06
5.71014089e-06
5.719983908e-06
5.730418946e-06
5.741498965e-06
5.753284949e-06
5.765847596e-06
5.779269374e-06
5.79364726e-06
5.809096472e-06
5.825755393e-06
5.843792815e-06
5.863417393e-06
5.884889613e-06
5.908538981e-06
5.934789178e-06
5.964194698e-06
5.997494899e-06
6.035688957e-06
6.080175688e-06
6.132941366e-06
6.196914023e-06
6.276527054e-06
6.378805517e-06
6.515003897e-06
6.703661405e-06
7.436419328e-06
8.608637699e-06
0.1016857232
0.1016856747
0.1016847506
0.10168037
0.1016711571
0.1016571356
0.1016426662
0.101628569
0.1016001257
0.1015624768
0.1015361942
0.1015217489
0.101511784
0.1015041037
0.1014978002
0.1014924357
0.1014877789
0.1014836571
0.1014799194
0.1014764904
0.1014732818
0.1014702312
0.1014672605
0.1014642588
0.1014611271
0.1014576454
0.1014533301
0.1014470329
0.1014353876
0.1014148863
0.10138701
0.1013731889
0.1013628364
0.1013516969
0.1013354983
0.1013101863
0.101274135
0.1012265386
0.1011717542
0.1011408212
0.1011226217
0.1011100351
0.1011005413
0.1010930435
0.1010869302
0.1010819057
0.1010777281
0.1010741899
0.1010712091
0.1010686643
0.1010665046
0.1010646516
0.101063053
0.1010616664
0.1010604719
0.101059469
0.101058519
0.1010576932
0.1010569698
0.101056355
0.1010558226
0.1010553143
0.1010548881
0.1010544831
0.101054137
0.1010538071
0.1010535095
0.1010532469
0.1010530014
0.1010527721
0.1010525517
0.1010523617
0.1010521614
0.1010519751
0.101051815
0.1010516291
0.1010514655
0.1010512923
0.1010511425
0.1010510026
0.1010508418
0.1010507041
0.101050579
0.1010504361
0.1010503206
0.1010502004
0.101050104
0.1010500388
0.1010500082
0.1010500161
0.1010500319
0.1010501155
0.1010502201
0.1010503757
0.101050559
0.101050792
0.1010510562
0.101051366
0.1010516957
0.1010520862
0.1010524973
0.1010529715
0.1010534759
0.1010540311
0.1010545973
0.101055217
0.1010558794
0.1010565411
0.1010572356
0.101057961
0.1010586923
0.1010594419
0.1010602358
0.1010610362
0.1010618759
0.1010627365
0.1010636525
0.1010645862
0.1010656155
0.1010666693
0.1010677697
0.1010688938
0.1010700588
0.1010712723
0.1010724776
0.1010736834
0.1010748792
0.1010760466
0.101077123
0.1010780721
0.1010788248
0.101079267
0.1010792468
0.1010784185
0.1010761776
0.101071057
0.101062665
0.1010509191
0.101035405
0.1010150901
0.1009883291
0.10095353
0.1009134063
0.1008970153
0.1008887548
0.1008832848
0.1008780846
0.1008705412
0.1008563256
0.1008348009
0.1008054982
0.1007708393
0.1007528549
0.1007366349
0.1007131086
0.1006828438
0.1006599129
0.1006385456
0.1006176458
0.1005968864
0.1005765782
0.1005572677
0.1005403853
0.1005295864
0.1005342342
0.100552059
0.1005607152
0.1005614627
0.1005567038
0.100547603
0.1005345952
0.1005175862
0.1004959383
0.1004684356
0.1004333391
0.1003943681
0.1003610092
0.1003435561
0.1003410694
0.1003489796
0.1003432165
0.1003278044
0.1003076933
0.100281705
0.1002677411
0.1002621165
0.1002478757
0.1002260369
0.1002002794
0.1001873696
0.100184777
0.1001876332
0.1001788763
0.1001607045
0.1001212377
0.100088766
0.1000657083
0.1000419122
0.1000287078
0.1000261777
0.100015728
0.1000002104
0.09999284724
0.1000047167
0.1000126115
0.1001828899
0.1003646644
0.100563335
0.1007736157
0.1010047918
0.1012509365
0.1015101631
0.1017817862
0.1020517829
0.1023093438
0.1025183298
0.1026032929
0.1023755536
0.1012420292
0.0974488909
0.08760509944
0.06903777343
0.05349823523
0.04287306426
0.03480500846
0.02795506089
0.02270063293
0.0178499886
0.01385781268
0.01062565864
0.008197569551
0.006490477805
0.005248887687
0.004309470484
0.003603974742
0.003050248228
0.002609792189
0.002249379738
0.001944526538
0.001684089439
0.00145921961
0.00126532856
0.001098366769
0.0009550462638
0.0008323070022
0.0007270851246
0.0006366831066
0.0005587485119
0.0004913364169
0.0004328247326
0.0003818770063
0.0003373818109
0.0002984168497
0.0002642128501
0.0002341207162
0.0002075893144
0.0001841572539
0.0001634293744
0.0001450674686
0.0001287804339
0.0001143171396
0.0001014603321
9.002127473e-05
7.983575233e-05
7.076047492e-05
6.267049923e-05
5.545924913e-05
4.904070065e-05
4.337333113e-05
3.839686113e-05
3.398384698e-05
2.999746377e-05
2.643349741e-05
2.326903644e-05
2.049229144e-05
1.809779413e-05
1.610349451e-05
1.452393026e-05
1.329073269e-05
1.227014969e-05
1.139009943e-05
1.061559607e-05
9.927725223e-06
9.314677786e-06
8.767657253e-06
8.279549629e-06
7.844197029e-06
7.455971043e-06
7.287766861e-06
7.216022392e-06
7.151865605e-06
7.094526518e-06
7.043146654e-06
6.997039896e-06
6.955624342e-06
6.918411034e-06
6.88495876e-06
6.854879067e-06
6.827839066e-06
6.803534111e-06
6.781690514e-06
6.762062304e-06
6.744428439e-06
6.728590404e-06
6.714369717e-06
6.70160512e-06
6.690151286e-06
6.679877579e-06
6.670666868e-06
6.662414169e-06
6.655025593e-06
6.64841609e-06
6.642507168e-06
6.63722926e-06
6.632520159e-06
6.628323996e-06
6.624590462e-06
6.6212742e-06
6.618334322e-06
6.615734034e-06
6.613440248e-06
6.611423226e-06
6.609656199e-06
6.60811505e-06
6.606778023e-06
6.605625483e-06
6.604639706e-06
6.603804716e-06
6.603106115e-06
6.602530954e-06
6.602067578e-06
6.601705505e-06
6.601435294e-06
6.601248429e-06
6.601137229e-06
6.601094746e-06
6.601114709e-06
6.601191437e-06
6.601319793e-06
6.601495123e-06
6.601713214e-06
6.601970248e-06
6.602262773e-06
6.602587663e-06
6.602942089e-06
6.603323484e-06
6.603729531e-06
6.604158125e-06
6.604607359e-06
6.605075503e-06
6.605560982e-06
6.606062364e-06
6.606578337e-06
6.607107672e-06
6.607649113e-06
6.608201247e-06
6.608763554e-06
6.609335274e-06
6.609915648e-06
6.61050395e-06
6.611099515e-06
6.611701717e-06
6.612309978e-06
6.612923765e-06
6.613542589e-06
6.61416602e-06
6.614793695e-06
6.615425316e-06
6.61606049e-06
6.616698695e-06
6.617339505e-06
6.617982551e-06
6.618627493e-06
6.619274007e-06
6.619921782e-06
6.62057052e-06
6.621219927e-06
6.62186972e-06
6.622519622e-06
6.623169358e-06
6.623818661e-06
6.624467266e-06
6.625114911e-06
6.625761338e-06
6.626406289e-06
6.62704951e-06
6.627690749e-06
6.628329749e-06
6.628966261e-06
6.629600035e-06
6.630230818e-06
6.630858364e-06
6.631482419e-06
6.632102732e-06
6.632719058e-06
6.633331142e-06
6.633938734e-06
6.634541576e-06
6.63513941e-06
6.635731977e-06
6.636319011e-06
6.636900245e-06
6.637475407e-06
6.638044223e-06
6.638606423e-06
6.639161736e-06
6.639709898e-06
6.640250651e-06
6.640783741e-06
6.641308929e-06
6.64182598e-06
6.642334667e-06
6.64283477e-06
6.643326064e-06
6.64380833e-06
6.644281344e-06
6.644744878e-06
6.645198703e-06
6.645642587e-06
6.646076298e-06
6.646499601e-06
6.646912259e-06
6.647314037e-06
6.647704712e-06
6.648084042e-06
6.648451795e-06
6.648807736e-06
6.64915164e-06
6.649483282e-06
6.649802446e-06
6.650108923e-06
6.650402513e-06
6.650683028e-06
6.650950292e-06
6.651204134e-06
6.651444392e-06
6.651670908e-06
6.651883528e-06
6.6520821e-06
6.65226647e-06
6.652436482e-06
6.65259197e-06
6.65273276e-06
6.652858672e-06
6.652969519e-06
6.653065101e-06
6.653145255e-06
6.653209755e-06
6.653258389e-06
6.653290898e-06
6.653307053e-06
6.653306822e-06
6.65328966e-06
6.653256596e-06
6.653206507e-06
6.653139565e-06
6.653055612e-06
6.652954502e-06
6.652836091e-06
6.652700406e-06
6.652547156e-06
6.652376252e-06
6.652187574e-06
6.651981018e-06
6.651756487e-06
6.651513847e-06
6.651253022e-06
6.650973868e-06
6.650676196e-06
6.650359971e-06
6.650025082e-06
6.649671443e-06
6.649298961e-06
6.648907543e-06
6.648497102e-06
6.648067554e-06
6.647618814e-06
6.647150804e-06
6.646663448e-06
6.646156673e-06
6.645630407e-06
6.645084581e-06
6.64451913e-06
6.643933989e-06
6.643329094e-06
6.642704389e-06
6.642059814e-06
6.64139531e-06
6.640710824e-06
6.640006302e-06
6.639281689e-06
6.638536932e-06
6.637771975e-06
6.636986761e-06
6.636181232e-06
6.635355325e-06
6.634508978e-06
6.633642118e-06
6.632754678e-06
6.631846584e-06
6.63091776e-06
6.629968127e-06
6.628997605e-06
6.628006112e-06
6.626993562e-06
6.625959867e-06
6.624904936e-06
6.623828677e-06
6.622731e-06
6.621611816e-06
6.620471043e-06
6.619308607e-06
6.618124449e-06
6.616918523e-06
6.615690804e-06
6.614441278e-06
6.613169942e-06
6.611876791e-06
6.610561808e-06
6.609224954e-06
6.607866165e-06
6.606485347e-06
6.605082383e-06
6.603657133e-06
6.602209447e-06
6.600739094e-06
6.599245609e-06
6.597729037e-06
6.596188894e-06
6.594624746e-06
6.593036103e-06
6.591422e-06
6.589781823e-06
6.58811458e-06
6.586419114e-06
6.58469412e-06
6.582938754e-06
6.581150359e-06
6.579328056e-06
6.57747e-06
6.57557434e-06
6.57363914e-06
6.57166236e-06
6.569641845e-06
6.567575297e-06
6.565460265e-06
6.563294129e-06
6.561074002e-06
6.558796777e-06
6.556458961e-06
6.554056494e-06
6.551584237e-06
6.549038836e-06
6.546416238e-06
6.543711671e-06
6.540919717e-06
6.53803419e-06
6.535048002e-06
6.531953069e-06
6.528740291e-06
6.525399604e-06
6.521920091e-06
6.518290144e-06
6.514497675e-06
6.510530565e-06
6.506377892e-06
6.502024982e-06
6.497459775e-06
6.492667076e-06
6.487629504e-06
6.482329922e-06
6.476749564e-06
6.470868179e-06
6.464664605e-06
6.458117158e-06
6.451204016e-06
6.443909854e-06
6.436221143e-06
6.428128544e-06
6.419628345e-06
6.410724991e-06
6.401435385e-06
6.391794086e-06
6.381864346e-06
6.371752366e-06
6.36162244e-06
6.351721805e-06
6.342420213e-06
6.334269064e-06
6.32808988e-06
6.325097784e-06
6.327112872e-06
6.336903719e-06
6.358712014e-06
6.398969795e-06
6.468048547e-06
6.598964131e-06
6.790391241e-06
7.031805995e-06
7.362286073e-06
0.1017804751
0.1017788958
0.1017754691
0.1017693727
0.1017600227
0.101747459
0.1017326471
0.1017154984
0.1016940612
0.1016700715
0.1016494162
0.1016336492
0.1016212528
0.1016110995
0.1016025206
0.1015950892
0.101588531
0.1015826446
0.1015772634
0.1015722662
0.1015675386
0.1015629831
0.1015584888
0.1015539273
0.1015491274
0.1015438311
0.1015375996
0.1015296924
0.1015189766
0.1015048502
0.1014889069
0.1014759124
0.1014640663
0.1014512814
0.101435463
0.1014149281
0.1013891689
0.1013590934
0.1013285581
0.1013055752
0.1012891953
0.1012770882
0.1012677497
0.1012603174
0.1012543269
0.1012493704
0.1012452019
0.1012416453
0.1012385962
0.1012359564
0.1012336703
0.1012316688
0.1012299179
0.1012283676
0.1012269999
0.1012257884
0.1012246889
0.1012237016
0.1012228071
0.1012220066
0.1012212833
0.1012206129
0.10122
0.1012194255
0.1012188976
0.1012184018
0.1012179479
0.1012175309
0.1012171329
0.1012167578
0.1012163929
0.1012160461
0.1012157043
0.1012153801
0.1012150719
0.1012147627
0.101214464
0.1012141663
0.1012138865
0.1012136203
0.101213355
0.1012131051
0.1012128707
0.1012126356
0.1012124146
0.1012121991
0.1012120038
0.1012118302
0.1012114834
0.101211143
0.1012108198
0.1012105349
0.1012102838
0.1012100898
0.101209951
0.1012098585
0.1012097975
0.1012097747
0.1012097808
0.1012098271
0.1012099102
0.1012100585
0.1012102689
0.1012105285
0.1012108163
0.1012111348
0.1012114675
0.1012117911
0.1012121108
0.1012124229
0.101212712
0.1012129857
0.1012132453
0.1012134751
0.1012136854
0.1012138754
0.1012140639
0.1012142487
0.101214451
0.1012146539
0.1012148633
0.1012150657
0.1012152638
0.1012154427
0.1012155678
0.1012156202
0.1012155656
0.1012153697
0.1012149703
0.1012142977
0.1012132618
0.101211732
0.1012095149
0.1012062647
0.1012014787
0.101194597
0.1011852579
0.1011732281
0.1011580019
0.1011392325
0.1011168086
0.1010913357
0.1010659627
0.1010480164
0.101034812
0.1010237109
0.1010126712
0.1009998051
0.1009832601
0.1009625453
0.1009381672
0.1009124859
0.1008908488
0.1008701431
0.1008471548
0.1008218849
0.1007979239
0.1007749549
0.100752628
0.1007326424
0.1007139975
0.1006968783
0.1006823929
0.1006724328
0.1006691127
0.1006701998
0.1006688172
0.1006633313
0.1006538875
0.1006408514
0.1006244557
0.1006047536
0.1005816692
0.1005551876
0.1005259515
0.1004964349
0.1004709194
0.1004531665
0.1004430008
0.100437333
0.1004299908
0.1004226003
0.1004218844
0.100421893
0.1004101007
0.1004009629
0.1003899895
0.1003770669
0.1003648145
0.1003582099
0.1003569057
0.1003583256
0.1003577946
0.1003562724
0.1003402667
0.1003212363
0.1003083153
0.1003008412
0.1003024228
0.1003086426
0.1003045714
0.1003081241
0.1003235944
0.1003328324
0.1003557657
0.100507411
0.1007052123
0.1009088528
0.1011254128
0.1013480267
0.1015738649
0.1017950037
0.1019976164
0.1021590884
0.1022428635
0.1021567992
0.1016939871
0.1004218276
0.09743413989
0.09138495854
0.08099016697
0.06698474618
0.05543692883
0.04605678549
0.03812413504
0.03120220442
0.02540628248
0.02064600161
0.01720294472
0.0135952938
0.01080671653
0.008642513138
0.006998624749
0.005745236136
0.004782458182
0.004025489714
0.003411213616
0.002907890667
0.002491494681
0.002143697339
0.001851006193
0.001603374692
0.001393050427
0.001213673482
0.001060337465
0.0009286893285
0.0008153014801
0.0007172289119
0.0006321175974
0.0005579995591
0.0004932695135
0.0004365801177
0.0003868123387
0.0003430252894
0.0003044230909
0.000270333695
0.0002401792078
0.0002134686759
0.0001897786318
0.0001687447605
0.0001500509141
0.0001334231512
0.0001186228393
0.0001054426198
9.370180016e-05
8.324385675e-05
7.393410599e-05
6.565767066e-05
5.831455757e-05
5.179362359e-05
4.5965358e-05
4.074121676e-05
3.60889423e-05
3.19677907e-05
2.834756203e-05
2.519998998e-05
2.24997768e-05
2.020836603e-05
1.825656508e-05
1.656206974e-05
1.506929724e-05
1.374363719e-05
1.256192591e-05
1.150708565e-05
1.056527906e-05
9.724728e-06
8.975038175e-06
8.646479893e-06
8.511060525e-06
8.389582559e-06
8.280651578e-06
8.182896646e-06
8.095061785e-06
8.016081869e-06
7.945014374e-06
7.881072752e-06
7.823506209e-06
7.771644247e-06
7.724940495e-06
7.682872514e-06
7.644975104e-06
7.61082999e-06
7.580061378e-06
7.552332057e-06
7.527339807e-06
7.504810518e-06
7.484496949e-06
7.466176776e-06
7.449650876e-06
7.434740646e-06
7.421284366e-06
7.409136392e-06
7.398167499e-06
7.388260144e-06
7.379308762e-06
7.371218553e-06
7.363904105e-06
7.357288355e-06
7.35130179e-06
7.345881842e-06
7.3409723e-06
7.33652268e-06
7.332487606e-06
7.328826206e-06
7.325501629e-06
7.32248063e-06
7.319733217e-06
7.317232353e-06
7.314953704e-06
7.312875409e-06
7.310977832e-06
7.309243345e-06
7.307656102e-06
7.306201846e-06
7.304867734e-06
7.30364219e-06
7.302514774e-06
7.301476068e-06
7.300517567e-06
7.299631587e-06
7.298811192e-06
7.298050119e-06
7.297342717e-06
7.29668389e-06
7.296069042e-06
7.295494032e-06
7.294955126e-06
7.29444896e-06
7.293972496e-06
7.293522998e-06
7.293097994e-06
7.292695254e-06
7.292312772e-06
7.291948763e-06
7.291601713e-06
7.291270444e-06
7.290953054e-06
7.29064821e-06
7.290354776e-06
7.290071709e-06
7.289798067e-06
7.289532986e-06
7.289275679e-06
7.289025421e-06
7.288781561e-06
7.288543521e-06
7.288310857e-06
7.288083393e-06
7.287860759e-06
7.287642081e-06
7.287426847e-06
7.287214645e-06
7.2870051e-06
7.286797864e-06
7.286592607e-06
7.286389018e-06
7.2861868e-06
7.28598567e-06
7.285785352e-06
7.285585585e-06
7.285386112e-06
7.285186686e-06
7.284987064e-06
7.284787011e-06
7.284586295e-06
7.284384691e-06
7.284181974e-06
7.283977923e-06
7.283772325e-06
7.283564965e-06
7.283355632e-06
7.28314412e-06
7.282930221e-06
7.28271373e-06
7.282494449e-06
7.282272172e-06
7.282046695e-06
7.281817816e-06
7.281585321e-06
7.281348997e-06
7.281108622e-06
7.280863965e-06
7.280614792e-06
7.280360861e-06
7.280101928e-06
7.279837749e-06
7.279568086e-06
7.279292709e-06
7.279011395e-06
7.278723934e-06
7.278430129e-06
7.278129789e-06
7.277822731e-06
7.277508767e-06
7.277187705e-06
7.276859347e-06
7.276523481e-06
7.276179885e-06
7.275828329e-06
7.275468573e-06
7.275100372e-06
7.274723479e-06
7.274337639e-06
7.273942592e-06
7.273538071e-06
7.273123799e-06
7.272699502e-06
7.2722649e-06
7.27181972e-06
7.271363689e-06
7.270896543e-06
7.27041803e-06
7.26992791e-06
7.269425956e-06
7.268911948e-06
7.268385675e-06
7.267846929e-06
7.267295499e-06
7.266731174e-06
7.266153735e-06
7.265562951e-06
7.264958574e-06
7.264340331e-06
7.263707927e-06
7.263061043e-06
7.262399355e-06
7.261722537e-06
7.261030241e-06
7.260322095e-06
7.259597589e-06
7.258856015e-06
7.258097493e-06
7.257321797e-06
7.256528812e-06
7.255717991e-06
7.254889086e-06
7.254041756e-06
7.253175642e-06
7.252290067e-06
7.25138553e-06
7.25046091e-06
7.249516043e-06
7.24855052e-06
7.247563951e-06
7.246556041e-06
7.245526242e-06
7.244474288e-06
7.243399746e-06
7.242301799e-06
7.241180305e-06
7.24003471e-06
7.238864583e-06
7.237669437e-06
7.236448776e-06
7.235202095e-06
7.233928873e-06
7.232628582e-06
7.231300676e-06
7.229944597e-06
7.228559775e-06
7.227145619e-06
7.225701524e-06
7.224226866e-06
7.222721005e-06
7.221183281e-06
7.219613014e-06
7.218009504e-06
7.216372025e-06
7.21469983e-06
7.212992149e-06
7.21124818e-06
7.209467094e-06
7.207648031e-06
7.205790096e-06
7.203892357e-06
7.201953844e-06
7.199973545e-06
7.197950405e-06
7.195883325e-06
7.193771161e-06
7.191612722e-06
7.189406772e-06
7.187152022e-06
7.18484713e-06
7.182490697e-06
7.180081272e-06
7.177617334e-06
7.175097309e-06
7.172519557e-06
7.169882378e-06
7.167184017e-06
7.164422659e-06
7.161596442e-06
7.158703453e-06
7.155741733e-06
7.152709272e-06
7.149603993e-06
7.146423728e-06
7.143166196e-06
7.139828981e-06
7.136409518e-06
7.132905079e-06
7.129312774e-06
7.125629565e-06
7.121852335e-06
7.117977927e-06
7.114001479e-06
7.109920804e-06
7.105731159e-06
7.101428251e-06
7.097008065e-06
7.092464162e-06
7.087792149e-06
7.082985957e-06
7.078039246e-06
7.072945257e-06
7.067696857e-06
7.06228623e-06
7.056705574e-06
7.050946515e-06
7.045000283e-06
7.038857706e-06
7.032509188e-06
7.025944676e-06
7.019153613e-06
7.012124895e-06
7.00484683e-06
6.997307082e-06
6.989492609e-06
6.981389493e-06
6.972982777e-06
6.964256485e-06
6.955194407e-06
6.945779574e-06
6.93599397e-06
6.925818269e-06
6.915231472e-06
6.904210615e-06
6.892730574e-06
6.880763997e-06
6.868281392e-06
6.855251334e-06
6.841640695e-06
6.827414904e-06
6.812538282e-06
6.796974197e-06
6.780683737e-06
6.763625181e-06
6.745760164e-06
6.727050841e-06
6.707455108e-06
6.686926465e-06
6.665415965e-06
6.642874134e-06
6.619253248e-06
6.594510223e-06
6.568603768e-06
6.54150449e-06
6.513196019e-06
6.483677125e-06
6.452967284e-06
6.421118195e-06
6.388220716e-06
6.3544315e-06
6.320006572e-06
6.285326824e-06
6.250946271e-06
6.217668749e-06
6.186656857e-06
6.229800452e-06
6.294598034e-06
6.36673167e-06
6.447591086e-06
6.538916311e-06
6.642867537e-06
6.762047195e-06
6.899314788e-06
7.057026008e-06
7.234588594e-06
7.421827751e-06
0.1018751042
0.1018728867
0.1018685082
0.1018617603
0.1018524796
0.1018407348
0.1018268593
0.1018110123
0.1017932762
0.1017747065
0.1017574242
0.101742453
0.101729647
0.1017186048
0.1017089577
0.1017004101
0.1016927332
0.1016857426
0.1016792828
0.1016732222
0.1016674434
0.1016618365
0.1016562835
0.1016506497
0.1016447671
0.1016384121
0.101631274
0.1016229444
0.1016130452
0.1016015573
0.1015892411
0.1015773235
0.1015654126
0.101552578
0.1015378299
0.1015205104
0.1015006802
0.1014791718
0.1014581058
0.1014402228
0.1014259239
0.1014145379
0.101405334
0.1013977512
0.1013757611
0.1013568816
0.1013408245
0.1013271107
0.1013153509
0.1013052373
0.1012965074
0.1012889489
0.101282377
0.1012766383
0.1012715963
0.1012671453
0.101263205
0.101259704
0.1012565836
0.1012537807
0.1012512479
0.1012489561
0.101246872
0.101244972
0.1012432293
0.1012416269
0.1012401412
0.1012387533
0.1012374547
0.1012362301
0.1012350716
0.101233964
0.1012328977
0.1012318573
0.1012308395
0.1012298507
0.1012288899
0.1012279575
0.1012270449
0.1012261504
0.1012252804
0.101224432
0.1012236092
0.1012228223
0.1012220744
0.1012213674
0.1012206917
0.1012200423
0.1012194012
0.1012188155
0.1012183211
0.1012179396
0.101217689
0.1012176611
0.10121792
0.1012183229
0.1012188744
0.101219574
0.1012204281
0.1012214418
0.1012226314
0.1012240119
0.1012255909
0.101227362
0.101229361
0.1012314934
0.1012337217
0.1012360272
0.1012383925
0.1012408125
0.1012432912
0.1012458263
0.1012484195
0.1012510676
0.1012537652
0.1012565568
0.1012594796
0.1012625614
0.1012658182
0.1012692538
0.1012728618
0.1012766323
0.1012805399
0.1012845476
0.1012886012
0.1012926269
0.1012965457
0.1013002547
0.1013036339
0.1013065218
0.1013086969
0.1013097214
0.101306025
0.1013013374
0.1012954624
0.1012879426
0.1012784978
0.1012669445
0.1012469962
0.1012227204
0.101195245
0.101166732
0.1011413719
0.1011242946
0.1011150404
0.1011114198
0.1011110732
0.1011110381
0.1010949243
0.1010764453
0.1010560535
0.1010349525
0.1010146633
0.1009945422
0.1009735117
0.1009517626
0.1009302981
0.1009093479
0.1008889339
0.1008691494
0.1008501601
0.1008324635
0.1008179109
0.100806631
0.1007983151
0.1007915342
0.100783669
0.1007734406
0.1007604306
0.1007446373
0.1007261686
0.1007051653
0.1006818624
0.1006567092
0.1006306183
0.1006051437
0.1005821675
0.1005633246
0.1005488685
0.1005375796
0.1005278858
0.1005205935
0.1005180326
0.1005212449
0.1005326208
0.1005259755
0.1005170202
0.1005083929
0.1005013763
0.1004973756
0.1004970715
0.1004996261
0.1005041319
0.1005113463
0.1005126894
0.1005027824
0.1004983572
0.1005007404
0.1005124633
0.1005242221
0.100527455
0.1005409668