/*--------------------------------*- C++ -*----------------------------------*\
| =========                 |                                                 |
| \\      /  F ield         | OpenFOAM: The Open Source CFD Toolbox           |
|  \\    /   O peration     | Version:  v2006                                 |
|   \\  /    A nd           | Website:  www.openfoam.com                      |
|    \\/     M anipulation  |                                                 |
\*---------------------------------------------------------------------------*/
FoamFile
{
    version     2.0;
    format      ascii;
    class       volScalarField;
    location    "0.075";
    object      H2O2;
}
// * * * * * * * * * * * * * * * * * * * * * * * * * * * * * * * * * * * * * //

dimensions      [0 0 0 0 0 0 0];


internalField   nonuniform List<scalar> 
72000
(
1.140272636e-05
1.141963538e-05
1.145101152e-05
1.147406671e-05
1.148548615e-05
1.147864596e-05
1.151201271e-05
1.161700749e-05
1.154084125e-05
1.135063461e-05
1.12813656e-05
1.129926967e-05
1.131390965e-05
1.132634079e-05
1.133353769e-05
1.134413526e-05
1.135183647e-05
1.135442155e-05
1.136172578e-05
1.136410064e-05
1.136988516e-05
1.137102754e-05
1.137400956e-05
1.137202151e-05
1.137279234e-05
1.13709825e-05
1.136736762e-05
1.136257793e-05
1.132270075e-05
1.120361266e-05
1.095796847e-05
1.092474891e-05
1.089413193e-05
1.086166403e-05
1.080351819e-05
1.068403546e-05
1.050039522e-05
1.023574961e-05
9.850947624e-06
9.723168374e-06
9.65283897e-06
9.599052023e-06
9.556003334e-06
9.519221377e-06
9.491315954e-06
9.46707627e-06
9.445918861e-06
9.430703072e-06
9.415448582e-06
9.405880213e-06
9.39420278e-06
9.388245756e-06
9.379090546e-06
9.375390423e-06
9.369967196e-06
9.365220131e-06
9.362257023e-06
9.35745759e-06
9.356695501e-06
9.354568432e-06
9.350644334e-06
9.350148179e-06
9.347394821e-06
9.348611428e-06
9.345703615e-06
9.34648777e-06
9.345097627e-06
9.342964483e-06
9.343348383e-06
9.340714581e-06
9.341929361e-06
9.340736741e-06
9.341279348e-06
9.340146717e-06
9.338855976e-06
9.339289218e-06
9.336930978e-06
9.338784871e-06
9.337726797e-06
9.336183414e-06
9.336156949e-06
9.335792244e-06
9.332797104e-06
9.33401303e-06
9.332290634e-06
9.332961696e-06
9.332414779e-06
9.330394005e-06
9.331261216e-06
9.328411548e-06
9.329366514e-06
9.328073814e-06
9.330164254e-06
9.328226945e-06
9.330028066e-06
9.32830492e-06
9.330765969e-06
9.329918939e-06
9.330968341e-06
9.330883987e-06
9.332769877e-06
9.332557138e-06
9.334658887e-06
9.333893833e-06
9.337169906e-06
9.337805329e-06
9.337263571e-06
9.340540816e-06
9.341876713e-06
9.341882902e-06
9.345432982e-06
9.34688576e-06
9.348513229e-06
9.35254793e-06
9.354028116e-06
9.358643287e-06
9.362107827e-06
9.367054576e-06
9.371225938e-06
9.378282681e-06
9.38265418e-06
9.390271193e-06
9.395987765e-06
9.40107657e-06
9.409033859e-06
9.415281037e-06
9.424937776e-06
9.431397635e-06
9.439091194e-06
9.448538473e-06
9.458217332e-06
9.466678159e-06
9.476880909e-06
9.48390138e-06
9.4915344e-06
9.483824264e-06
9.463114118e-06
9.431262998e-06
9.387429664e-06
9.327796817e-06
9.243962218e-06
9.118040099e-06
8.912078206e-06
8.902398672e-06
8.910565405e-06
8.930272878e-06
8.956763341e-06
8.990294468e-06
9.011080562e-06
9.020961729e-06
9.01006827e-06
8.948005695e-06
9.001681544e-06
9.057871464e-06
9.082211839e-06
9.061232631e-06
9.0935613e-06
9.125762714e-06
9.161576892e-06
9.196709666e-06
9.233692916e-06
9.270442219e-06
9.308577204e-06
9.348743382e-06
9.443655402e-06
9.605270336e-06
9.713289762e-06
9.808188837e-06
9.902133753e-06
9.996334923e-06
1.009139236e-05
1.018714825e-05
1.028213202e-05
1.037185013e-05
1.044480455e-05
1.050628377e-05
1.057811825e-05
1.070230162e-05
1.08542954e-05
1.104863381e-05
1.118233634e-05
1.127518497e-05
1.143918834e-05
1.155159898e-05
1.17137606e-05
1.191189517e-05
1.209110937e-05
1.227325393e-05
1.244838951e-05
1.267391437e-05
1.292616599e-05
1.321071438e-05
1.348187116e-05
1.374660236e-05
1.401343523e-05
1.432030936e-05
1.467004983e-05
1.502851775e-05
1.54213045e-05
1.584480991e-05
1.629850373e-05
1.676365394e-05
1.726142572e-05
1.780786288e-05
1.841416225e-05
1.910492677e-05
1.990070178e-05
2.080919563e-05
2.185095029e-05
2.301296906e-05
2.439240801e-05
2.602352925e-05
2.799618203e-05
3.041290362e-05
3.340999692e-05
3.718486793e-05
4.203564009e-05
4.843190942e-05
5.7334774e-05
7.131435052e-05
0.0001140475487
0.0002127953384
0.0001583272636
0.0001196365021
9.362206888e-05
7.216797537e-05
5.54588214e-05
4.210505483e-05
3.136778991e-05
2.243016897e-05
1.567886662e-05
1.13585062e-05
8.69087649e-06
6.859627352e-06
5.653031975e-06
4.793285882e-06
4.105994534e-06
3.534142613e-06
3.047629042e-06
2.62838879e-06
2.28366119e-06
1.98714527e-06
1.720477842e-06
1.488047919e-06
1.288886992e-06
1.119014909e-06
9.740653357e-07
8.500350575e-07
7.435295005e-07
6.51718808e-07
5.722751616e-07
5.032854875e-07
4.431776077e-07
3.906442522e-07
3.445998921e-07
3.041472942e-07
2.685310566e-07
2.371122873e-07
2.093461722e-07
1.847684101e-07
1.629818604e-07
1.436446325e-07
1.264611137e-07
1.11174559e-07
9.756040467e-08
8.541959914e-08
7.456876881e-08
6.481839175e-08
5.62224051e-08
4.878449063e-08
4.22548443e-08
3.635439621e-08
3.105898189e-08
2.633677051e-08
2.217148396e-08
1.857380271e-08
1.563878086e-08
1.370005947e-08
1.262057055e-08
1.182628391e-08
1.116599551e-08
1.059169923e-08
1.008358459e-08
9.631791855e-09
9.228989515e-09
8.869830444e-09
8.549557889e-09
8.264002686e-09
8.009185119e-09
7.781274476e-09
7.734379053e-09
7.697952107e-09
7.665463271e-09
7.636412404e-09
7.610398667e-09
7.587094168e-09
7.566212976e-09
7.547505459e-09
7.530755144e-09
7.515766788e-09
7.502364829e-09
7.490391458e-09
7.479704835e-09
7.4701775e-09
7.46169477e-09
7.454153161e-09
7.447459428e-09
7.441529738e-09
7.43628888e-09
7.431669424e-09
7.427610898e-09
7.424058529e-09
7.42096223e-09
7.418277242e-09
7.415963526e-09
7.413985133e-09
7.412309696e-09
7.410908043e-09
7.409753873e-09
7.408823503e-09
7.408095626e-09
7.407551069e-09
7.40717256e-09
7.406944523e-09
7.406852896e-09
7.406884976e-09
7.407029283e-09
7.407275451e-09
7.407614125e-09
7.408036872e-09
7.408536086e-09
7.409104902e-09
7.409737126e-09
7.410427155e-09
7.411169915e-09
7.411960808e-09
7.412795662e-09
7.413670689e-09
7.41458245e-09
7.415527813e-09
7.416503931e-09
7.417508217e-09
7.418538311e-09
7.419592071e-09
7.420667541e-09
7.421762936e-09
7.422876635e-09
7.424007151e-09
7.425153126e-09
7.426313318e-09
7.427486584e-09
7.428671871e-09
7.429868201e-09
7.431074639e-09
7.432290246e-09
7.433514092e-09
7.434745604e-09
7.435984178e-09
7.43722923e-09
7.438480142e-09
7.439736378e-09
7.440997411e-09
7.442262744e-09
7.443531912e-09
7.444804481e-09
7.446080052e-09
7.447358267e-09
7.44863879e-09
7.449921239e-09
7.451205179e-09
7.452490215e-09
7.453775983e-09
7.455062138e-09
7.456348348e-09
7.457634291e-09
7.458919652e-09
7.460204123e-09
7.461487398e-09
7.462769177e-09
7.464049162e-09
7.465327061e-09
7.46660258e-09
7.467875432e-09
7.469145327e-09
7.470411979e-09
7.471675106e-09
7.472934422e-09
7.474189641e-09
7.475440482e-09
7.476686661e-09
7.477927898e-09
7.479163913e-09
7.48039442e-09
7.48161914e-09
7.482837792e-09
7.484050096e-09
7.485255768e-09
7.486454528e-09
7.487646091e-09
7.488830174e-09
7.490006495e-09
7.491174766e-09
7.492334701e-09
7.493486018e-09
7.494628434e-09
7.495761674e-09
7.496885463e-09
7.497999538e-09
7.499103639e-09
7.500197517e-09
7.501280932e-09
7.502353652e-09
7.503415445e-09
7.504466091e-09
7.505505365e-09
7.506533054e-09
7.507548939e-09
7.508552804e-09
7.50954444e-09
7.51052364e-09
7.511490194e-09
7.512443909e-09
7.513384525e-09
7.514311969e-09
7.515225954e-09
7.516126324e-09
7.517012896e-09
7.517885496e-09
7.518743958e-09
7.519588125e-09
7.520417843e-09
7.521232976e-09
7.522033396e-09
7.522818987e-09
7.523589642e-09
7.52434526e-09
7.525085753e-09
7.525811037e-09
7.526521033e-09
7.527215668e-09
7.527894873e-09
7.528558575e-09
7.529206705e-09
7.5298392e-09
7.530456004e-09
7.531056906e-09
7.531642143e-09
7.532211415e-09
7.532764726e-09
7.533302005e-09
7.533823203e-09
7.534328343e-09
7.53481738e-09
7.535290701e-09
7.535748033e-09
7.536189482e-09
7.536615099e-09
7.537024936e-09
7.537419061e-09
7.537797599e-09
7.538160577e-09
7.538508097e-09
7.538840268e-09
7.539157212e-09
7.539459067e-09
7.539745966e-09
7.540018066e-09
7.540275512e-09
7.54051845e-09
7.540747083e-09
7.540961615e-09
7.541162267e-09
7.541349264e-09
7.541522851e-09
7.541683284e-09
7.541830834e-09
7.541965788e-09
7.542088449e-09
7.542199136e-09
7.542298186e-09
7.542385952e-09
7.542462802e-09
7.542529126e-09
7.542585332e-09
7.542631842e-09
7.542669106e-09
7.542697589e-09
7.542717778e-09
7.542730181e-09
7.54273533e-09
7.542733775e-09
7.542726097e-09
7.542712894e-09
7.542694793e-09
7.54267244e-09
7.542646514e-09
7.542617719e-09
7.542586781e-09
7.542554465e-09
7.542521564e-09
7.542488901e-09
7.542457336e-09
7.542427766e-09
7.542401127e-09
7.54237839e-09
7.542360574e-09
7.542348737e-09
7.542343987e-09
7.542347481e-09
7.542360432e-09
7.542384112e-09
7.542419852e-09
7.542469054e-09
7.542533196e-09
7.542613825e-09
7.542712575e-09
7.542831147e-09
7.542971323e-09
7.543134958e-09
7.543323973e-09
7.543540362e-09
7.543786192e-09
7.544063613e-09
7.54437486e-09
7.544722254e-09
7.545108184e-09
7.545535079e-09
7.546005643e-09
7.546522522e-09
7.547088468e-09
7.547706309e-09
7.548378846e-09
7.549109103e-09
7.549900114e-09
7.55075498e-09
7.551676919e-09
7.552669378e-09
7.553735439e-09
7.554878904e-09
7.556103517e-09
7.557413194e-09
7.558812047e-09
7.560304395e-09
7.561894763e-09
7.563587891e-09
7.565388728e-09
7.567302666e-09
7.569334792e-09
7.571490964e-09
7.573777026e-09
7.576199259e-09
7.578765502e-09
7.581481454e-09
7.584353912e-09
7.587390363e-09
7.590598606e-09
7.593986678e-09
7.597562798e-09
7.60133539e-09
7.605313138e-09
7.6095051e-09
7.613920866e-09
7.618570745e-09
7.623465941e-09
7.628618486e-09
7.634039424e-09
7.639746376e-09
7.645757886e-09
7.65209225e-09
7.658768727e-09
7.665808859e-09
7.673236277e-09
7.681077098e-09
7.689360654e-09
7.698120355e-09
7.707394995e-09
7.717231983e-09
7.727686979e-09
7.738825819e-09
7.7507268e-09
7.763483895e-09
7.777211299e-09
7.792049554e-09
7.808175133e-09
7.825812932e-09
7.845251705e-09
7.866866882e-09
7.891154853e-09
7.918783645e-09
7.950668464e-09
7.988073912e-09
8.032819238e-09
8.087539032e-09
8.156200167e-09
8.244901874e-09
8.363445692e-09
8.527462842e-09
8.762096978e-09
1.016639374e-08
1.244754589e-08
1.049837302e-05
1.050624969e-05
1.051946913e-05
1.053174904e-05
1.05399336e-05
1.054381869e-05
1.055418809e-05
1.057143159e-05
1.05454538e-05
1.04807019e-05
1.044062283e-05
1.042880906e-05
1.04253579e-05
1.042484774e-05
1.042525206e-05
1.042584759e-05
1.042613464e-05
1.042587426e-05
1.042499789e-05
1.042333478e-05
1.042084614e-05
1.041729069e-05
1.041255022e-05
1.040613183e-05
1.039769989e-05
1.038625661e-05
1.037006992e-05
1.034523533e-05
1.03015239e-05
1.022902998e-05
1.013332048e-05
1.007708588e-05
1.003059052e-05
9.980982407e-06
9.915035209e-06
9.820348764e-06
9.692536393e-06
9.531464878e-06
9.352087941e-06
9.238058363e-06
9.162026998e-06
9.105473554e-06
9.06100364e-06
9.025037181e-06
8.995642949e-06
8.971232147e-06
8.950770223e-06
8.933673075e-06
8.919218566e-06
8.907109882e-06
8.896783614e-06
8.888140877e-06
8.880681979e-06
8.874431064e-06
8.86895136e-06
8.864182659e-06
8.86001889e-06
8.856353746e-06
8.853321974e-06
8.850601897e-06
8.848101632e-06
8.845955424e-06
8.844038382e-06
8.842423211e-06
8.840934252e-06
8.839692089e-06
8.838418713e-06
8.837132608e-06
8.836067183e-06
8.834984884e-06
8.834100921e-06
8.833222304e-06
8.832474993e-06
8.831621238e-06
8.83070311e-06
8.829880468e-06
8.829042995e-06
8.828343876e-06
8.827561236e-06
8.826679478e-06
8.825900273e-06
8.825049744e-06
8.82410401e-06
8.82328562e-06
8.822469529e-06
8.821805285e-06
8.821078093e-06
8.82032145e-06
8.819861546e-06
8.819446395e-06
8.819231395e-06
8.819123636e-06
8.819239552e-06
8.819416032e-06
8.819840937e-06
8.820329155e-06
8.821073283e-06
8.821877627e-06
8.822911973e-06
8.824055243e-06
8.825440282e-06
8.826794762e-06
8.828214566e-06
8.829726012e-06
8.83149925e-06
8.833345489e-06
8.835274749e-06
8.837498306e-06
8.839811338e-06
8.842230373e-06
8.84499742e-06
8.847847794e-06
8.850862638e-06
8.854254007e-06
8.857859915e-06
8.861878817e-06
8.866154095e-06
8.870827611e-06
8.875859965e-06
8.881316036e-06
8.887010144e-06
8.893118861e-06
8.899395356e-06
8.905871275e-06
8.912688688e-06
8.919633839e-06
8.9268936e-06
8.934173253e-06
8.941577349e-06
8.949022221e-06
8.956272446e-06
8.962951602e-06
8.968572888e-06
8.972109801e-06
8.971894001e-06
8.964156182e-06
8.947956441e-06
8.923306785e-06
8.889651808e-06
8.845089258e-06
8.786647735e-06
8.712148707e-06
8.62910359e-06
8.603470091e-06
8.601380658e-06
8.611931247e-06
8.629522157e-06
8.649717599e-06
8.664358102e-06
8.671911434e-06
8.670827255e-06
8.664531948e-06
8.691586288e-06
8.722630148e-06
8.743884928e-06
8.757613171e-06
8.787958951e-06
8.822793113e-06
8.860695153e-06
8.900670862e-06
8.943441539e-06
8.989194786e-06
9.039674248e-06
9.099321474e-06
9.18352867e-06
9.291335673e-06
9.388208749e-06
9.478979736e-06
9.56792831e-06
9.656854688e-06
9.74643412e-06
9.836633783e-06
9.926650369e-06
1.001465097e-05
1.009489982e-05
1.017162253e-05
1.025845765e-05
1.036976685e-05
1.050451675e-05
1.066002507e-05
1.080243454e-05
1.093791124e-05
1.108754578e-05
1.123206106e-05
1.139928351e-05
1.158663424e-05
1.177025604e-05
1.19541551e-05
1.214363948e-05
1.236049277e-05
1.260136849e-05
1.286584551e-05
1.313637147e-05
1.341864191e-05
1.36917006e-05
1.399069566e-05
1.432302105e-05
1.467880613e-05
1.507487517e-05
1.551395783e-05
1.596806764e-05
1.64628202e-05
1.701631227e-05
1.764143452e-05
1.829102221e-05
1.911732488e-05
2.002480335e-05
2.103050538e-05
2.214227043e-05
2.341467928e-05
2.484392969e-05
2.647524297e-05
2.83782754e-05
3.063220741e-05
3.348766952e-05
3.742767049e-05
4.381289817e-05
5.707454571e-05
8.870568884e-05
0.0001430718066
0.0001837194995
0.000174268952
0.0001402396697
0.0001117421157
8.924588683e-05
7.017204001e-05
5.59808823e-05
4.277231955e-05
3.224043039e-05
2.40703939e-05
1.819564882e-05
1.417926165e-05
1.135265868e-05
9.29848403e-06
7.761773589e-06
6.558831692e-06
5.601998186e-06
4.818333215e-06
4.156831331e-06
3.593197906e-06
3.107835299e-06
2.690541371e-06
2.332270761e-06
2.025494795e-06
1.763302016e-06
1.538893005e-06
1.346346845e-06
1.180538396e-06
1.037251196e-06
9.129821145e-07
8.04852984e-07
7.104759246e-07
6.278732011e-07
5.553978554e-07
4.916618288e-07
4.354882485e-07
3.858928083e-07
3.420332624e-07
3.031898535e-07
2.687433933e-07
2.381600307e-07
2.109782357e-07
1.867972423e-07
1.652684961e-07
1.460879435e-07
1.28990457e-07
1.137495664e-07
1.001810499e-07
8.819141185e-08
7.76543674e-08
6.831164354e-08
5.987418504e-08
5.23276045e-08
4.562013617e-08
3.972290827e-08
3.461961395e-08
3.03416759e-08
2.691506703e-08
2.420577166e-08
2.194849297e-08
1.99962975e-08
1.827636924e-08
1.6748368e-08
1.538658797e-08
1.417164779e-08
1.308775972e-08
1.212122847e-08
1.125950336e-08
1.090119053e-08
1.076198e-08
1.063741794e-08
1.05260299e-08
1.042615975e-08
1.03364823e-08
1.02558725e-08
1.018338477e-08
1.011816579e-08
1.005946415e-08
1.000663594e-08
9.95909194e-09
9.916302798e-09
9.877792805e-09
9.843134476e-09
9.811943909e-09
9.783875953e-09
9.758618779e-09
9.735891362e-09
9.715441104e-09
9.697041524e-09
9.680489635e-09
9.665603906e-09
9.652219913e-09
9.640185922e-09
9.629367457e-09
9.619644268e-09
9.610908372e-09
9.60306254e-09
9.59601912e-09
9.589699111e-09
9.584031427e-09
9.57895216e-09
9.574403876e-09
9.570334897e-09
9.56669867e-09
9.563453214e-09
9.560560656e-09
9.55798682e-09
9.555700912e-09
9.553675198e-09
9.551884744e-09
9.550307125e-09
9.548922182e-09
9.547711773e-09
9.54665955e-09
9.545750772e-09
9.544972125e-09
9.544311595e-09
9.543758317e-09
9.543302472e-09
9.542935177e-09
9.542648402e-09
9.542434878e-09
9.542288043e-09
9.542201966e-09
9.542171287e-09
9.542191157e-09
9.542257203e-09
9.542365465e-09
9.542512365e-09
9.542694668e-09
9.542909435e-09
9.543154003e-09
9.543425945e-09
9.543722988e-09
9.544042815e-09
9.544382799e-09
9.544742033e-09
9.545119155e-09
9.545512799e-09
9.545921669e-09
9.546344577e-09
9.546780421e-09
9.547228184e-09
9.547686938e-09
9.548155841e-09
9.548634163e-09
9.549121303e-09
9.54961679e-09
9.550119965e-09
9.550629918e-09
9.551145931e-09
9.55166739e-09
9.552193737e-09
9.552724447e-09
9.553259019e-09
9.553796974e-09
9.554337847e-09
9.554881186e-09
9.555426557e-09
9.555973527e-09
9.556521676e-09
9.557070589e-09
9.557619862e-09
9.558169091e-09
9.558717871e-09
9.559265813e-09
9.559812523e-09
9.560357602e-09
9.560900665e-09
9.56144132e-09
9.561979176e-09
9.562513848e-09
9.563044943e-09
9.563572065e-09
9.564094832e-09
9.564612841e-09
9.565125698e-09
9.565632996e-09
9.566134317e-09
9.566629249e-09
9.567117358e-09
9.567598214e-09
9.568071365e-09
9.568536362e-09
9.568992758e-09
9.569440102e-09
9.569877951e-09
9.570305878e-09
9.570723454e-09
9.57113028e-09
9.571525962e-09
9.571910119e-09
9.572282377e-09
9.572642355e-09
9.572989674e-09
9.573323948e-09
9.573644778e-09
9.573951758e-09
9.574244479e-09
9.57452252e-09
9.574785458e-09
9.575032862e-09
9.575264297e-09
9.575479354e-09
9.57567758e-09
9.575858538e-09
9.576021785e-09
9.576166889e-09
9.57629342e-09
9.576400959e-09
9.576489097e-09
9.576557439e-09
9.576605608e-09
9.576633252e-09
9.576640018e-09
9.576625569e-09
9.576589575e-09
9.576531706e-09
9.576451631e-09
9.576349015e-09
9.576223511e-09
9.576074751e-09
9.575902346e-09
9.575705889e-09
9.575484956e-09
9.575239097e-09
9.574967921e-09
9.574670917e-09
9.57434759e-09
9.573997356e-09
9.573619673e-09
9.573214385e-09
9.572780328e-09
9.572319386e-09
9.571829265e-09
9.57131018e-09
9.570761695e-09
9.57018339e-09
9.569574847e-09
9.568935968e-09
9.568266031e-09
9.567564702e-09
9.56683158e-09
9.566066283e-09
9.565268437e-09
9.564437588e-09
9.563573385e-09
9.562675338e-09
9.561742862e-09
9.56077566e-09
9.559773277e-09
9.558735297e-09
9.557661282e-09
9.556550785e-09
9.555403357e-09
9.554218542e-09
9.552995879e-09
9.551734898e-09
9.550435131e-09
9.549096094e-09
9.5477173e-09
9.546298249e-09
9.544838434e-09
9.543337339e-09
9.541794431e-09
9.540209176e-09
9.538581017e-09
9.536909386e-09
9.535193701e-09
9.533433364e-09
9.531627759e-09
9.529776247e-09
9.527878168e-09
9.525932837e-09
9.523939541e-09
9.521897539e-09
9.519806062e-09
9.517664298e-09
9.515471417e-09
9.513226547e-09
9.510928785e-09
9.508577188e-09
9.506170783e-09
9.503708552e-09
9.501189441e-09
9.498612353e-09
9.495976142e-09
9.493279625e-09
9.490521576e-09
9.487700729e-09
9.484815784e-09
9.481865405e-09
9.478848237e-09
9.475762895e-09
9.472607977e-09
9.469382043e-09
9.466083612e-09
9.46271114e-09
9.459262981e-09
9.455737386e-09
9.452132474e-09
9.448446232e-09
9.444676517e-09
9.440821059e-09
9.436877473e-09
9.432843126e-09
9.428714827e-09
9.424490271e-09
9.420166018e-09
9.415738604e-09
9.411204337e-09
9.406558476e-09
9.401796827e-09
9.396914312e-09
9.39190539e-09
9.386764066e-09
9.381485079e-09
9.376059469e-09
9.370481532e-09
9.364743494e-09
9.358837354e-09
9.352754722e-09
9.346486768e-09
9.340024176e-09
9.333357086e-09
9.32647505e-09
9.319366979e-09
9.312020937e-09
9.304424209e-09
9.296562945e-09
9.288421794e-09
9.279982881e-09
9.271231287e-09
9.262150231e-09
9.252720985e-09
9.242922967e-09
9.232733447e-09
9.222127234e-09
9.211076427e-09
9.1995503e-09
9.187515314e-09
9.174935246e-09
9.161771387e-09
9.147982827e-09
9.133527187e-09
9.118362811e-09
9.102439071e-09
9.085708397e-09
9.068114987e-09
9.049596342e-09
9.030087604e-09
9.009517561e-09
8.987808455e-09
8.964876553e-09
8.940632247e-09
8.914980015e-09
8.887830253e-09
8.859089101e-09
8.828661647e-09
8.796452973e-09
8.762370867e-09
8.726331424e-09
8.68826564e-09
8.648136253e-09
8.605959482e-09
8.561826664e-09
8.515942083e-09
8.468685576e-09
8.420707663e-09
8.373073592e-09
8.327463843e-09
8.286525742e-09
8.254452483e-09
8.237867468e-09
8.247009653e-09
8.29879498e-09
8.452302917e-09
8.698659884e-09
9.00934841e-09
9.452290801e-09
9.801718153e-06
9.805659637e-06
9.812015018e-06
9.818363792e-06
9.822933999e-06
9.825262202e-06
9.826789528e-06
9.825013136e-06
9.809844803e-06
9.781813587e-06
9.758020716e-06
9.743606695e-06
9.734809075e-06
9.728923127e-06
9.724502025e-06
9.720691688e-06
9.716938789e-06
9.712908167e-06
9.70836599e-06
9.703099009e-06
9.696915385e-06
9.689565386e-06
9.680765706e-06
9.670066817e-06
9.656881804e-06
9.64024718e-06
9.618646652e-06
9.589623527e-06
9.549686288e-06
9.49729482e-06
9.437804443e-06
9.385923986e-06
9.33664137e-06
9.283677448e-06
9.220538015e-06
9.142098942e-06
9.047182378e-06
8.939378776e-06
8.8305551e-06
8.743631806e-06
8.676915077e-06
8.624594885e-06
8.582520823e-06
8.548106476e-06
8.519834145e-06
8.496195991e-06
8.476241061e-06
8.459348427e-06
8.444954031e-06
8.43268081e-06
8.422143044e-06
8.413104086e-06
8.405279642e-06
8.398503715e-06
8.392535117e-06
8.387245592e-06
8.382583665e-06
8.378442484e-06
8.374788648e-06
8.37147619e-06
8.368437451e-06
8.365702723e-06
8.363202529e-06
8.360943107e-06
8.3588485e-06
8.356921826e-06
8.35505847e-06
8.353248121e-06
8.351553571e-06
8.349921991e-06
8.348392306e-06
8.346903133e-06
8.345473863e-06
8.344016713e-06
8.34253263e-06
8.341093143e-06
8.339667833e-06
8.338287284e-06
8.336877415e-06
8.335431649e-06
8.334013592e-06
8.332561676e-06
8.331085956e-06
8.329658591e-06
8.32825809e-06
8.326918717e-06
8.325564399e-06
8.324204862e-06
8.322141074e-06
8.320057354e-06
8.318085279e-06
8.316198173e-06
8.314463988e-06
8.312871458e-06
8.311499856e-06
8.310241723e-06
8.309139085e-06
8.308137644e-06
8.307297331e-06
8.306580328e-06
8.306074118e-06
8.305812711e-06
8.305881715e-06
8.306134844e-06
8.306576297e-06
8.307113161e-06
8.307733851e-06
8.308496279e-06
8.309334027e-06
8.310254318e-06
8.311325459e-06
8.312479004e-06
8.313735345e-06
8.315178626e-06
8.316781325e-06
8.318613045e-06
8.320648532e-06
8.322950642e-06
8.325500696e-06
8.328330156e-06
8.331380564e-06
8.334673156e-06
8.338113646e-06
8.341677609e-06
8.345390565e-06
8.349157117e-06
8.352964369e-06
8.356678268e-06
8.360256229e-06
8.363558228e-06
8.366349929e-06
8.36827177e-06
8.368805529e-06
8.367069077e-06
8.36182044e-06
8.351730234e-06
8.336051746e-06
8.314482504e-06
8.285781827e-06
8.24982867e-06
8.20741826e-06
8.160747386e-06
8.117419025e-06
8.093853381e-06
8.08484936e-06
8.085531478e-06
8.091943903e-06
8.100776795e-06
8.108646222e-06
8.114317422e-06
8.118067731e-06
8.12312435e-06
8.138158602e-06
8.157591487e-06
8.175833583e-06
8.192392664e-06
8.213092091e-06
8.23726108e-06
8.264326385e-06
8.298975972e-06
8.335842788e-06
8.376116903e-06
8.421434052e-06
8.474369623e-06
8.538540613e-06
8.611783848e-06
8.684835779e-06
8.756414723e-06
8.827277441e-06
8.898153052e-06
8.969461619e-06
9.041324433e-06
9.113604449e-06
9.185993796e-06
9.255938208e-06
9.328647135e-06
9.40924024e-06
9.502556517e-06
9.608878258e-06
9.725547631e-06
9.845289274e-06
9.970476123e-06
1.010996101e-05
1.025295e-05
1.03929828e-05
1.054278621e-05
1.069797915e-05
1.08594383e-05
1.103059244e-05
1.121622175e-05
1.14116425e-05
1.162232229e-05
1.184503736e-05
1.208183741e-05
1.231464523e-05
1.254859947e-05
1.280385624e-05
1.308145932e-05
1.338425726e-05
1.370049585e-05
1.40245783e-05
1.438202891e-05
1.476392781e-05
1.515469705e-05
1.55846466e-05
1.607010681e-05
1.659710298e-05
1.714423053e-05
1.772952796e-05
1.834993471e-05
1.902658397e-05
1.979906165e-05
2.074908909e-05
2.20728734e-05
2.425592289e-05
2.87186348e-05
3.873236573e-05
5.827996917e-05
8.781512485e-05
0.0001221231427
0.0001472446238
0.0001477767717
0.0001304038548
0.0001105881297
9.192400226e-05
7.502261958e-05
6.059803351e-05
4.863254816e-05
4.006914125e-05
3.112860954e-05
2.439280241e-05
1.940039555e-05
1.567398314e-05
1.284417689e-05
1.067027897e-05
8.95707852e-06
7.568210679e-06
6.432848004e-06
5.496631372e-06
4.717471545e-06
4.064184809e-06
3.513395918e-06
3.0471152e-06
2.650565914e-06
2.312414269e-06
2.022702148e-06
1.773629584e-06
1.558542574e-06
1.372141907e-06
1.210017747e-06
1.06858299e-06
9.448370796e-07
8.362936355e-07
7.408674035e-07
6.567984576e-07
5.826032117e-07
5.170083245e-07
4.58933324e-07
4.074475505e-07
3.617515766e-07
3.211524897e-07
2.850506308e-07
2.5292398e-07
2.243191759e-07
1.988412837e-07
1.761481215e-07
1.559449827e-07
1.379802312e-07
1.220350071e-07
1.078703657e-07
9.521014644e-08
8.386094304e-08
7.374768963e-08
6.47788091e-08
5.688535574e-08
5.000327699e-08
4.407604598e-08
3.902209823e-08
3.469945838e-08
3.093844342e-08
2.762198805e-08
2.467591935e-08
2.204975578e-08
1.970585182e-08
1.761351726e-08
1.574654874e-08
1.408179463e-08
1.338050401e-08
1.311823061e-08
1.288289115e-08
1.26717937e-08
1.248229201e-08
1.231195894e-08
1.215873596e-08
1.202080103e-08
1.18966336e-08
1.17847827e-08
1.168395215e-08
1.159308556e-08
1.151117312e-08
1.143731561e-08
1.137070452e-08
1.131061352e-08
1.125639085e-08
1.120745239e-08
1.116326838e-08
1.112336098e-08
1.108730052e-08
1.105470219e-08
1.102522085e-08
1.099854398e-08
1.097439014e-08
1.09525096e-08
1.093267524e-08
1.09146831e-08
1.089835001e-08
1.088351097e-08
1.087001709e-08
1.085773411e-08
1.084654117e-08
1.083632973e-08
1.08270023e-08
1.081847126e-08
1.081065774e-08
1.08034906e-08
1.079690571e-08
1.079084521e-08
1.078525696e-08
1.078009406e-08
1.077531438e-08
1.077088009e-08
1.076675725e-08
1.076291538e-08
1.075932704e-08
1.075596756e-08
1.075281469e-08
1.074984839e-08
1.074705059e-08
1.074440499e-08
1.074189688e-08
1.073951297e-08
1.073724129e-08
1.073507106e-08
1.073299255e-08
1.073099701e-08
1.072907656e-08
1.072722412e-08
1.07254333e-08
1.072369835e-08
1.072201412e-08
1.072037594e-08
1.071877964e-08
1.071722145e-08
1.071569805e-08
1.071420662e-08
1.071274502e-08
1.071130968e-08
1.070989815e-08
1.070850835e-08
1.070713838e-08
1.070578655e-08
1.070445129e-08
1.070313121e-08
1.070182502e-08
1.070053157e-08
1.069924987e-08
1.069797918e-08
1.069671926e-08
1.069546952e-08
1.069422839e-08
1.069299499e-08
1.069176865e-08
1.069054874e-08
1.068933471e-08
1.068812604e-08
1.068692224e-08
1.068572285e-08
1.068452744e-08
1.068333557e-08
1.068214687e-08
1.068096095e-08
1.067977743e-08
1.067859597e-08
1.067741621e-08
1.067623782e-08
1.067506049e-08
1.067388387e-08
1.067270766e-08
1.067153155e-08
1.067035523e-08
1.066917841e-08
1.06680008e-08
1.06668221e-08
1.066564202e-08
1.066446028e-08
1.066327659e-08
1.066209066e-08
1.06609022e-08
1.06597109e-08
1.065851643e-08
1.065731848e-08
1.065611669e-08
1.06549107e-08
1.065370013e-08
1.065248459e-08
1.065126371e-08
1.06500371e-08
1.064880439e-08
1.064756524e-08
1.064631932e-08
1.06450663e-08
1.064380589e-08
1.064253781e-08
1.064126173e-08
1.063997737e-08
1.063868437e-08
1.063738239e-08
1.063607104e-08
1.063474992e-08
1.063341861e-08
1.063207667e-08
1.063072365e-08
1.062935909e-08
1.062798251e-08
1.062659342e-08
1.06251913e-08
1.062377563e-08
1.062234589e-08
1.062090155e-08
1.061944208e-08
1.061796698e-08
1.061647575e-08
1.061496791e-08
1.061344302e-08
1.061190063e-08
1.061034031e-08
1.060876163e-08
1.060716415e-08
1.060554743e-08
1.0603911e-08
1.060225437e-08
1.060057701e-08
1.059887834e-08
1.059715772e-08
1.059541448e-08
1.059364791e-08
1.059185731e-08
1.059004193e-08
1.058820094e-08
1.058633329e-08
1.058443749e-08
1.058251367e-08
1.058056127e-08
1.057857996e-08
1.057656855e-08
1.057452642e-08
1.057245278e-08
1.057034678e-08
1.056820695e-08
1.05660341e-08
1.056382589e-08
1.056158183e-08
1.055930092e-08
1.055698222e-08
1.055462496e-08
1.055222786e-08
1.054979018e-08
1.054731085e-08
1.054478805e-08
1.054222125e-08
1.053960911e-08
1.053695052e-08
1.053424426e-08
1.053148907e-08
1.052868366e-08
1.052582671e-08
1.052291685e-08
1.051995269e-08
1.051693278e-08
1.051385565e-08
1.051071976e-08
1.050752355e-08
1.050426538e-08
1.050094357e-08
1.049755641e-08
1.04941021e-08
1.049057879e-08
1.048698459e-08
1.048331752e-08
1.047957553e-08
1.047575652e-08
1.047185828e-08
1.046787854e-08
1.046381493e-08
1.045966498e-08
1.045542613e-08
1.045109571e-08
1.044667091e-08
1.044214886e-08
1.043752651e-08
1.043280074e-08
1.042796828e-08
1.042302572e-08
1.041796952e-08
1.041279598e-08
1.040750127e-08
1.040208139e-08
1.039653216e-08
1.039084925e-08
1.038502816e-08
1.037906423e-08
1.037295263e-08
1.036668838e-08
1.036026635e-08
1.035368125e-08
1.034692762e-08
1.033999981e-08
1.033289194e-08
1.03255978e-08
1.031811087e-08
1.031042424e-08
1.030253061e-08
1.029442227e-08
1.028609113e-08
1.027752885e-08
1.026872691e-08
1.025967337e-08
1.025036135e-08
1.024077892e-08
1.023091489e-08
1.022075844e-08
1.021029398e-08
1.019950967e-08
1.018839031e-08
1.017692e-08
1.016508185e-08
1.015285806e-08
1.014022932e-08
1.012717616e-08
1.011367774e-08
1.009971227e-08
1.008525692e-08
1.007028776e-08
1.005477973e-08
1.003870649e-08
1.002204031e-08
1.000475203e-08
9.986810842e-09
9.968184222e-09
9.948837532e-09
9.928733688e-09
9.907833171e-09
9.886095491e-09
9.863478141e-09
9.839936002e-09
9.81542078e-09
9.789880252e-09
9.76325764e-09
9.735491168e-09
9.706513853e-09
9.676253584e-09
9.644633431e-09
9.611571981e-09
9.576983701e-09
9.540779467e-09
9.502866679e-09
9.463146545e-09
9.421512842e-09
9.37786353e-09
9.332095022e-09
9.284092677e-09
9.233730127e-09
9.180872583e-09
9.125379999e-09
9.067110839e-09
9.005926902e-09
8.941686977e-09
8.874265203e-09
8.803551958e-09
8.729456335e-09
8.651914898e-09
8.57091141e-09
8.486487396e-09
8.398789441e-09
8.308128999e-09
8.215025304e-09
8.120290242e-09
8.025165518e-09
7.931518527e-09
7.977208014e-09
8.06059921e-09
8.153431535e-09
8.257493497e-09
8.375024423e-09
8.508804371e-09
8.662182537e-09
8.838838957e-09
9.041805286e-09
9.270319315e-09
9.511286599e-09
9.087171495e-06
9.089077337e-06
9.092002246e-06
9.094815968e-06
9.096521926e-06
9.096536645e-06
9.094585124e-06
9.089311783e-06
9.078512624e-06
9.062787495e-06
9.047235556e-06
9.034622459e-06
9.024717853e-06
9.01666689e-06
9.009717278e-06
9.003293684e-06
8.996959262e-06
8.990393502e-06
8.983344681e-06
8.975579608e-06
8.966875809e-06
8.956976465e-06
8.945576338e-06
8.932265419e-06
8.916508637e-06
8.897562518e-06
8.874429841e-06
8.845859119e-06
8.810765278e-06
8.769299554e-06
8.724008821e-06
8.678814724e-06
8.632771373e-06