/*--------------------------------*- C++ -*----------------------------------*\
| =========                 |                                                 |
| \\      /  F ield         | OpenFOAM: The Open Source CFD Toolbox           |
|  \\    /   O peration     | Version:  v2006                                 |
|   \\  /    A nd           | Website:  www.openfoam.com                      |
|    \\/     M anipulation  |                                                 |
\*---------------------------------------------------------------------------*/
FoamFile
{
    version     2.0;
    format      ascii;
    class       volScalarField;
    location    "0.075";
    object      HCO;
}
// * * * * * * * * * * * * * * * * * * * * * * * * * * * * * * * * * * * * * //

dimensions      [0 0 0 0 0 0 0];


internalField   nonuniform List<scalar> 
72000
(
2.049588949e-11
2.055653649e-11
2.066820685e-11
2.074074033e-11
2.075960288e-11
2.06995087e-11
2.078483167e-11
2.148663122e-11
2.098650299e-11
2.005381748e-11
1.977679787e-11
1.982795474e-11
1.98705266e-11
1.990745467e-11
1.992702732e-11
1.996027183e-11
1.998446093e-11
1.999118724e-11
2.001610423e-11
2.002393925e-11
2.004501571e-11
2.005004173e-11
2.006248305e-11
2.005776423e-11
2.006412917e-11
2.006231362e-11
2.005519727e-11
2.004551419e-11
1.990777022e-11
1.947898442e-11
1.858934875e-11
1.848068457e-11
1.838101215e-11
1.827396675e-11
1.807281074e-11
1.764806772e-11
1.699125317e-11
1.604456738e-11
1.468218941e-11
1.423484803e-11
1.399135104e-11
1.380644472e-11
1.36592517e-11
1.353402447e-11
1.343870227e-11
1.335660117e-11
1.328574286e-11
1.323495588e-11
1.318454723e-11
1.315347135e-11
1.311562765e-11
1.309726288e-11
1.306826842e-11
1.305775935e-11
1.304184974e-11
1.302890312e-11
1.302156728e-11
1.300828943e-11
1.300853369e-11
1.300460576e-11
1.299498521e-11
1.299675425e-11
1.299113509e-11
1.299891412e-11
1.299276077e-11
1.29989585e-11
1.299815374e-11
1.299532558e-11
1.30007439e-11
1.299608586e-11
1.300443576e-11
1.300486163e-11
1.301078842e-11
1.301144289e-11
1.301214055e-11
1.301829027e-11
1.301509168e-11
1.302612028e-11
1.302749154e-11
1.302771356e-11
1.303258303e-11
1.303683314e-11
1.303239622e-11
1.304223002e-11
1.30421992e-11
1.305006215e-11
1.305425952e-11
1.305390437e-11
1.306324875e-11
1.306002447e-11
1.306987689e-11
1.307242536e-11
1.308660665e-11
1.308718379e-11
1.310067086e-11
1.310234129e-11
1.311854796e-11
1.312368981e-11
1.313523892e-11
1.31434796e-11
1.315837999e-11
1.316646136e-11
1.318235233e-11
1.318865542e-11
1.320895434e-11
1.322052614e-11
1.322857127e-11
1.324973627e-11
1.326461408e-11
1.327540052e-11
1.329836286e-11
1.331449761e-11
1.333205596e-11
1.335784646e-11
1.337517112e-11
1.340352495e-11
1.342856169e-11
1.345871566e-11
1.348693892e-11
1.352540722e-11
1.355499192e-11
1.359609488e-11
1.363127037e-11
1.366516832e-11
1.370930654e-11
1.374821225e-11
1.379959506e-11
1.384055514e-11
1.388616328e-11
1.393834613e-11
1.399164686e-11
1.404077359e-11
1.409665287e-11
1.414102719e-11
1.418779208e-11
1.417748242e-11
1.411847283e-11
1.40174707e-11
1.387107992e-11
1.366469321e-11
1.336662677e-11
1.291088686e-11
1.216327773e-11
1.214073751e-11
1.219114382e-11
1.228708787e-11
1.241177839e-11
1.256526148e-11
1.267719753e-11
1.275253003e-11
1.275562753e-11
1.259446254e-11
1.283715828e-11
1.309188649e-11
1.323852525e-11
1.323546211e-11
1.344291415e-11
1.36567019e-11
1.388626245e-11
1.411905254e-11
1.436169911e-11
1.460929531e-11
1.486555714e-11
1.513568154e-11
1.558594932e-11
1.625255619e-11
1.67633078e-11
1.724878029e-11
1.774774453e-11
1.825950884e-11
1.878488414e-11
1.932286076e-11
1.986780789e-11
2.04029144e-11
2.088560241e-11
2.133387175e-11
2.182874781e-11
2.252742451e-11
2.381156804e-11
2.572186837e-11
2.726866776e-11
2.857683266e-11
3.037930064e-11
3.187294139e-11
3.3713024e-11
3.582546968e-11
3.788178689e-11
4.003692498e-11
4.236589572e-11
4.527168719e-11
4.845422235e-11
5.196950432e-11
5.55417388e-11
6.096014255e-11
6.739308994e-11
7.438225127e-11
8.216530224e-11
9.035435326e-11
9.91639022e-11
1.08608661e-10
1.208840051e-10
1.387888264e-10
1.586597522e-10
1.80301385e-10
2.045906174e-10
2.413049862e-10
2.889944784e-10
3.457854125e-10
4.222555568e-10
5.354216676e-10
6.853107928e-10
9.087632655e-10
1.237156639e-09
1.741051011e-09
2.553973173e-09
3.981563089e-09
6.612707149e-09
1.234317694e-08
2.872455668e-08
1.132372324e-07
1.220135684e-06
3.41695243e-07
6.986821401e-08
2.583619347e-08
1.053056051e-08
6.311791719e-09
3.87740193e-09
2.345357779e-09
1.50985713e-09
1.039328001e-09
7.187650904e-10
5.107760383e-10
3.852791286e-10
2.942539178e-10
2.221354636e-10
1.726052476e-10
1.362630573e-10
1.088450493e-10
8.776638312e-11
7.139084119e-11
5.908947772e-11
4.929835521e-11
4.108393324e-11
3.441391508e-11
2.903778152e-11
2.467567671e-11
2.110210227e-11
1.814588365e-11
1.567853786e-11
1.360243545e-11
1.184288492e-11
1.034209946e-11
9.054907215e-12
7.945401221e-12
6.984805103e-12
6.149985435e-12
5.422003097e-12
4.785264823e-12
4.226834383e-12
3.735905856e-12
3.303400136e-12
2.921638509e-12
2.584088275e-12
2.285166501e-12
2.020077762e-12
1.784683326e-12
1.575385031e-12
1.388746271e-12
1.221903687e-12
1.074177238e-12
9.448376888e-13
8.282439166e-13
7.234968005e-13
6.295253052e-13
5.452983637e-13
4.697783448e-13
4.020314207e-13
3.420096606e-13
2.901615886e-13
2.454183645e-13
2.061412878e-13
1.713795979e-13
1.404787039e-13
1.129714872e-13
8.847107544e-14
6.665727128e-14
4.723737093e-14
2.995341507e-14
1.455487957e-14
7.969612988e-16
3.470517913e-16
3.398093904e-16
3.333285421e-16
3.275136904e-16
3.22287402e-16
3.175860767e-16
3.133541582e-16
3.095431029e-16
3.06110811e-16
3.030193192e-16
3.002344945e-16
2.977256606e-16
2.954652494e-16
2.934284923e-16
2.915931066e-16
2.89938988e-16
2.884480237e-16
2.87103932e-16
2.858921074e-16
2.847994581e-16
2.838142455e-16
2.829258412e-16
2.821245281e-16
2.814016245e-16
2.807493663e-16
2.801607853e-16
2.796296104e-16
2.791501921e-16
2.787174407e-16
2.783267764e-16
2.779740821e-16
2.776556569e-16
2.773681712e-16
2.771086258e-16
2.768743175e-16
2.766628082e-16
2.764718988e-16
2.762996077e-16
2.761441511e-16
2.760039251e-16
2.758774872e-16
2.757635403e-16
2.756609171e-16
2.755685666e-16
2.754855405e-16
2.75410983e-16
2.753441213e-16
2.752842574e-16
2.752307604e-16
2.751830598e-16
2.751406395e-16
2.751030338e-16
2.750698215e-16
2.750406225e-16
2.750150936e-16
2.749929241e-16
2.749738346e-16
2.749575725e-16
2.749439091e-16
2.749326386e-16
2.749235739e-16
2.749165459e-16
2.749113993e-16
2.749079873e-16
2.749061621e-16
2.749057776e-16
2.74906756e-16
2.749090139e-16
2.749124719e-16
2.749170436e-16
2.749226591e-16
2.749292496e-16
2.749367522e-16
2.749451101e-16
2.749542723e-16
2.749641951e-16
2.749748421e-16
2.749861816e-16
2.749981727e-16
2.750107641e-16
2.750239123e-16
2.750375794e-16
2.750517312e-16
2.75066336e-16
2.750813641e-16
2.750967867e-16
2.751125766e-16
2.751287065e-16
2.751451505e-16
2.751618832e-16
2.751788796e-16
2.751961148e-16
2.75213565e-16
2.752312054e-16
2.752490125e-16
2.752669628e-16
2.752850323e-16
2.753031968e-16
2.753214329e-16
2.753397164e-16
2.753580235e-16
2.753763304e-16
2.753946122e-16
2.754128442e-16
2.754310017e-16
2.754490599e-16
2.754669924e-16
2.754847732e-16
2.75502375e-16
2.755197705e-16
2.755369314e-16
2.755538284e-16
2.755704315e-16
2.755867106e-16
2.756026353e-16
2.75618175e-16
2.756332995e-16
2.756479793e-16
2.756621846e-16
2.756758873e-16
2.756890597e-16
2.757016748e-16
2.75713705e-16
2.757251237e-16
2.757359025e-16
2.757460139e-16
2.75755429e-16
2.757641179e-16
2.757720508e-16
2.757791979e-16
2.757855274e-16
2.757910099e-16
2.757956016e-16
2.757992939e-16
2.758020364e-16
2.758038019e-16
2.758045576e-16
2.75804271e-16
2.758029103e-16
2.758004438e-16
2.757968398e-16
2.757920686e-16
2.757861008e-16
2.757789083e-16
2.757704635e-16
2.757607387e-16
2.757497071e-16
2.757373417e-16
2.757236152e-16
2.757085e-16
2.756919673e-16
2.756739871e-16
2.756545276e-16
2.756335577e-16
2.756110453e-16
2.755869266e-16
2.755612241e-16
2.755338533e-16
2.755047874e-16
2.754739832e-16
2.754414001e-16
2.754070089e-16
2.75370766e-16
2.753327103e-16
2.752927491e-16
2.752508628e-16
2.752070179e-16
2.751611793e-16
2.751133131e-16
2.75063394e-16
2.750113753e-16
2.749572224e-16
2.749008995e-16
2.748423716e-16
2.74781603e-16
2.747185554e-16
2.746531915e-16
2.745854699e-16
2.745153453e-16
2.744427816e-16
2.743677391e-16
2.742901782e-16
2.742100573e-16
2.741273348e-16
2.74041968e-16
2.739539134e-16
2.73863127e-16
2.737695637e-16
2.73673178e-16
2.735739231e-16
2.734717517e-16
2.733666147e-16
2.732584622e-16
2.731472435e-16
2.730329058e-16
2.729153958e-16
2.727946584e-16
2.726706369e-16
2.725432729e-16
2.724125064e-16
2.722782749e-16
2.721405149e-16
2.719991594e-16
2.7185414e-16
2.717053845e-16
2.715528188e-16
2.713963658e-16
2.712359442e-16
2.710714711e-16
2.709028594e-16
2.707300185e-16
2.705528544e-16
2.703712695e-16
2.701851624e-16
2.699944273e-16
2.697989545e-16
2.695986296e-16
2.693933339e-16
2.691829444e-16
2.689673339e-16
2.687463709e-16
2.685199195e-16
2.682878402e-16
2.6804999e-16
2.678062214e-16
2.67556383e-16
2.673003167e-16
2.67037858e-16
2.667688337e-16
2.6649306e-16
2.662103419e-16
2.659204725e-16
2.65623233e-16
2.653183924e-16
2.650057062e-16
2.646849104e-16
2.643557159e-16
2.640178511e-16
2.63670996e-16
2.633148122e-16
2.629489342e-16
2.625729477e-16
2.621864362e-16
2.617889361e-16
2.613799456e-16
2.609589313e-16
2.605253473e-16
2.600785151e-16
2.596178329e-16
2.591426189e-16
2.586521522e-16
2.581456728e-16
2.576223795e-16
2.570814233e-16
2.565219037e-16
2.559428614e-16
2.553433173e-16
2.547221173e-16
2.540781362e-16
2.534101133e-16
2.527167314e-16
2.519968214e-16
2.512486385e-16
2.504704716e-16
2.496605493e-16
2.488169504e-16
2.47937569e-16
2.47020085e-16
2.460619419e-16
2.450603333e-16
2.44012193e-16
2.429141939e-16
2.417627436e-16
2.405539772e-16
2.392836939e-16
2.379469461e-16
2.365394374e-16
2.350563551e-16
2.334920563e-16
2.318401982e-16
2.300938721e-16
2.282454207e-16
2.262863455e-16
2.242072482e-16
2.219977568e-16
2.196464906e-16
2.171413378e-16
2.144689582e-16
2.116146296e-16
2.085620379e-16
2.052930804e-16
2.017877159e-16
1.980238286e-16
1.939773763e-16
1.896225713e-16
1.849318931e-16
1.798764887e-16
1.744272994e-16
1.685571513e-16
1.622443281e-16
1.554760447e-16
1.482636566e-16
1.40654309e-16
1.327680646e-16
1.248442465e-16
1.173482034e-16
1.109910902e-16
1.065946685e-16
8.898293124e-14
2.473503961e-13
2.843526712e-11
2.848018159e-11
2.855466712e-11
2.861873841e-11
2.865201251e-11
2.865333947e-11
2.869156586e-11
2.87724332e-11
2.858156782e-11
2.815767573e-11
2.789617012e-11
2.781520248e-11
2.779115152e-11
2.778949804e-11
2.779678153e-11
2.780643969e-11
2.781686379e-11
2.782630209e-11
2.783251291e-11
2.783564863e-11
2.783405907e-11
2.78275073e-11
2.781390082e-11
2.779155965e-11
2.775716999e-11
2.770512611e-11
2.762393629e-11
2.748912845e-11
2.723712151e-11
2.680538554e-11
2.622693265e-11
2.589349455e-11
2.562032324e-11
2.53245096e-11
2.492176337e-11
2.433212899e-11
2.352550299e-11
2.249921911e-11
2.134967245e-11
2.061717927e-11
2.013049103e-11
1.977145817e-11
1.949238494e-11
1.926961815e-11
1.908793364e-11
1.894028573e-11
1.882001121e-11
1.872067029e-11
1.863998061e-11
1.857378439e-11
1.852077706e-11
1.847795341e-11
1.844425706e-11
1.841755053e-11
1.839764416e-11
1.838407634e-11
1.837335804e-11
1.836706764e-11
1.836386586e-11
1.836436534e-11
1.836793779e-11
1.83727437e-11
1.838027678e-11
1.838883562e-11
1.839946262e-11
1.841069296e-11
1.842343331e-11
1.843768086e-11
1.845235285e-11
1.846815408e-11
1.848433015e-11
1.850180721e-11
1.851912135e-11
1.853743133e-11
1.85569473e-11
1.857600871e-11
1.859611035e-11
1.86160854e-11
1.863715191e-11
1.865910273e-11
1.868058276e-11
1.870320531e-11
1.872682464e-11
1.875031372e-11
1.877510279e-11
1.880004177e-11
1.882640492e-11
1.885447898e-11
1.888392741e-11
1.891531853e-11
1.8947584e-11
1.898240368e-11
1.901842059e-11
1.905679954e-11
1.909661562e-11
1.913889367e-11
1.918272294e-11
1.922901616e-11
1.927674106e-11
1.932735613e-11
1.937951038e-11
1.944438692e-11
1.952507803e-11
1.960970509e-11
1.96955704e-11
1.978576603e-11
1.988018551e-11
1.997579374e-11
2.007564517e-11
2.017989612e-11
2.028586492e-11
2.039635538e-11
2.051219217e-11
2.063041359e-11
2.075402378e-11
2.088091187e-11
2.101397538e-11
2.115059522e-11
2.129450199e-11
2.144239517e-11
2.159683116e-11
2.175539477e-11
2.192099059e-11
2.209398661e-11
2.22710835e-11
2.245491701e-11
2.264357175e-11
2.283913414e-11
2.303817683e-11
2.323977204e-11
2.344238628e-11
2.364318652e-11
2.383814027e-11
2.401837207e-11
2.41694866e-11
2.425852247e-11
2.427596035e-11
2.422020889e-11
2.408478779e-11
2.385104638e-11
2.349065112e-11
2.298276501e-11
2.239406849e-11
2.232396129e-11
2.247752104e-11
2.275557796e-11
2.311377416e-11
2.350804607e-11
2.386346767e-11
2.416493627e-11
2.439752121e-11
2.45941107e-11
2.510672595e-11
2.575836176e-11
2.634573811e-11
2.690124813e-11
2.764433016e-11
2.845192915e-11
2.930909461e-11
3.02106057e-11
3.116143694e-11
3.216862979e-11
3.324428627e-11
3.44355807e-11
3.589536583e-11
3.763133849e-11
3.931415459e-11
4.09971722e-11
4.272201105e-11
4.450427927e-11
4.634965698e-11
4.825736472e-11
5.021819776e-11
5.221001796e-11
5.436167583e-11
5.670553686e-11
5.924856625e-11
6.218055163e-11
6.553277924e-11
6.931231639e-11
7.308358913e-11
7.700658316e-11
8.445830629e-11
9.20817106e-11
1.006653976e-10
1.102280917e-10
1.207606721e-10
1.324695936e-10
1.450194186e-10
1.591744007e-10
1.749466429e-10
1.924882429e-10
2.112190621e-10
2.31376857e-10
2.644600511e-10
3.048872506e-10
3.506263096e-10
4.013526632e-10
4.588272513e-10
5.253162612e-10
6.302285963e-10
7.59919741e-10
9.11079777e-10
1.094646561e-09
1.385362669e-09
1.784218095e-09
2.349174253e-09
3.148331802e-09
4.362442981e-09
6.112090128e-09
8.864324174e-09
1.323893091e-08
2.034471351e-08
3.331371105e-08
5.828813742e-08
1.17110001e-07
3.037864884e-07
1.048191809e-06
3.776836859e-06
7.284796495e-06
4.027720436e-06
6.195039111e-07
1.429677315e-07
6.825846388e-08
3.18507213e-08
1.758903004e-08
6.95234773e-09
4.010440439e-09
3.02780915e-09
2.252491294e-09
1.697965532e-09
1.287994146e-09
9.584395761e-10
7.142278859e-10
5.389246077e-10
4.134691905e-10
3.27040428e-10
2.646109496e-10
2.165446969e-10
1.79033252e-10
1.492707285e-10
1.255058386e-10
1.063143752e-10
9.067327078e-11
7.779769751e-11
6.709754427e-11
5.812570453e-11
5.054404762e-11
4.409330526e-11
3.857202007e-11
3.382166643e-11
2.971599996e-11
2.615346825e-11
2.305145284e-11
2.034194173e-11
1.796863643e-11
1.58846768e-11
1.405066706e-11
1.243351994e-11
1.100508109e-11
9.741319086e-12
8.621661016e-12
7.628388798e-12
6.746204257e-12
5.961845088e-12
5.263783904e-12
4.642026313e-12
4.087837782e-12
3.594537748e-12
3.156718066e-12
2.767039549e-12
2.416202884e-12
2.101323255e-12
1.818954208e-12
1.566111494e-12
1.340001391e-12
1.138867786e-12
9.616053982e-13
8.07124013e-13
6.721352587e-13
5.530302242e-13
4.473443456e-13
3.532853559e-13
2.69486036e-13
1.94818609e-13
1.283161811e-13
6.912834305e-14
1.646251645e-14
9.133310194e-16
8.859501884e-16
8.614231913e-16
8.394670958e-16
8.197596881e-16
8.020426153e-16
7.860961168e-16
7.717354143e-16
7.587937324e-16
7.471241636e-16
7.366008124e-16
7.271085057e-16
7.185437681e-16
7.108136155e-16
7.038344943e-16
6.975313736e-16
6.918367987e-16
6.866898286e-16
6.820355453e-16
6.778245873e-16
6.740126995e-16
6.705602185e-16
6.674316751e-16
6.645949465e-16
6.620203957e-16
6.596817537e-16
6.575555337e-16
6.556206475e-16
6.538581099e-16
6.522508087e-16
6.507833246e-16
6.494417858e-16
6.482137257e-16
6.470879448e-16
6.460543702e-16
6.451039322e-16
6.442284561e-16
6.434205723e-16
6.426736348e-16
6.419816603e-16
6.413392643e-16
6.407416116e-16
6.401843577e-16
6.396636024e-16
6.391758398e-16
6.387179159e-16
6.382869906e-16
6.378805032e-16
6.374961474e-16
6.371318412e-16
6.367857071e-16
6.364560502e-16
6.361413425e-16
6.35840204e-16
6.355513931e-16
6.352737912e-16
6.350063906e-16
6.34748284e-16
6.344986563e-16
6.34256773e-16
6.340219746e-16
6.337936675e-16
6.335713166e-16
6.333544403e-16
6.331426031e-16
6.329353995e-16
6.327324155e-16
6.325331761e-16
6.323375407e-16
6.321452813e-16
6.319561685e-16
6.317699869e-16
6.315865421e-16
6.31405656e-16
6.312271678e-16
6.310509331e-16
6.30876825e-16
6.307047378e-16
6.305345915e-16
6.30366331e-16
6.301998651e-16
6.300350534e-16
6.298717921e-16
6.29709998e-16
6.295495987e-16
6.293905283e-16
6.292327254e-16
6.290761328e-16
6.289206957e-16
6.287663622e-16
6.286130837e-16
6.284608112e-16
6.283094987e-16
6.281591011e-16
6.280095748e-16
6.278608765e-16
6.277129628e-16
6.275657928e-16
6.274193246e-16
6.272735155e-16
6.271283252e-16
6.269837116e-16
6.268396332e-16
6.266960488e-16
6.265529155e-16
6.2641019e-16
6.262678306e-16
6.26125792e-16
6.259840294e-16
6.258424954e-16
6.257011402e-16
6.255599138e-16
6.254187621e-16
6.252776303e-16
6.251364594e-16
6.249951897e-16
6.24853761e-16
6.247121115e-16
6.245701808e-16
6.244279093e-16
6.242852375e-16
6.241421099e-16
6.23998471e-16
6.238542673e-16
6.237094449e-16
6.235639482e-16
6.234177204e-16
6.23270702e-16
6.231228307e-16
6.229740405e-16
6.228242645e-16
6.226734321e-16
6.225214709e-16
6.22368306e-16
6.222138606e-16
6.22058061e-16
6.219008248e-16
6.217420708e-16
6.215817157e-16
6.214196767e-16
6.212558705e-16
6.210902145e-16
6.209226268e-16
6.20753027e-16
6.205813369e-16
6.204074813e-16
6.202313842e-16
6.200529712e-16
6.198721671e-16
6.19688896e-16
6.195030799e-16
6.19314639e-16
6.191234884e-16
6.189295388e-16
6.187326943e-16
6.185328541e-16
6.183299122e-16
6.181237554e-16
6.179142811e-16
6.177013605e-16
6.174848664e-16
6.172646522e-16
6.170405771e-16
6.168125737e-16
6.165803749e-16
6.163443101e-16
6.161038861e-16
6.158590998e-16
6.156098184e-16
6.153559097e-16
6.150972389e-16
6.14833732e-16
6.1456519e-16
6.142914872e-16
6.140124817e-16
6.137280329e-16
6.134379986e-16
6.131422184e-16
6.128405482e-16
6.125328141e-16
6.122188204e-16
6.118984237e-16
6.115714472e-16
6.112377174e-16
6.108970532e-16
6.105492679e-16
6.101941701e-16
6.098315637e-16
6.094612464e-16
6.09083011e-16
6.086966453e-16
6.083019294e-16
6.078986386e-16
6.074865398e-16
6.070653941e-16
6.06634955e-16
6.061949672e-16
6.057451693e-16
6.052852894e-16
6.048150472e-16
6.043341531e-16
6.038423076e-16
6.033392003e-16
6.028245088e-16
6.022978993e-16
6.017590247e-16
6.012075239e-16
6.006430216e-16
6.000651277e-16
5.994734342e-16
5.988675194e-16
5.982469427e-16
5.976112461e-16
5.969599531e-16
5.962925684e-16
5.956085754e-16
5.949074372e-16
5.941885945e-16
5.93451464e-16
5.926954399e-16
5.919198915e-16
5.91124164e-16
5.903075781e-16
5.894694294e-16
5.886089898e-16
5.877255056e-16
5.868181983e-16
5.858862602e-16
5.849288518e-16
5.839450965e-16
5.829340727e-16
5.81894811e-16
5.808262882e-16
5.79727425e-16
5.785970859e-16
5.774340773e-16
5.762371486e-16
5.750049645e-16
5.737360416e-16
5.724290309e-16
5.710823175e-16
5.696942384e-16
5.682630381e-16
5.667867057e-16
5.652632856e-16
5.636905937e-16
5.62066296e-16
5.603879084e-16
5.586530254e-16
5.568584449e-16
5.550015323e-16
5.530791679e-16
5.510881046e-16
5.490249312e-16
5.46886056e-16
5.446676919e-16
5.423658385e-16
5.399762654e-16
5.374944946e-16
5.349157505e-16
5.322349642e-16
5.294466928e-16
5.265450368e-16
5.235234261e-16
5.203756773e-16
5.170950377e-16
5.136741491e-16
5.101050466e-16
5.063790783e-16
5.024868194e-16
4.984179955e-16
4.941614282e-16
4.897050035e-16
4.85035657e-16
4.801393677e-16
4.750011643e-16
4.69605209e-16
4.639351616e-16
4.57972204e-16
4.516973068e-16
4.450889218e-16
4.381231601e-16
4.307744988e-16
4.23014833e-16
4.148132435e-16
4.061358768e-16
3.969456934e-16
3.872021308e-16
3.768630285e-16
3.658821565e-16
3.542092519e-16
3.417894939e-16
3.285631303e-16
3.14465445e-16
2.994266186e-16
2.833731955e-16
2.662299808e-16
2.47921177e-16
2.283736876e-16
2.075238774e-16
1.853287052e-16
1.61783541e-16
1.369468734e-16
1.109880052e-16
8.426975953e-17
5.747593721e-17
3.177341485e-17
9.31223038e-18
2.135816262e-19
2.199400174e-19
2.279587847e-19
1.119612968e-17
4.367652849e-11
4.372090801e-11
4.379214122e-11
4.386082453e-11
4.390516239e-11
4.391983188e-11
4.392393582e-11
4.388757114e-11
4.36873632e-11
4.333400035e-11
4.304150784e-11
4.287252585e-11
4.277986819e-11
4.272912597e-11
4.270133324e-11
4.268437985e-11
4.267183834e-11
4.2659128e-11
4.264203571e-11
4.261814105e-11
4.258419154e-11
4.253752072e-11
4.247382277e-11
4.238796347e-11
4.22717945e-11
4.211323373e-11
4.189238191e-11
4.157782611e-11
4.112512327e-11
4.051351548e-11
3.980858942e-11
3.919557542e-11
3.861123837e-11
3.797406336e-11
3.719958565e-11
3.621998169e-11
3.50177853e-11
3.363818808e-11
3.223618158e-11
3.11136725e-11
3.025414369e-11
2.958493647e-11
2.905278699e-11
2.862350744e-11
2.827567577e-11
2.799144012e-11
2.775835785e-11
2.75667289e-11
2.741003997e-11
2.72822121e-11
2.71792282e-11
2.709678202e-11
2.703213964e-11
2.698216216e-11
2.694512835e-11
2.691920296e-11
2.69020604e-11
2.689312697e-11
2.689110769e-11
2.68956001e-11
2.690566003e-11
2.692010948e-11
2.693889649e-11
2.696108632e-11
2.698674553e-11
2.701508171e-11
2.704627635e-11
2.708007767e-11
2.711582988e-11
2.715369947e-11
2.719318023e-11
2.723450943e-11
2.727711097e-11
2.732137246e-11
2.736724125e-11
2.741414005e-11
2.746252903e-11
2.751202213e-11
2.756319947e-11
2.761592773e-11
2.766977727e-11
2.772533726e-11
2.77827304e-11
2.784149816e-11
2.790230195e-11
2.796486748e-11
2.802979092e-11
2.809726712e-11
2.818864081e-11
2.828515098e-11
2.838490451e-11
2.848929241e-11
2.85979867e-11
2.871261858e-11
2.883298204e-11
2.895908556e-11
2.909006923e-11
2.922679055e-11
2.936873562e-11
2.951703129e-11
2.96715937e-11
2.983491185e-11
3.00068385e-11
3.018651227e-11
3.037256188e-11
3.056603475e-11
3.076660684e-11
3.09731205e-11
3.118674404e-11
3.140771427e-11
3.163521038e-11
3.187057487e-11
3.211432003e-11
3.236559017e-11
3.262572479e-11
3.289460588e-11
3.317389294e-11
3.346339276e-11
3.376488111e-11
3.407752292e-11
3.440248538e-11
3.473916455e-11
3.508889046e-11
3.545158022e-11
3.582560623e-11
3.621124974e-11
3.660708808e-11
3.701262396e-11
3.742465281e-11
3.783990978e-11
3.825407022e-11
3.866059771e-11
3.904949237e-11
3.940349004e-11
3.969768359e-11
3.990568961e-11
4.001104058e-11
4.0005392e-11
3.994379169e-11
3.979787684e-11
3.952427769e-11
3.916587202e-11
3.887812232e-11
3.90048123e-11
3.945661299e-11
4.014164987e-11
4.098730342e-11
4.192410481e-11
4.287976667e-11
4.382767314e-11
4.477192261e-11
4.577937373e-11
4.703712754e-11
4.84281946e-11
4.983058731e-11
5.123175873e-11
5.276363583e-11
5.441377276e-11
5.6168743e-11
5.822590297e-11
6.068354531e-11
6.334207534e-11
6.620947544e-11
6.935853816e-11
7.289256174e-11
7.67875583e-11
8.083985339e-11
8.502810475e-11
8.937639133e-11
9.390582852e-11
9.863046078e-11
1.03557579e-10
1.086878875e-10
1.140297397e-10
1.204017398e-10
1.271420932e-10
1.344339985e-10
1.424815813e-10
1.513696217e-10
1.610850031e-10
1.714288103e-10
1.825442646e-10
1.948785557e-10
2.113861058e-10
2.378439605e-10
2.66997946e-10
2.987372963e-10
3.333513086e-10
3.713806813e-10
4.145358882e-10
4.665406967e-10
5.248072934e-10
5.896084907e-10
6.61848336e-10
7.661220808e-10
9.051546283e-10
1.065238715e-09
1.249660974e-09
1.467521485e-09
1.758101784e-09
2.168748692e-09
2.658838235e-09
3.297118775e-09
4.234159596e-09
5.43819838e-09
7.314280481e-09
9.938794412e-09
1.401288562e-08
1.995480256e-08
2.945647597e-08
4.435290736e-08
6.947915935e-08
1.137641344e-07
2.025573274e-07
4.01530944e-07
9.63330312e-07
2.800942783e-06
7.743085515e-06
1.514471578e-05
1.56234342e-05
7.088503881e-06
1.554634012e-06
5.256070564e-07
2.255446369e-07
9.399657328e-08
4.43111517e-08
2.072878895e-08
1.103324568e-08
4.557525182e-09
3.403454191e-09
2.664954164e-09
1.984432081e-09
1.452012697e-09
1.069153983e-09
8.111234845e-10
6.358767427e-10
5.071285053e-10
4.111728854e-10
3.381944237e-10
2.81543654e-10
2.367751742e-10
2.008527061e-10
1.715479358e-10
1.474305382e-10
1.273401673e-10
1.104662159e-10
9.617732612e-11
8.399793654e-11
7.355517522e-11
6.455651802e-11
5.676764757e-11
4.999977868e-11
4.409914313e-11
3.893928527e-11
3.441519564e-11
3.043925326e-11
2.693763886e-11
2.384794867e-11
2.111700971e-11
1.869955044e-11
1.655666317e-11
1.465492505e-11
1.296537239e-11
1.146291421e-11
1.012572151e-11
8.934813454e-12
7.873686109e-12
6.928080893e-12
6.085602621e-12
5.334582583e-12
4.66277361e-12
4.060208912e-12
3.520700805e-12
3.038124229e-12
2.607315238e-12
2.22368962e-12
1.883495322e-12
1.583294173e-12
1.31906743e-12
1.085715678e-12
8.786201951e-13
6.94290383e-13
5.299874609e-13
3.834860383e-13
2.528928689e-13
1.365572836e-13
3.300969302e-14
1.347855829e-15
1.296175317e-15
1.249776784e-15
1.20813316e-15
1.170726394e-15
1.137080339e-15
1.106791104e-15
1.079501e-15
1.054911533e-15
1.032737992e-15
1.012725905e-15
9.946678103e-16
9.783655015e-16
9.636424419e-16
9.503399239e-16
9.38315364e-16
9.274408281e-16
9.176016616e-16
9.086938759e-16
9.006236791e-16
8.933067358e-16
8.866675159e-16
8.806382775e-16
8.751576851e-16
8.701705006e-16
8.656277119e-16
8.614847476e-16
8.577015806e-16
8.542422718e-16
8.510744457e-16
8.481688958e-16
8.45499284e-16
8.430419083e-16
8.40775482e-16
8.386808953e-16
8.367409778e-16
8.349402726e-16
8.332648498e-16
8.317021522e-16
8.302408579e-16
8.288707692e-16
8.275827174e-16
8.263684724e-16
8.252206518e-16
8.241326357e-16
8.230984818e-16
8.221128524e-16
8.21170946e-16
8.202684426e-16
8.194014539e-16
8.185664786e-16
8.177603623e-16
8.169802614e-16
8.16223616e-16
8.154881206e-16
8.147717025e-16
8.140724979e-16
8.133888332e-16
8.12719206e-16
8.120622693e-16
8.114168145e-16
8.107817574e-16
8.101561273e-16
8.095390544e-16
8.089297596e-16
8.083275483e-16
8.077318093e-16
8.071420347e-16
8.065578427e-16
8.059785794e-16
8.054038044e-16
8.048331521e-16
8.042662927e-16
8.037029335e-16
8.031428123e-16
8.025856947e-16
8.020313713e-16
8.01479659e-16
8.009304036e-16
8.003834997e-16
7.998389447e-16
7.992966637e-16
7.987563899e-16
7.982179928e-16
7.976813807e-16
7.97146474e-16
7.966132045e-16
7.96081511e-16
7.955513377e-16
7.950226358e-16
7.9449536e-16
7.939694693e-16
7.934449265e-16
7.929216974e-16
7.923997496e-16
7.918790541e-16
7.91359583e-16
7.908413105e-16
7.903242129e-16
7.898082667e-16
7.892934494e-16
7.88779741e-16
7.88267121e-16
7.877555706e-16
7.872450711e-16
7.867356041e-16
7.862271509e-16
7.857196956e-16
7.852132184e-16
7.847077e-16
7.842031199e-16
7.836994535e-16
7.831966751e-16
7.826947547e-16
7.821936574e-16
7.816933464e-16
7.8119378e-16
7.806949149e-16
7.801967062e-16
7.796991096e-16
7.792020827e-16
7.787055835e-16
7.782095738e-16
7.777140178e-16
7.772188814e-16
7.767241304e-16
7.762297279e-16
7.757356331e-16
7.752418007e-16
7.747481792e-16
7.742547096e-16
7.737613294e-16
7.732679698e-16
7.72774558e-16
7.722810181e-16
7.717872691e-16
7.712932273e-16
7.70798802e-16
7.70303899e-16
7.698084213e-16
7.693122685e-16
7.688153399e-16
7.683175331e-16
7.678187467e-16
7.67318882e-16
7.668178421e-16
7.663155324e-16
7.658118597e-16
7.653067309e-16
7.648000514e-16
7.642917237e-16
7.637816468e-16
7.632697149e-16
7.627558146e-16
7.622398227e-16
7.617216044e-16
7.612010134e-16
7.606778906e-16
7.601520726e-16
7.596233922e-16
7.590916704e-16
7.58556716e-16
7.580182817e-16
7.574760429e-16
7.569299818e-16
7.563799482e-16
7.558258312e-16
7.552673502e-16
7.547043355e-16
7.541365776e-16
7.53563856e-16
7.529858249e-16
7.524025824e-16
7.518136043e-16
7.512187272e-16
7.506176881e-16
7.500102287e-16
7.493961202e-16
7.487750323e-16
7.481467374e-16
7.475109386e-16
7.468671878e-16
7.46215287e-16
7.455548758e-16
7.448856355e-16
7.442072183e-16
7.435192674e-16
7.428214149e-16
7.421132816e-16
7.41394476e-16
7.406645948e-16
7.399232208e-16
7.391699244e-16
7.384042602e-16
7.376257695e-16
7.368339761e-16
7.360283892e-16
7.352085013e-16
7.343737864e-16
7.335237009e-16
7.326576812e-16
7.317751438e-16
7.308754845e-16
7.299580756e-16
7.290222657e-16
7.280673792e-16
7.270927129e-16
7.260975349e-16
7.250810837e-16
7.240425667e-16
7.229811579e-16
7.218959977e-16
7.207861916e-16
7.196508076e-16
7.184888773e-16
7.172993915e-16
7.160812993e-16
7.148335055e-16
7.135548705e-16
7.122442049e-16
7.109002718e-16
7.095217819e-16
7.08107395e-16
7.066557201e-16
7.051653117e-16
7.03634673e-16
7.020622545e-16
7.004464523e-16
6.987856052e-16
6.970779863e-16
6.95321794e-16
6.935151383e-16
6.916560329e-16
6.897423855e-16
6.87771992e-16
6.857425334e-16
6.836515785e-16
6.814966068e-16
6.79275022e-16
6.769835124e-16
6.74619719e-16
6.721802353e-16
6.696617521e-16
6.670609867e-16
6.643736479e-16
6.615961364e-16
6.587241212e-16
6.557530686e-16
6.526781815e-16
6.494944098e-16
6.461963261e-16
6.427783845e-16
6.392346906e-16
6.355590595e-16
6.317450043e-16
6.277857199e-16
6.236740583e-16
6.194025009e-16
6.149631292e-16
6.103475957e-16
6.055470889e-16
6.005522938e-16
5.9535331e-16
5.899395703e-16
5.842998283e-16
5.784224297e-16
5.722950907e-16
5.659047599e-16
5.592374857e-16
5.522782422e-16
5.450107775e-16
5.374174965e-16
5.294793828e-16
5.211759768e-16
5.124853928e-16
5.033843346e-16
4.93848113e-16
4.838506854e-16
4.733646075e-16
4.623604155e-16
4.508062856e-16
4.386702102e-16
4.259187469e-16
4.125149968e-16
3.984182946e-16
3.835846485e-16
3.679671274e-16
3.515163236e-16
3.341809749e-16
3.159063154e-16
2.96637224e-16
2.763178256e-16
2.548912779e-16
2.323006335e-16
2.08491683e-16
1.834138193e-16
1.570277249e-16
1.293152029e-16
1.002851414e-16
6.998709874e-17
3.853440792e-17
6.137826665e-18
2.013195852e-19
2.034718841e-19
2.058678555e-19
2.0855366e-19
2.115870941e-19
2.150399099e-19
2.189985493e-19
2.235579926e-19
2.287964859e-19
2.346943568e-19
2.40913642e-19
6.181641951e-11
6.186114712e-11
6.193208841e-11
6.200536611e-11
6.205942289e-11
6.208157695e-11
6.206593794e-11
6.198175634e-11
6.177979319e-11
6.147398041e-11
6.118000502e-11
6.095977523e-11
6.080760961e-11
6.070346127e-11
6.06293724e-11
6.05712317e-11
6.051895302e-11
6.046469843e-11
6.040174441e-11
6.032440914e-11
6.022696788e-11
6.010346907e-11
5.994634267e-11
5.974601302e-11
5.948940648e-11
5.915878795e-11
5.872996197e-11
5.817271356e-11
5.746091922e-11
5.659643252e-11
5.563647626e-11
5.467112667e-11
5.367774672e-11
5.259312932e-11