/*--------------------------------*- C++ -*----------------------------------*\
| =========                 |                                                 |
| \\      /  F ield         | OpenFOAM: The Open Source CFD Toolbox           |
|  \\    /   O peration     | Version:  v2006                                 |
|   \\  /    A nd           | Website:  www.openfoam.com                      |
|    \\/     M anipulation  |                                                 |
\*---------------------------------------------------------------------------*/
FoamFile
{
    version     2.0;
    format      ascii;
    class       volScalarField;
    location    "0.075";
    object      HO2;
}
// * * * * * * * * * * * * * * * * * * * * * * * * * * * * * * * * * * * * * //

dimensions      [0 0 0 0 0 0 0];


internalField   nonuniform List<scalar> 
72000
(
1.947159254e-05
1.950884547e-05
1.957800318e-05
1.962897403e-05
1.965438537e-05
1.963970697e-05
1.971328471e-05
1.994882591e-05
1.977971305e-05
1.935973766e-05
1.92078482e-05
1.924743324e-05
1.92802009e-05
1.930827998e-05
1.932501109e-05
1.934904152e-05
1.936682321e-05
1.937351114e-05
1.939039377e-05
1.939657922e-05
1.941012046e-05
1.941359349e-05
1.942099812e-05
1.941761832e-05
1.942018927e-05
1.941711845e-05
1.940998566e-05
1.940002743e-05
1.931270825e-05
1.905118003e-05
1.85129646e-05
1.843989783e-05
1.837298234e-05
1.830179563e-05
1.817388038e-05
1.791108543e-05
1.750727226e-05
1.692650489e-05
1.608780772e-05
1.580727408e-05
1.565294546e-05
1.553550844e-05
1.544191889e-05
1.536232924e-05
1.530180622e-05
1.524958101e-05
1.520435724e-05
1.517182503e-05
1.51395336e-05
1.511936727e-05
1.50949846e-05
1.508276578e-05
1.506394684e-05
1.505667031e-05
1.504595712e-05
1.503693571e-05
1.503154872e-05
1.502242112e-05
1.502175931e-05
1.501839921e-05
1.501141076e-05
1.501156902e-05
1.500708385e-05
1.501093979e-05
1.500614793e-05
1.500906993e-05
1.50075515e-05
1.500464819e-05
1.500694144e-05
1.500295196e-05
1.500704155e-05
1.500616106e-05
1.50087948e-05
1.500805302e-05
1.500718444e-05
1.500979988e-05
1.500660086e-05
1.501222616e-05
1.501181733e-05
1.501056595e-05
1.501232444e-05
1.501355987e-05
1.500936436e-05
1.5013998e-05
1.501251315e-05
1.501597006e-05
1.501704121e-05
1.501518733e-05
1.501935475e-05
1.501576119e-05
1.502019994e-05
1.502005693e-05
1.502705381e-05
1.502565417e-05
1.503216e-05
1.503135521e-05
1.50394234e-05
1.504064285e-05
1.504582139e-05
1.504883085e-05
1.505594893e-05
1.50587945e-05
1.506645159e-05
1.506818429e-05
1.507844916e-05
1.508329802e-05
1.508586907e-05
1.509646081e-05
1.51031241e-05
1.510718007e-05
1.511867369e-05
1.512591601e-05
1.513382868e-05
1.514677808e-05
1.515450625e-05
1.516889603e-05
1.518111791e-05
1.519645685e-05
1.521044913e-05
1.523059228e-05
1.524526088e-05
1.526683752e-05
1.528466763e-05
1.530150635e-05
1.532446254e-05
1.534408866e-05
1.537108317e-05
1.53916262e-05
1.541488336e-05
1.54419791e-05
1.546966401e-05
1.549481269e-05
1.552381814e-05
1.554597947e-05
1.556942513e-05
1.555942729e-05
1.552097915e-05
1.545808866e-05
1.536887476e-05
1.524494094e-05
1.506793e-05
1.479922539e-05
1.435876944e-05
1.434326468e-05
1.436949757e-05
1.442197988e-05
1.449070888e-05
1.457592356e-05
1.463628889e-05
1.467508588e-05
1.46708631e-05
1.455434359e-05
1.468615932e-05
1.482423536e-05
1.489466103e-05
1.486985807e-05
1.496423795e-05
1.506000622e-05
1.516413899e-05
1.526809546e-05
1.537667839e-05
1.548610333e-05
1.559931401e-05
1.571858678e-05
1.595212237e-05
1.632384398e-05
1.658826568e-05
1.682917289e-05
1.707164242e-05
1.731702343e-05
1.756630721e-05
1.781909031e-05
1.807219665e-05
1.83159439e-05
1.852562823e-05
1.871269146e-05
1.892448405e-05
1.925148745e-05
1.9643502e-05
2.013116938e-05
2.049126946e-05
2.07664459e-05
2.11954428e-05
2.151799675e-05
2.194884171e-05
2.245927149e-05
2.293613579e-05
2.342775592e-05
2.392164183e-05
2.454034553e-05
2.522329769e-05
2.598240083e-05
2.672511927e-05
2.747034329e-05
2.823514141e-05
2.909390713e-05
3.00633436e-05
3.10712993e-05
3.216760121e-05
3.334810366e-05
3.461881668e-05
3.597423263e-05
3.743916437e-05
3.903618285e-05
4.081310288e-05
4.285778276e-05
4.520618776e-05
4.787020015e-05
5.091818937e-05
5.43350969e-05
5.834730915e-05
6.305039595e-05
6.866327378e-05
7.543009093e-05
8.367605562e-05
9.383721855e-05
0.0001065727673
0.0001226904838
0.0001437355499
0.0001730401871
0.0002481257278
0.0003499459119
0.0002160902085
0.0001572799789
0.0001225865582
9.560273951e-05
7.37901716e-05
5.614625619e-05
4.248820196e-05
3.122005288e-05
2.248885162e-05
1.661541568e-05
1.28908797e-05
1.024520096e-05
8.353496085e-06
6.985726643e-06
5.904776596e-06
5.019770995e-06
4.279838602e-06
3.653344676e-06
3.140983119e-06
2.708088881e-06
2.326904819e-06
2.000389011e-06
1.724325663e-06
1.49126717e-06
1.293986725e-06
1.126262873e-06
9.8299995e-07
8.600513227e-07
7.540653323e-07
6.62325381e-07
5.826227988e-07
5.13138993e-07
4.523743964e-07
3.990953265e-07
3.522689578e-07
3.110262936e-07
2.746301695e-07
2.424546855e-07
2.139662416e-07
1.887069999e-07
1.662823045e-07
1.463504174e-07
1.286134079e-07
1.128083535e-07
9.869507007e-08
8.602816418e-08
7.48470317e-08
6.514961609e-08
5.662874251e-08
4.893104101e-08
4.20232444e-08
3.586038039e-08
3.041516035e-08
2.569114833e-08
2.178955335e-08
1.909229304e-08
1.744530115e-08
1.618152375e-08
1.511456707e-08
1.418185537e-08
1.335550188e-08
1.262050994e-08
1.196542185e-08
1.138157946e-08
1.08612193e-08
1.039752627e-08
9.983961797e-09
9.614204539e-09
9.55697477e-09
9.515248165e-09
9.478047824e-09
9.444798031e-09
9.415038032e-09
9.388391129e-09
9.364528901e-09
9.343164652e-09
9.324049771e-09
9.306960019e-09
9.29169376e-09
9.278069741e-09
9.265925043e-09
9.255113264e-09
9.245502672e-09
9.236974396e-09
9.229421323e-09
9.222747152e-09
9.216865478e-09
9.211698839e-09
9.207177761e-09
9.203239314e-09
9.199825947e-09
9.196886234e-09
9.194374167e-09
9.192248436e-09
9.190471846e-09
9.189010866e-09
9.18783527e-09
9.186917833e-09
9.186234059e-09
9.185761902e-09
9.185481502e-09
9.185374942e-09
9.185426046e-09
9.185620196e-09
9.185944182e-09
9.186386067e-09
9.186935081e-09
9.187581507e-09
9.188316581e-09
9.18913239e-09
9.190021787e-09
9.190978311e-09
9.191996101e-09
9.193069849e-09
9.194194733e-09
9.195366373e-09
9.196580788e-09
9.197834354e-09
9.199123773e-09
9.200446042e-09
9.201798426e-09
9.203178435e-09
9.204583795e-09
9.20601243e-09
9.207462449e-09
9.208932119e-09
9.210419853e-09
9.211924198e-09
9.213443815e-09
9.214977469e-09
9.216524011e-09
9.21808234e-09
9.219651352e-09
9.221229954e-09
9.222817464e-09
9.224413161e-09
9.226016352e-09
9.227626299e-09
9.229242364e-09
9.230863917e-09
9.232490361e-09
9.234121139e-09
9.235755725e-09
9.23739364e-09
9.239034447e-09
9.240677736e-09
9.242323043e-09
9.243969844e-09
9.245617662e-09
9.247266054e-09
9.248914599e-09
9.250562894e-09
9.252210544e-09
9.253857163e-09
9.255502374e-09
9.257145801e-09
9.258787077e-09
9.260425836e-09
9.262061718e-09
9.263694363e-09
9.265323418e-09
9.266948525e-09
9.268569335e-09
9.270185498e-09
9.271796664e-09
9.273402482e-09
9.275002605e-09
9.276596686e-09
9.278184379e-09
9.279765339e-09
9.281339219e-09
9.282905672e-09
9.284464356e-09
9.286014927e-09
9.287557038e-09
9.289090345e-09
9.290614501e-09
9.292129161e-09
9.29363398e-09
9.295128608e-09
9.296612698e-09
9.298085906e-09
9.29954789e-09
9.300998316e-09
9.302436852e-09
9.303863179e-09
9.305276983e-09
9.306677964e-09
9.308065829e-09
9.309440299e-09
9.310801096e-09
9.312147954e-09
9.313480603e-09
9.314798786e-09
9.316102243e-09
9.317390717e-09
9.318663957e-09
9.319921718e-09
9.321163753e-09
9.322389833e-09
9.323599653e-09
9.324793125e-09
9.325969915e-09
9.32712984e-09
9.328272688e-09
9.329398256e-09
9.330506355e-09
9.331596802e-09
9.332669423e-09
9.333724061e-09
9.334760573e-09
9.33577883e-09
9.336778711e-09
9.337760108e-09
9.338722924e-09
9.33966707e-09
9.340592464e-09
9.341499032e-09
9.342386702e-09
9.343255405e-09
9.34410507e-09
9.344935641e-09
9.345747068e-09
9.346539121e-09
9.347312093e-09
9.348065655e-09
9.34879983e-09
9.349514559e-09
9.350209807e-09
9.350885622e-09
9.351541978e-09
9.352179347e-09
9.35279744e-09
9.353396411e-09
9.353976346e-09
9.354537337e-09
9.355079497e-09
9.355603004e-09
9.356107925e-09
9.356594417e-09
9.357062644e-09
9.35751279e-09
9.357945056e-09
9.358359641e-09
9.358756773e-09
9.35913667e-09
9.359499548e-09
9.359845698e-09
9.360175409e-09
9.360488993e-09
9.360786771e-09
9.361069085e-09
9.361336298e-09
9.361588788e-09
9.361826956e-09
9.362051224e-09
9.362262036e-09
9.362459856e-09
9.362645176e-09
9.362818503e-09
9.362980374e-09
9.363131349e-09
9.363272012e-09
9.363402977e-09
9.363524882e-09
9.363638396e-09
9.363744213e-09
9.363843059e-09
9.363935689e-09
9.364022895e-09
9.364105492e-09
9.364184337e-09
9.364260312e-09
9.364334344e-09
9.364407391e-09
9.364480447e-09
9.364554555e-09
9.364630795e-09
9.364710292e-09
9.364794217e-09
9.364883794e-09
9.364980296e-09
9.365085049e-09
9.36519944e-09
9.365324911e-09
9.36546297e-09
9.36561519e-09
9.365783223e-09
9.365968794e-09
9.366173713e-09
9.366399879e-09
9.366649291e-09
9.366924045e-09
9.367226343e-09
9.367558485e-09
9.367922876e-09
9.36832202e-09
9.368758517e-09
9.369235062e-09
9.369754458e-09
9.370319617e-09
9.370933572e-09
9.371599475e-09
9.372320575e-09
9.373100195e-09
9.373941993e-09
9.374849588e-09
9.375826747e-09
9.376877351e-09
9.37800528e-09
9.3792147e-09
9.380509822e-09
9.381894967e-09
9.383374626e-09
9.384953592e-09
9.386636276e-09
9.388427962e-09
9.390333912e-09
9.392359629e-09
9.394510894e-09
9.396793783e-09
9.399214659e-09
9.401780195e-09
9.404497368e-09
9.407373734e-09
9.410416568e-09
9.413634111e-09
9.41703467e-09
9.420627147e-09
9.424422333e-09
9.428428653e-09
9.432655903e-09
9.437114797e-09
9.44181654e-09
9.446772742e-09
9.451995384e-09
9.457496839e-09
9.463289965e-09
9.46938824e-09
9.475805978e-09
9.482558553e-09
9.489662634e-09
9.497136131e-09
9.504996128e-09
9.513267673e-09
9.521977276e-09
9.531151597e-09
9.540818908e-09
9.551010679e-09
9.561761435e-09
9.573109299e-09
9.585096947e-09
9.597772728e-09
9.611192327e-09
9.625422696e-09
9.64054185e-09
9.656641372e-09
9.673829397e-09
9.692234761e-09
9.712012807e-09
9.733353166e-09
9.756491766e-09
9.781726498e-09
9.80943669e-09
9.840111707e-09
9.874393716e-09
9.913140707e-09
9.957520335e-09
1.000913771e-08
1.007028815e-08
1.014428269e-08
1.023608734e-08
1.035332035e-08
1.050820476e-08
1.072028486e-08
1.102120802e-08
1.338991519e-08
1.73478316e-08
1.992830304e-05
1.994685188e-05
1.997811975e-05
2.000744058e-05
2.002742231e-05
2.003758795e-05
2.006333587e-05
2.010603446e-05
2.004652511e-05
1.989561692e-05
1.980325177e-05
1.977757299e-05
1.977195619e-05
1.977360004e-05
1.977764045e-05
1.978205714e-05
1.978595977e-05
1.978876412e-05
1.979002032e-05
1.978955048e-05
1.978703208e-05
1.978211854e-05
1.977429754e-05
1.976264017e-05
1.974612867e-05
1.972248254e-05
1.968745849e-05
1.963177511e-05
1.953134863e-05
1.936286713e-05
1.913949033e-05
1.900893806e-05
1.890136255e-05
1.878596757e-05
1.863136232e-05
1.840811002e-05
1.810574696e-05
1.772415972e-05
1.729936562e-05
1.702922869e-05
1.684982291e-05
1.671743721e-05
1.661443247e-05
1.653210058e-05
1.646508537e-05
1.641040637e-05
1.636559899e-05
1.632855338e-05
1.62981813e-05
1.62731685e-05
1.625281026e-05
1.623622451e-05
1.622282604e-05
1.621203926e-05
1.62035616e-05
1.619723205e-05
1.619203147e-05
1.618833263e-05
1.618583531e-05
1.618453566e-05
1.618421219e-05
1.618442382e-05
1.61855185e-05
1.618705942e-05
1.618924629e-05
1.619173118e-05
1.619462773e-05
1.619794576e-05
1.620149717e-05
1.620536236e-05
1.620943368e-05
1.62138774e-05
1.621834318e-05
1.62230441e-05
1.622806046e-05
1.623300008e-05
1.623823195e-05
1.624349693e-05
1.624903843e-05
1.625479294e-05
1.62604675e-05
1.626644141e-05
1.627266521e-05
1.627891468e-05
1.628554134e-05
1.629228088e-05
1.629940625e-05
1.630701387e-05
1.631513647e-05
1.63238351e-05
1.633286492e-05
1.634266735e-05
1.635289793e-05
1.636382669e-05
1.637525693e-05
1.638741258e-05
1.640010048e-05
1.641351073e-05
1.64274053e-05
1.644215766e-05
1.645742379e-05
1.64740787e-05
1.649204694e-05
1.651090306e-05
1.653024675e-05
1.655053748e-05
1.6571761e-05
1.65934824e-05
1.661614081e-05
1.663978106e-05
1.666406464e-05
1.66893278e-05
1.671580842e-05
1.674307986e-05
1.677161065e-05
1.680113413e-05
1.683210098e-05
1.686408996e-05
1.689782065e-05
1.693266569e-05
1.696898108e-05
1.700641517e-05
1.704534379e-05
1.708585927e-05
1.712740288e-05
1.717032472e-05
1.721438287e-05
1.72597519e-05
1.730582309e-05
1.735234142e-05
1.739881485e-05
1.744438997e-05
1.748790225e-05
1.752683032e-05
1.755711342e-05
1.756951158e-05
1.756166902e-05
1.753354139e-05
1.748371854e-05
1.740744489e-05
1.729735953e-05
1.714820628e-05
1.69786685e-05
1.695217444e-05
1.698638281e-05
1.705371721e-05
1.714162715e-05
1.723829844e-05
1.732387917e-05
1.739476828e-05
1.744743083e-05
1.749084138e-05
1.761758091e-05
1.775997653e-05
1.788198714e-05
1.798287324e-05
1.812332256e-05
1.827745055e-05
1.844110515e-05
1.861232676e-05
1.879251012e-05
1.898287723e-05
1.91870452e-05
1.941674983e-05
1.971055737e-05
2.006708954e-05
2.040031445e-05
2.07231015e-05
2.104615129e-05
2.137372859e-05
2.170744645e-05
2.204726451e-05
2.239123026e-05
2.27346981e-05
2.306462986e-05
2.339211091e-05
2.37518966e-05
2.418276979e-05
2.468431696e-05
2.525152703e-05
2.579404363e-05
2.63283925e-05
2.689239599e-05
2.745177657e-05
2.808001201e-05
2.877223605e-05
2.946581996e-05
3.017299309e-05
3.09094571e-05
3.173493518e-05
3.264171883e-05
3.363200033e-05
3.466186341e-05
3.57510428e-05
3.679849888e-05
3.792882791e-05
3.917807837e-05
4.052477389e-05
4.201894514e-05
4.366900587e-05
4.533239843e-05
4.714281332e-05
4.917020633e-05
5.144810592e-05
5.372365018e-05
5.64787747e-05
5.942967531e-05
6.256186255e-05
6.586372755e-05
6.950144462e-05
7.332282792e-05
7.741578516e-05
8.190151207e-05
8.677489519e-05
9.249781121e-05
9.97354116e-05
0.000110653685
0.0001337805414
0.0002030642238
0.0003643446287
0.0004626810073
0.0003463242732
0.0002334155787
0.0001844641689
0.0001444219481
0.000111464448
8.539614514e-05
6.616488094e-05
5.148277015e-05
3.964020762e-05
3.078805388e-05
2.431613071e-05
1.936586207e-05
1.561348328e-05
1.278704997e-05
1.060508513e-05
8.899344324e-06
7.533508995e-06
6.413378697e-06
5.484429808e-06
4.703913755e-06
4.046933389e-06
3.491932588e-06
3.022461868e-06
2.624593362e-06
2.286148613e-06
1.997033024e-06
1.748908174e-06
1.535048535e-06
1.349970044e-06
1.189212706e-06
1.049111994e-06
9.266505683e-07
8.193261765e-07
7.250398385e-07
6.420202827e-07
5.687843457e-07
5.040671394e-07
4.467907864e-07
3.960295634e-07
3.509864779e-07
3.109734827e-07
2.75393812e-07
2.437289656e-07
2.15527024e-07
1.903940155e-07
1.679920359e-07
1.480414235e-07
1.303823408e-07
1.148265099e-07
1.010172711e-07
8.855427346e-08
7.739866124e-08
6.746410266e-08
5.869386645e-08
5.104721269e-08
4.454633832e-08
3.921246441e-08
3.488272921e-08
3.122603677e-08
2.80450156e-08
2.523654692e-08
2.274015633e-08
2.051554093e-08
1.853155433e-08
1.676244581e-08
1.518578597e-08
1.378091584e-08
1.324663756e-08
1.308631777e-08
1.294289014e-08
1.281465022e-08
1.269968783e-08
1.259647513e-08
1.25037154e-08
1.242031887e-08
1.234530211e-08
1.227779917e-08
1.221706796e-08
1.216242941e-08
1.211327345e-08
1.206905178e-08
1.202927169e-08
1.19934907e-08
1.196131098e-08
1.193237308e-08
1.190635308e-08
1.18829598e-08
1.186193218e-08
1.184303621e-08
1.182606264e-08
1.18108219e-08
1.179713908e-08
1.178485913e-08
1.177384341e-08
1.176396743e-08
1.175511908e-08
1.174719729e-08
1.174011097e-08
1.173377813e-08
1.172812509e-08
1.17230856e-08
1.171860006e-08
1.171461476e-08
1.171108128e-08
1.170795591e-08
1.170519923e-08
1.17027757e-08
1.17006533e-08
1.169880326e-08
1.169719967e-08
1.169581927e-08
1.169464109e-08
1.169364624e-08
1.16928177e-08
1.169214007e-08
1.169159947e-08
1.169118332e-08
1.169088026e-08
1.169068002e-08
1.16905733e-08
1.169055168e-08
1.169060756e-08
1.169073406e-08
1.169092496e-08
1.169117463e-08
1.169147801e-08
1.169183048e-08
1.169222788e-08
1.169266646e-08
1.169314278e-08
1.169365374e-08
1.169419651e-08
1.169476843e-08
1.16953668e-08
1.169598855e-08
1.16966326e-08
1.169729735e-08
1.169798119e-08
1.16986826e-08
1.169940017e-08
1.17001326e-08
1.170087868e-08
1.17016373e-08
1.170240748e-08
1.170318833e-08
1.170397912e-08
1.170477928e-08
1.170558803e-08
1.170640427e-08
1.170722715e-08
1.170805592e-08
1.170888992e-08
1.170972851e-08
1.171057106e-08
1.171141701e-08
1.171226579e-08
1.171311684e-08
1.171396962e-08
1.171482362e-08
1.171567831e-08
1.171653319e-08
1.171738775e-08
1.171824151e-08
1.171909396e-08
1.171994462e-08
1.172079302e-08
1.172163865e-08
1.172248105e-08
1.172331973e-08
1.172415422e-08
1.172498404e-08
1.17258087e-08
1.172662772e-08
1.172744063e-08
1.172824694e-08
1.172904616e-08
1.172983781e-08
1.173062136e-08
1.173139631e-08
1.173216215e-08
1.173291834e-08
1.173366434e-08
1.173439962e-08
1.173512362e-08
1.17358358e-08
1.173653564e-08
1.173722261e-08
1.17378962e-08
1.173855594e-08
1.173920135e-08
1.173983196e-08
1.174044734e-08
1.174104702e-08
1.174163056e-08
1.174219749e-08
1.174274734e-08
1.174327962e-08
1.174379387e-08
1.174428957e-08
1.174476623e-08
1.174522335e-08
1.174566041e-08
1.174607694e-08
1.174647241e-08
1.174684631e-08
1.174719812e-08
1.174752735e-08
1.174783349e-08
1.174811607e-08
1.174837461e-08
1.174860865e-08
1.174881777e-08
1.174900157e-08
1.174915963e-08
1.174929159e-08
1.174939706e-08
1.174947568e-08
1.174952707e-08
1.174955086e-08
1.174954665e-08
1.174951405e-08
1.174945262e-08
1.17493619e-08
1.174924142e-08
1.174909068e-08
1.174890926e-08
1.174869659e-08
1.174845211e-08
1.174817519e-08
1.174786522e-08
1.174752205e-08
1.174714438e-08
1.174673441e-08
1.174628952e-08
1.174581001e-08
1.17452954e-08
1.174474527e-08
1.174415915e-08
1.1743537e-08
1.174287801e-08
1.174218186e-08
1.174144814e-08
1.174067645e-08
1.173986642e-08
1.173901759e-08
1.173812961e-08
1.173720198e-08
1.173623409e-08
1.173522567e-08
1.173417627e-08
1.173308548e-08
1.173195287e-08
1.1730778e-08
1.172956046e-08
1.172829978e-08
1.172699554e-08
1.172564728e-08
1.172425457e-08
1.172281695e-08
1.172133395e-08
1.171980511e-08
1.171822997e-08
1.171660804e-08
1.171493882e-08
1.171322184e-08
1.171145658e-08
1.170964251e-08
1.170777912e-08
1.170586585e-08
1.170390216e-08
1.170188745e-08
1.169982113e-08
1.169770259e-08
1.169553117e-08
1.169330621e-08
1.169102701e-08
1.168869283e-08
1.168630292e-08
1.168385648e-08
1.168135271e-08
1.167879073e-08
1.167616968e-08
1.167348861e-08
1.167074659e-08
1.166794261e-08
1.166507563e-08
1.166214458e-08
1.165914835e-08
1.165608579e-08
1.165295574e-08
1.1649757e-08
1.164648836e-08
1.164314859e-08
1.163973648e-08
1.163625075e-08
1.163269013e-08
1.162905326e-08
1.162533871e-08
1.162154494e-08
1.161767026e-08
1.161371288e-08
1.160967086e-08
1.160554214e-08
1.160132455e-08
1.159701567e-08
1.159261244e-08
1.158811286e-08
1.158351366e-08
1.157881156e-08
1.157400304e-08
1.156908342e-08
1.156404865e-08
1.155889374e-08
1.155361317e-08
1.154820093e-08
1.154265192e-08
1.153695679e-08
1.153111001e-08
1.152510369e-08
1.151892973e-08
1.151257964e-08
1.150604446e-08
1.149931473e-08
1.149238044e-08
1.148523092e-08
1.147785486e-08
1.147024003e-08
1.146237336e-08
1.145424055e-08
1.144582565e-08
1.143710986e-08
1.142807791e-08
1.141871247e-08
1.140899406e-08
1.139890114e-08
1.138840984e-08
1.137749352e-08
1.136612258e-08
1.135426424e-08
1.134188266e-08
1.132893902e-08
1.131539181e-08
1.130119716e-08
1.128630972e-08
1.12706852e-08
1.125426914e-08
1.123701093e-08
1.121885069e-08
1.119972109e-08
1.117955243e-08
1.115826804e-08
1.113578409e-08
1.111201031e-08
1.108685017e-08
1.106020091e-08
1.103196742e-08
1.100205048e-08
1.097035065e-08
1.093676967e-08
1.090121379e-08
1.086360062e-08
1.082386715e-08
1.078198986e-08
1.073801077e-08
1.06920636e-08
1.064441922e-08
1.059556069e-08
1.054629722e-08
1.049793694e-08
1.045252819e-08
1.041328214e-08
1.038526979e-08
1.037649088e-08
1.039931969e-08
1.047420941e-08
1.067199671e-08
1.098358833e-08
1.137654633e-08
1.193343712e-08
2.118928549e-05
2.119938945e-05
2.121587645e-05
2.12327423e-05
2.124555599e-05
2.125316779e-05
2.125927701e-05
2.125746802e-05
2.122178901e-05
2.115349306e-05
2.109639751e-05
2.106362763e-05
2.104562254e-05
2.103543684e-05
2.102929744e-05
2.102487091e-05
2.102081266e-05
2.101623454e-05
2.101040175e-05
2.100280827e-05
2.099287219e-05
2.098001267e-05
2.096341792e-05
2.094199305e-05
2.091413675e-05
2.087737197e-05
2.082770505e-05
2.075878254e-05
2.066164843e-05
2.053235099e-05
2.038461955e-05
2.025623191e-05
2.013431281e-05
2.000251623e-05
1.984403271e-05
1.96456084e-05
1.940422344e-05
1.912930006e-05
1.885172442e-05
1.863079827e-05
1.846254299e-05
1.83321511e-05
1.822887799e-05
1.814586588e-05
1.807883808e-05
1.802420184e-05
1.797949053e-05
1.794280348e-05
1.791284824e-05
1.788844113e-05
1.786879228e-05
1.785306921e-05
1.784074143e-05
1.783120516e-05
1.782413234e-05
1.781917347e-05
1.781587945e-05
1.781414302e-05
1.781371374e-05
1.78145237e-05
1.781639475e-05
1.781909332e-05
1.782261491e-05
1.782677499e-05
1.783159512e-05
1.783691998e-05
1.784279952e-05
1.784918629e-05
1.785594122e-05
1.786310363e-05
1.787056685e-05
1.787838739e-05
1.788644872e-05
1.789484394e-05
1.79035634e-05
1.791247874e-05
1.792168629e-05
1.793110325e-05
1.794086106e-05
1.795093568e-05
1.796122713e-05
1.797186665e-05
1.798287586e-05
1.799414369e-05
1.80058052e-05
1.801779518e-05
1.803025264e-05
1.804321251e-05
1.805522212e-05
1.806766663e-05
1.808063387e-05
1.809430939e-05
1.810867387e-05
1.81239529e-05
1.814014706e-05
1.81572029e-05
1.817500966e-05
1.819366145e-05
1.821310399e-05
1.823347669e-05
1.825479559e-05
1.827741988e-05
1.830135068e-05
1.832639938e-05
1.835236357e-05
1.837934734e-05
1.840729031e-05
1.843604014e-05
1.846572893e-05
1.849638359e-05
1.852790272e-05
1.856044142e-05
1.859406804e-05
1.862867896e-05
1.866444007e-05
1.870134488e-05
1.873960238e-05
1.877919022e-05
1.88203317e-05
1.886290289e-05
1.890702838e-05
1.89526132e-05
1.899979229e-05
1.904852732e-05
1.909858597e-05
1.914996208e-05
1.92024459e-05
1.925592237e-05
1.930994636e-05
1.936404961e-05
1.94176134e-05
1.946971603e-05
1.951897177e-05
1.956300303e-05
1.959842358e-05
1.962171963e-05
1.963085896e-05
1.96249811e-05
1.960077308e-05
1.955790902e-05
1.949854286e-05
1.942883717e-05
1.936985524e-05
1.936700522e-05
1.940673692e-05
1.947579348e-05
1.956386255e-05
1.966162962e-05
1.975978605e-05
1.985517014e-05
1.994866183e-05
2.004901003e-05
2.017955797e-05
2.032531033e-05
2.047123543e-05
2.061607517e-05
2.077580209e-05
2.094873806e-05
2.113323413e-05
2.133030218e-05
2.15345405e-05
2.175159809e-05
2.198617563e-05
2.224597871e-05
2.254158748e-05
2.286737652e-05
2.319745179e-05
2.352851899e-05
2.386298101e-05
2.420306048e-05
2.455015361e-05
2.490488817e-05
2.526722897e-05
2.563657385e-05
2.599754693e-05
2.637385926e-05
2.678140182e-05
2.723552998e-05
2.773847389e-05
2.828381382e-05
2.885119109e-05
2.944952573e-05
3.010827532e-05
3.07694639e-05
3.138285912e-05
3.203622981e-05
3.271893464e-05
3.343537935e-05
3.419717186e-05
3.501313758e-05
3.584785392e-05
3.674807597e-05
3.770858905e-05
3.873974483e-05
3.972602406e-05
4.066712172e-05
4.169526055e-05
4.281775308e-05
4.403280727e-05
4.524715052e-05
4.644814242e-05
4.777856612e-05
4.913818138e-05
5.04775797e-05
5.192130869e-05
5.333157566e-05
5.477268629e-05
5.613662445e-05
5.753158078e-05
5.891464293e-05
6.035382886e-05
6.194916465e-05
6.383798106e-05
6.641174185e-05
7.045567929e-05
7.869010382e-05
0.0001004576507
0.0001611314418
0.000293277358
0.000448313052
0.0004859237359
0.0003842438426
0.000303075326
0.0002444979355
0.0001932549861
0.0001498223081
0.0001150461605
8.872765105e-05
6.965128161e-05
5.564380989e-05
4.449712387e-05
3.522011866e-05
2.795726981e-05
2.242052437e-05
1.820622521e-05
1.497177778e-05
1.243948652e-05
1.043582452e-05
8.828399592e-06
7.52052006e-06
6.443741155e-06
5.548867893e-06
4.798554681e-06
4.165721141e-06
3.628776214e-06
3.170592543e-06
2.777693182e-06
2.439111171e-06
2.146122984e-06
1.891603207e-06
1.66976566e-06
1.475819394e-06
1.305805772e-06
1.156416984e-06
1.024868492e-06
9.088148871e-07
8.062508528e-07
7.154729699e-07
6.350161758e-07
5.636230332e-07
5.002046854e-07
4.438194357e-07
3.936475569e-07
3.489768143e-07
3.091863557e-07
2.737372274e-07
2.421636407e-07
2.140662802e-07
1.890976054e-07
1.668923133e-07
1.470377624e-07
1.292351078e-07
1.13349827e-07
9.922894285e-08
8.67528253e-08
7.581201131e-08
6.631214905e-08
5.813243825e-08
5.107772838e-08
4.491241442e-08
3.946534358e-08
3.462366098e-08
3.030772222e-08
2.645670317e-08
2.302039889e-08
1.995567476e-08
1.72243309e-08
1.616713877e-08
1.586387257e-08
1.559176782e-08
1.534770985e-08
1.512863657e-08
1.49317404e-08
1.475464027e-08
1.459522873e-08
1.445174707e-08
1.432251682e-08
1.420603866e-08
1.410109071e-08
1.400650482e-08
1.392124076e-08
1.384436322e-08
1.377503189e-08
1.371249275e-08
1.365607003e-08
1.360515077e-08
1.355918213e-08
1.351766697e-08
1.348016004e-08
1.344626196e-08
1.341561113e-08
1.338788187e-08
1.336278522e-08
1.334005835e-08
1.331946522e-08
1.330079386e-08
1.32838533e-08
1.326847125e-08
1.325449229e-08
1.324177655e-08
1.323019837e-08
1.321964491e-08
1.321001475e-08
1.320121656e-08
1.319316798e-08
1.318579475e-08
1.317902988e-08
1.317281297e-08
1.316708969e-08
1.316181125e-08
1.315693382e-08
1.315241807e-08
1.314822867e-08
1.314433382e-08
1.314070492e-08
1.313731616e-08
1.31341443e-08
1.313116839e-08
1.31283695e-08
1.312573056e-08
1.312323615e-08
1.312087237e-08
1.311862667e-08
1.311648778e-08
1.311444549e-08
1.311249067e-08
1.311061504e-08
1.31088112e-08
1.310707244e-08
1.310539273e-08
1.310376666e-08
1.310218934e-08
1.310065636e-08
1.309916384e-08
1.30977085e-08
1.309628778e-08
1.309489753e-08
1.309353487e-08
1.309219736e-08
1.309088275e-08
1.308958904e-08
1.308831439e-08
1.308705713e-08
1.308581574e-08
1.308458886e-08
1.30833753e-08
1.308217414e-08
1.30809851e-08
1.307980744e-08
1.30786393e-08
1.307747964e-08
1.307632762e-08
1.307518251e-08
1.307404361e-08
1.307291028e-08
1.307178193e-08
1.307065798e-08
1.306953788e-08
1.306842113e-08
1.306730722e-08
1.306619568e-08
1.306508604e-08
1.306397786e-08
1.306287069e-08
1.306176412e-08
1.306065773e-08
1.305955112e-08
1.305844387e-08
1.30573356e-08
1.305622593e-08
1.305511447e-08
1.305400085e-08
1.305288469e-08
1.305176563e-08
1.305064331e-08
1.304951735e-08
1.30483874e-08
1.304725307e-08
1.304611397e-08
1.304496972e-08
1.304381989e-08
1.304266405e-08
1.304150175e-08
1.304033252e-08
1.30391559e-08
1.30379714e-08
1.303677857e-08
1.303557695e-08
1.303436612e-08
1.303314566e-08
1.30319152e-08
1.303067435e-08
1.302942277e-08
1.302816009e-08
1.302688592e-08
1.302559987e-08
1.30243015e-08
1.302299036e-08
1.302166597e-08
1.302032783e-08
1.301897542e-08
1.301760821e-08
1.301622565e-08
1.30148272e-08
1.301341225e-08
1.301198022e-08
1.30105305e-08
1.300906247e-08
1.300757552e-08
1.300606905e-08
1.300454246e-08
1.300299518e-08
1.300142668e-08
1.299983642e-08
1.29982239e-08
1.299658864e-08
1.299493014e-08
1.299324789e-08
1.299154141e-08
1.298981017e-08
1.29880536e-08
1.298627112e-08
1.298446206e-08
1.298262572e-08
1.298076131e-08
1.297886806e-08
1.297694517e-08
1.297499179e-08
1.297300701e-08
1.297098962e-08
1.296893793e-08
1.296685213e-08
1.296473161e-08
1.296257602e-08
1.296038401e-08
1.295815493e-08
1.295588788e-08
1.295358194e-08
1.295123545e-08
1.294884941e-08
1.294642114e-08
1.294395013e-08
1.29414353e-08
1.293887561e-08
1.293627023e-08
1.293361775e-08
1.293091737e-08
1.292816793e-08
1.292536739e-08
1.292251522e-08
1.291960994e-08
1.291665037e-08
1.291363516e-08
1.291056294e-08
1.290743233e-08
1.290424188e-08
1.290099011e-08
1.289767552e-08
1.289429654e-08
1.289085157e-08
1.288733896e-08
1.288375699e-08
1.288010392e-08
1.287637794e-08
1.287257717e-08
1.286869969e-08
1.286474351e-08
1.286070657e-08
1.285658673e-08
1.285238181e-08
1.284808951e-08
1.284370747e-08
1.283923324e-08
1.283466424e-08
1.282999783e-08
1.282523123e-08
1.282036155e-08
1.281538579e-08
1.28103008e-08
1.280510333e-08
1.279978997e-08
1.27943572e-08
1.278880133e-08
1.278311853e-08
1.277730481e-08
1.277135601e-08
1.27652678e-08
1.275903567e-08
1.275265492e-08
1.274612068e-08
1.27394279e-08
1.273257138e-08
1.27255457e-08
1.271834534e-08
1.271096457e-08
1.270339751e-08
1.269563806e-08
1.268767986e-08
1.267951622e-08
1.267114007e-08
1.266254394e-08
1.265371991e-08
1.264465961e-08
1.263535425e-08
1.262579478e-08
1.261597194e-08
1.260587256e-08
1.259548937e-08
1.258480923e-08
1.257381989e-08
1.256250962e-08
1.255086108e-08
1.25388614e-08
1.252649381e-08
1.251374073e-08
1.250058351e-08
1.248700247e-08
1.247297618e-08
1.245848308e-08
1.244350007e-08
1.242800296e-08
1.24119664e-08
1.239536382e-08
1.237816735e-08
1.23603477e-08
1.234187401e-08
1.232271377e-08
1.230283266e-08
1.228219435e-08
1.226076014e-08
1.223848853e-08
1.221533523e-08
1.219125488e-08
1.216619983e-08
1.214011944e-08
1.211295944e-08
1.208466104e-08
1.205516019e-08
1.202438709e-08
1.199226593e-08
1.195871498e-08
1.192364695e-08
1.188696938e-08
1.184858505e-08
1.18083926e-08
1.176628668e-08
1.172215475e-08
1.167587564e-08
1.16273331e-08
1.157640911e-08
1.152297279e-08
1.146687955e-08
1.140797499e-08
1.134609854e-08
1.128108789e-08
1.121278456e-08
1.114102654e-08
1.10656697e-08
1.098658889e-08
1.090368085e-08
1.08168745e-08
1.072615413e-08
1.06315719e-08
1.053330353e-08
1.043171901e-08
1.032743364e-08
1.022140891e-08
1.011511551e-08
1.001076686e-08
1.007109798e-08
1.017657093e-08
1.0293985e-08
1.042560229e-08
1.057425508e-08
1.074345959e-08
1.093745188e-08
1.116088644e-08
1.141759769e-08
1.170662161e-08
1.201139637e-08
2.220601925e-05
2.221141316e-05
2.221991996e-05
2.222862316e-05
2.22349101e-05
2.223723651e-05
2.223485918e-05
2.222403419e-05
2.219870696e-05
2.216042509e-05
2.212308526e-05
2.209420787e-05
2.207315583e-05
2.205755885e-05
2.204530127e-05
2.203473444e-05
2.202465296e-05
2.201414113e-05
2.200243898e-05
2.198888473e-05
2.197282585e-05
2.195355915e-05
2.193021267e-05
2.190166016e-05
2.186639026e-05
2.182233798e-05
2.176670916e-05
2.169602273e-05
2.160730852e-05
2.150097639e-05
2.138399723e-05
2.126712013e-05