/*--------------------------------*- C++ -*----------------------------------*\
| =========                 |                                                 |
| \\      /  F ield         | OpenFOAM: The Open Source CFD Toolbox           |
|  \\    /   O peration     | Version:  v2006                                 |
|   \\  /    A nd           | Website:  www.openfoam.com                      |
|    \\/     M anipulation  |                                                 |
\*---------------------------------------------------------------------------*/
FoamFile
{
    version     2.0;
    format      ascii;
    class       volScalarField;
    location    "0.075";
    object      N2;
}
// * * * * * * * * * * * * * * * * * * * * * * * * * * * * * * * * * * * * * //

dimensions      [0 0 0 0 0 0 0];


internalField   nonuniform List<scalar> 
72000
(
0.7033022514
0.7033013093
0.7032999051
0.7033026051
0.7033103973
0.703324316
0.7033342369
0.7033386936
0.7033665631
0.7034039257
0.7034216629
0.7034246619
0.7034273093
0.7034295717
0.7034320913
0.7034334801
0.7034348719
0.7034367216
0.7034373789
0.7034385635
0.7034388432
0.7034396205
0.7034397734
0.7034404476
0.7034402677
0.7034400608
0.7034395442
0.7034382923
0.7034414109
0.703455764
0.7034898989
0.703489644
0.7034897258
0.7034899263
0.7034933879
0.703505276
0.7035256546
0.7035580257
0.7036113375
0.703621385
0.7036242831
0.7036263638
0.703628
0.7036296522
0.7036306171
0.7036316148
0.7036326022
0.7036329909
0.7036337879
0.7036338637
0.7036346169
0.7036345321
0.7036352507
0.7036351101
0.7036353997
0.7036356275
0.7036356481
0.7036360885
0.7036358593
0.7036359131
0.7036363238
0.7036361507
0.7036364325
0.7036360076
0.7036363943
0.7036361212
0.7036362395
0.7036364697
0.7036362666
0.7036366396
0.7036363093
0.7036364327
0.7036362685
0.703636388
0.7036364958
0.7036363154
0.7036366669
0.7036362388
0.7036363451
0.7036365032
0.7036364194
0.7036363593
0.7036367786
0.7036364198
0.7036366236
0.7036364121
0.7036364003
0.7036366425
0.7036363768
0.70363683
0.7036365852
0.7036367713
0.7036363407
0.7036366885
0.7036363509
0.7036366931
0.7036362608
0.7036364674
0.7036363544
0.7036364465
0.7036361977
0.7036363203
0.7036360119
0.7036362515
0.7036357522
0.7036357594
0.7036359879
0.7036355468
0.7036354888
0.703635698
0.7036353037
0.7036353287
0.7036353263
0.7036349514
0.7036351146
0.7036347578
0.7036346578
0.7036343641
0.7036342613
0.7036336856
0.7036336751
0.7036331202
0.7036329535
0.7036329245
0.7036324234
0.7036322854
0.7036315585
0.7036314769
0.7036312351
0.7036307268
0.703630231
0.7036299997
0.7036293847
0.7036292831
0.7036287677
0.7036307241
0.7036346192
0.7036401456
0.7036475243
0.7036575728
0.7036721728
0.7036957642
0.7037390703
0.7037399463
0.703740559
0.7037411085
0.7037422228
0.7037444886
0.703754377
0.7037705836
0.7037953156
0.7038360351
0.7038421862
0.7038487392
0.7038666422
0.7039005709
0.7039187033
0.703937907
0.7039571212
0.703977452
0.7039981648
0.7040196459
0.7040411678
0.7040617066
0.7040618547
0.7040384706
0.7040364472
0.7040426414
0.7040527434
0.7040659288
0.70408189
0.7041007452
0.7041232007
0.7041511505
0.7041890022
0.7042343039
0.7042768222
0.7042984409
0.7043097536
0.7043065437
0.7043329979
0.7043813577
0.7044004658
0.7044464892
0.7044688987
0.7044757048
0.7045017085
0.7045384314
0.7045890181
0.704617294
0.7046345013
0.704640353
0.7046712663
0.7047235042
0.7047932271
0.70484471
0.7048830089
0.704940163
0.7049856751
0.7050269016
0.7050652671
0.7051245246
0.7051902873
0.7052367881
0.7052805882
0.7052835881
0.7052513382
0.7052148584
0.7051751361
0.7051333199
0.7050850655
0.7050328006
0.7049736186
0.7049061537
0.704827741
0.7047340683
0.7046155314
0.7044533139
0.70420574
0.7037430359
0.7023482478
0.6927445278
0.6910664411
0.6894615037
0.6887552258
0.689407536
0.6906106137
0.6919782948
0.6931534007
0.6940926077
0.6951239838
0.6961482773
0.696912449
0.6975600507
0.6982699332
0.6989179956
0.6994824801
0.6999761477
0.7004089675
0.700790402
0.7011021817
0.7013473884
0.7015490703
0.7017150567
0.7018525666
0.7019674132
0.7020643177
0.702146786
0.7022175123
0.7022785934
0.7023316703
0.7023780302
0.7024187033
0.702454488
0.7024860316
0.7025139075
0.7025385914
0.7025604815
0.7025799059
0.7025971456
0.702612444
0.7026260092
0.7026380176
0.7026486167
0.7026579247
0.7026660249
0.7026729526
0.7026786377
0.7026826298
0.7026846762
0.7026902546
0.7026960829
0.7027014564
0.7027061163
0.702709996
0.7027130595
0.702715262
0.7027165057
0.7027170819
0.7027174447
0.7027177067
0.7027179087
0.7027180629
0.7027181798
0.7027182605
0.7027183078
0.7027183239
0.7027183096
0.7027182648
0.7027181878
0.7027180375
0.7027178727
0.7027177008
0.702717524
0.7027173432
0.7027171588
0.7027169709
0.7027167797
0.7027165853
0.7027163877
0.7027161872
0.7027159838
0.7027157775
0.7027155685
0.7027153569
0.7027151427
0.702714926
0.7027147069
0.7027144855
0.7027142617
0.7027140357
0.7027138075
0.7027135772
0.7027133448
0.7027131104
0.702712874
0.7027126357
0.7027123955
0.7027121534
0.7027119096
0.7027116639
0.7027114166
0.7027111675
0.7027109169
0.7027106646
0.7027104108
0.7027101556
0.7027098988
0.7027096407
0.7027093812
0.7027091204
0.7027088583
0.702708595
0.7027083306
0.702708065
0.7027077984
0.7027075307
0.7027072621
0.7027069925
0.7027067221
0.7027064508
0.7027061787
0.7027059059
0.7027056324
0.7027053582
0.7027050834
0.702704808
0.7027045321
0.7027042557
0.7027039789
0.7027037017
0.7027034241
0.7027031462
0.702702868
0.7027025896
0.702702311
0.7027020322
0.7027017533
0.7027014744
0.7027011954
0.7027009164
0.7027006375
0.7027003586
0.7027000799
0.7026998013
0.7026995229
0.7026992448
0.702698967
0.7026986894
0.7026984123
0.7026981355
0.7026978592
0.7026975834
0.702697308
0.7026970332
0.702696759
0.7026964855
0.7026962126
0.7026959404
0.702695669
0.7026953983
0.7026951285
0.7026948595
0.7026945914
0.7026943242
0.702694058
0.7026937928
0.7026935287
0.7026932656
0.7026930036
0.7026927428
0.7026924832
0.7026922248
0.7026919676
0.7026917118
0.7026914573
0.7026912041
0.7026909523
0.702690702
0.7026904531
0.7026902057
0.7026899598
0.7026897155
0.7026894728
0.7026892316
0.7026889921
0.7026887543
0.7026885182
0.7026882837
0.7026880511
0.7026878201
0.702687591
0.7026873637
0.7026871381
0.7026869145
0.7026866926
0.7026864727
0.7026862546
0.7026860385
0.7026858242
0.7026856119
0.7026854015
0.702685193
0.7026849865
0.702684782
0.7026845794
0.7026843788
0.7026841801
0.7026839834
0.7026837887
0.7026835959
0.7026834051
0.7026832162
0.7026830293
0.7026828443
0.7026826612
0.7026824801
0.7026823009
0.7026821235
0.7026819481
0.7026817744
0.7026816027
0.7026814327
0.7026812646
0.7026810982
0.7026809336
0.7026807707
0.7026806095
0.7026804499
0.702680292
0.7026801356
0.7026799808
0.7026798275
0.7026796757
0.7026795253
0.7026793762
0.7026792285
0.7026790821
0.7026789368
0.7026787927
0.7026786498
0.7026785078
0.7026783668
0.7026782267
0.7026780875
0.702677949
0.7026778111
0.7026776739
0.7026775371
0.7026774008
0.7026772648
0.702677129
0.7026769934
0.7026768578
0.7026767221
0.7026765862
0.70267645
0.7026763133
0.7026761761
0.7026760382
0.7026758995
0.7026757598
0.702675619
0.702675477
0.7026753335
0.7026751885
0.7026750417
0.7026748929
0.7026747421
0.7026745889
0.7026744333
0.7026742749
0.7026741136
0.7026739492
0.7026737814
0.70267361
0.7026734347
0.7026732553
0.7026730716
0.7026728831
0.7026726897
0.702672491
0.7026722867
0.7026720766
0.7026718601
0.7026716371
0.702671407
0.7026711696
0.7026709244
0.702670671
0.7026704089
0.7026701378
0.702669857
0.7026695662
0.7026692648
0.7026689522
0.7026686278
0.7026682912
0.7026679416
0.7026675785
0.702667201
0.7026668086
0.7026664005
0.7026659759
0.702665534
0.702665074
0.7026645949
0.7026640959
0.7026635759
0.702663034
0.7026624691
0.7026618801
0.7026612658
0.702660625
0.7026599564
0.7026592587
0.7026585304
0.7026577701
0.7026569762
0.7026561471
0.7026552811
0.7026543763
0.7026534309
0.7026524429
0.70265141
0.7026503302
0.7026492011
0.7026480202
0.7026467848
0.7026454923
0.7026441396
0.7026427237
0.7026412412
0.7026396887
0.7026380624
0.7026363584
0.7026345724
0.7026326999
0.7026307361
0.7026286759
0.7026265135
0.7026242432
0.7026218584
0.7026193522
0.7026167171
0.702613945
0.7026110269
0.7026079533
0.7026047135
0.7026012961
0.7025976882
0.7025938759
0.7025898437
0.7025855743
0.7025810484
0.7025762445
0.7025711381
0.7025657017
0.7025599039
0.7025537088
0.7025470749
0.702539954
0.7025322899
0.7025240161
0.7025150535
0.7025053066
0.7024946594
0.7024829689
0.7024700556
0.7024556916
0.7024395809
0.7024213312
0.7024004084
0.7023760624
0.7023471996
0.7023121497
0.7022682072
0.7022106494
0.7021301636
0.7020073347
0.7032356749
0.7032364836
0.7032384245
0.7032426635
0.7032498413
0.7032599219
0.7032709584
0.7032824285
0.7032995344
0.7033191515
0.7033333557
0.7033421832
0.7033487474
0.7033540277
0.7033584493
0.7033622405
0.7033655135
0.7033683635
0.7033708859
0.7033731175
0.7033751136
0.7033768948
0.7033785019
0.7033799638
0.703381314
0.7033826058
0.7033839997
0.7033859001
0.7033896153
0.7033965839
0.7034063367
0.703410309
0.7034128567
0.703415637
0.703420284
0.7034283635
0.7034405608
0.703457416
0.7034774074
0.7034874471
0.7034924895
0.7034956021
0.7034977857
0.7034994387
0.7035007835
0.7035018743
0.7035027753
0.7035035648
0.7035042342
0.7035048318
0.7035053435
0.7035058071
0.7035062154
0.7035065937
0.7035069202
0.7035071891
0.7035074778
0.7035077329
0.7035079768
0.7035081811
0.7035083546
0.7035085431
0.703508701
0.7035088711
0.7035090166
0.7035091721
0.7035093072
0.7035094214
0.7035095426
0.7035096545
0.7035097769
0.7035098825
0.7035100052
0.7035101126
0.7035102003
0.7035103121
0.7035104102
0.7035105256
0.7035106214
0.703510705
0.7035108098
0.7035108965
0.7035109698
0.7035110649
0.7035111452
0.7035112409
0.7035113195
0.7035113791
0.703511442
0.7035114874
0.7035115453
0.7035115722
0.7035116055
0.703511615
0.7035116287
0.70351162
0.703511614
0.7035115881
0.7035115702
0.703511527
0.7035114924
0.7035114266
0.703511359
0.7035112719
0.7035112012
0.7035111083
0.7035110013
0.7035109211
0.703510834
0.703510743
0.7035106794
0.7035106189
0.7035105517
0.7035105153
0.7035104796
0.7035104693
0.7035104537
0.7035104648
0.7035104535
0.703510467
0.70351048
0.7035105177
0.7035105538
0.7035105863
0.703510659
0.7035107535
0.7035108885
0.7035110565
0.703511302
0.7035116414
0.7035120997
0.7035127193
0.7035135571
0.7035147498
0.7035165494
0.7035195934
0.7035240581
0.7035300001
0.7035376477
0.7035475202
0.7035604507
0.7035773116
0.7035969753
0.7036060204
0.7036118232
0.7036169624
0.7036226275
0.7036301625
0.7036417328
0.703657627
0.7036780181
0.7037015921
0.7037170534
0.703731785
0.703750599
0.7037728628
0.703791498
0.7038095484
0.7038276053
0.703845799
0.703863988
0.7038818339
0.7038985424
0.703912103
0.7039177279
0.7039168417
0.7039210818
0.7039300816
0.7039426512
0.7039581887
0.7039764738
0.7039975739
0.7040218476
0.7040499415
0.7040825238
0.7041175217
0.7041498646
0.7041740555
0.7041906451
0.7042024704
0.7042223971
0.7042482254
0.7042742871
0.7043040124
0.7043276074
0.7043473499
0.7043728077
0.7044036495
0.7044377982
0.7044657556
0.7044889721
0.7045107295
0.7045411616
0.7045793313
0.7046278975
0.7046732455
0.7047150948
0.7047596333
0.7048005349
0.704838082
0.7048792401
0.7049259573
0.7049719514
0.7050102614
0.7050487768
0.7049905218
0.7049268949
0.704855745
0.7047777367
0.7046897065
0.7045896521
0.7044750208
0.7043407994
0.704177382
0.7039731983
0.703703482
0.7033226868
0.7027415798
0.7017666833
0.6999513933
0.6966261957
0.6927091993
0.6915856397
0.6896338048
0.6890338377
0.6895810439
0.69030589
0.6916844988
0.6929995162
0.6942822819
0.6954284486
0.6964266278
0.6974198628
0.6983142536
0.6990898108
0.6997377006
0.700249662
0.7006537677
0.7009842676
0.7012544776
0.7014741724
0.701651476
0.7017967685
0.7019161335
0.7020154191
0.7020986598
0.7021692839
0.7022296417
0.7022816422
0.7023267139
0.7023660104
0.7024004217
0.7024306707
0.7024573638
0.7024809689
0.7025018383
0.7025203269
0.7025367159
0.7025512569
0.7025641582
0.7025755966
0.7025857248
0.7025946727
0.7026025508
0.7026094513
0.7026154479
0.7026206129
0.7026250008
0.7026287522
0.7026322643
0.7026365728
0.7026405176
0.7026440037
0.7026469174
0.7026492629
0.7026510348
0.7026523227
0.7026531623
0.702653738
0.7026541872
0.7026545508
0.7026548491
0.7026550909
0.7026552827
0.7026554283
0.7026555315
0.7026555952
0.7026556217
0.7026555199
0.7026553545
0.7026551742
0.7026549857
0.7026547912
0.7026545918
0.7026543879
0.7026541798
0.7026539678
0.7026537519
0.7026535323
0.702653309
0.7026530823
0.7026528522
0.7026526189
0.7026523824
0.7026521428
0.7026519003
0.7026516549
0.7026514067
0.7026511558
0.7026509023
0.7026506462
0.7026503876
0.7026501265
0.7026498631
0.7026495973
0.7026493292
0.7026490589
0.7026487865
0.7026485119
0.7026482352
0.7026479566
0.7026476759
0.7026473933
0.7026471089
0.7026468226
0.7026465345
0.7026462448
0.7026459533
0.7026456603
0.7026453656
0.7026450695
0.7026447719
0.702644473
0.7026441726
0.702643871
0.7026435682
0.7026432642
0.702642959
0.7026426528
0.7026423456
0.7026420374
0.7026417283
0.7026414183
0.7026411075
0.7026407959
0.7026404837
0.7026401707
0.7026398572
0.7026395431
0.7026392285
0.7026389134
0.7026385978
0.7026382819
0.7026379657
0.7026376492
0.7026373324
0.7026370155
0.7026366984
0.7026363813
0.702636064
0.7026357468
0.7026354296
0.7026351125
0.7026347955
0.7026344787
0.7026341621
0.7026338457
0.7026335297
0.702633214
0.7026328987
0.7026325839
0.7026322695
0.7026319557
0.7026316424
0.7026313298
0.7026310178
0.7026307065
0.702630396
0.7026300863
0.7026297773
0.7026294693
0.7026291622
0.702628856
0.7026285509
0.7026282468
0.7026279438
0.7026276419
0.7026273411
0.7026270416
0.7026267434
0.7026264464
0.7026261508
0.7026258566
0.7026255638
0.7026252724
0.7026249826
0.7026246942
0.7026244075
0.7026241224
0.7026238389
0.7026235571
0.702623277
0.7026229987
0.7026227222
0.7026224475
0.7026221746
0.7026219037
0.7026216346
0.7026213675
0.7026211024
0.7026208393
0.7026205782
0.7026203191
0.7026200621
0.7026198073
0.7026195545
0.7026193038
0.7026190553
0.7026188089
0.7026185647
0.7026183227
0.7026180829
0.7026178454
0.70261761
0.7026173768
0.7026171459
0.7026169172
0.7026166908
0.7026164666
0.7026162446
0.7026160248
0.7026158073
0.702615592
0.702615379
0.7026151681
0.7026149595
0.702614753
0.7026145487
0.7026143466
0.7026141466
0.7026139487
0.702613753
0.7026135593
0.7026133677
0.7026131781
0.7026129905
0.7026128048
0.7026126211
0.7026124393
0.7026122594
0.7026120813
0.7026119049
0.7026117303
0.7026115574
0.7026113861
0.7026112164
0.7026110482
0.7026108814
0.7026107161
0.7026105521
0.7026103894
0.7026102278
0.7026100674
0.702609908
0.7026097496
0.7026095921
0.7026094353
0.7026092793
0.7026091238
0.7026089689
0.7026088143
0.7026086601
0.702608506
0.7026083519
0.7026081978
0.7026080435
0.7026078889
0.7026077338
0.7026075781
0.7026074217
0.7026072644
0.702607106
0.7026069463
0.7026067853
0.7026066227
0.7026064583
0.702606292
0.7026061235
0.7026059527
0.7026057793
0.702605603
0.7026054238
0.7026052413
0.7026050552
0.7026048654
0.7026046715
0.7026044732
0.7026042703
0.7026040625
0.7026038494
0.7026036307
0.7026034061
0.7026031752
0.7026029377
0.702602693
0.702602441
0.702602181
0.7026019127
0.7026016356
0.7026013493
0.7026010532
0.7026007469
0.7026004297
0.7026001011
0.7025997605
0.7025994074
0.702599041
0.7025986606
0.7025982657
0.7025978554
0.702597429
0.7025969857
0.7025965246
0.7025960448
0.7025955455
0.7025950257
0.7025944844
0.7025939205
0.702593333
0.7025927206
0.7025920823
0.7025914166
0.7025907224
0.7025899982
0.7025892426
0.702588454
0.7025876309
0.7025867715
0.7025858742
0.702584937
0.7025839581
0.7025829354
0.7025818667
0.7025807498
0.7025795822
0.7025783616
0.7025770852
0.7025757502
0.7025743536
0.7025728924
0.7025713633
0.7025697627
0.7025680868
0.7025663319
0.7025644936
0.7025625674
0.7025605487
0.7025584324
0.7025562129
0.7025538845
0.702551441
0.7025488756
0.7025461811
0.7025433496
0.7025403729
0.7025372417
0.7025339461
0.7025304754
0.7025268176
0.70252296
0.7025188883
0.702514587
0.7025100387
0.7025052243
0.7025001224
0.7024947091
0.7024889574
0.702482837
0.7024763133
0.7024693468
0.7024618923
0.7024538971
0.7024453001
0.7024360295
0.7024260001
0.7024151099
0.7024032358
0.7023902268
0.7023758964
0.7023600096
0.7023422669
0.7023222788
0.7022995288
0.7022733174
0.7022426749
0.7022062271
0.7021619804
0.7021071237
0.7020379422
0.7019512364
0.7031294444
0.7031308947
0.7031338365
0.7031386056
0.7031454353
0.7031542553
0.7031645427
0.7031761211
0.7031893661
0.7032031368
0.7032150316
0.7032244777
0.7032321569
0.7032385831
0.7032440752
0.7032488425
0.7032530204
0.7032567143
0.7032600145
0.7032629839
0.7032656815
0.7032681507
0.7032704394
0.7032725932
0.7032746722
0.7032767607
0.7032790132
0.7032817013
0.7032852664
0.7032899732
0.7032952436
0.7032992244
0.703302668
0.7033063996
0.7033112303
0.7033178207
0.7033264049
0.7033367059
0.703347224
0.7033546783
0.7033595588
0.7033629021
0.7033653379
0.7033672059
0.7033686745
0.7033698815
0.7033709041
0.7033718004
0.7033725897
0.7033733012
0.7033739384
0.7033745237
0.7033750555
0.7033755503
0.7033760008
0.7033764126
0.7033768077
0.7033771776
0.7033775308
0.7033778558
0.7033781575
0.7033784524
0.7033787324
0.703379009
0.7033792718
0.7033795293
0.7033797682
0.7033799908
0.703380212
0.703380426
0.7033806431
0.7033808542
0.7033810683
0.7033812719
0.7033814662
0.7033816661
0.7033818627
0.7033820638
0.7033822542
0.703382436
0.7033826213
0.7033827974
0.703382965
0.703383139
0.7033833091
0.703383483
0.7033836467
0.7033838005
0.7033840025
0.703384202
0.7033844023
0.7033845892
0.7033847701
0.7033849306
0.7033850775
0.7033852089
0.7033853368
0.7033854535
0.7033855692
0.7033856747
0.7033857788
0.7033858678
0.7033859498
0.7033860217
0.7033860959
0.7033861654
0.7033862401
0.7033863381
0.7033864528
0.7033865873
0.7033867558
0.7033869499
0.7033871709
0.7033874341
0.7033877323
0.7033880709
0.7033884372
0.703388837
0.7033892567
0.7033897087
0.7033901863
0.7033906991
0.70339124
0.703391817
0.7033924532
0.7033931548
0.7033939421
0.7033948279
0.7033958473
0.7033970334
0.703398425
0.7034000769
0.7034020708
0.7034045572
0.7034077578
0.7034119256
0.7034172339
0.7034238107
0.7034318761
0.7034416513
0.7034532872
0.703466583
0.7034801373
0.7034905743
0.7034992236
0.7035074067
0.7035161322
0.7035263586
0.7035390142
0.7035543147
0.7035719453
0.7035906207
0.7036075612
0.7036243384
0.7036425884
0.7036622634
0.7036815017
0.7037004558
0.7037193078
0.7037367242
0.7037535968
0.7037698538
0.7037849013
0.7037977375
0.7038073117
0.7038149055
0.7038241994
0.7038361629
0.7038507801
0.7038678855
0.7038873726
0.7039092259
0.703933492
0.7039601608
0.7039886448
0.7040177421
0.7040451221
0.7040687806
0.7040888901
0.7041072758
0.7041273509
0.7041483038
0.7041665948
0.7041844173
0.7042059504
0.7042267721
0.7042495407
0.7042744392
0.7043000471
0.7043235083
0.7043447485
0.7043659211
0.7043899384
0.7044164132
0.7044496847
0.7044840568
0.7045165984
0.7045479247
0.7045759335
0.7046015411
0.7046317102
0.7046601741
0.7046825848
0.7047058354
0.7047226032
0.7046543232
0.7045554055
0.7044451548
0.7043209029
0.7041781019
0.7040152393
0.7038240299
0.7035990801
0.7033266415
0.7029930674
0.7025749609
0.7020474358
0.7013639599
0.7003736713
0.6987447388
0.696329443
0.6940576263
0.6918901057
0.690085316
0.6893972269
0.6896804878
0.6904261793
0.6913594347
0.6920078064
0.6933650874
0.6946553403
0.6959992822
0.6972507907
0.6983150115
0.6991762035
0.6998380353
0.7003555161
0.700758744
0.7010757462
0.7013270135
0.7015276617
0.7016885648
0.701821045
0.7019290415
0.7020192833
0.7020947545
0.7021588682
0.7022135112
0.7022604917
0.70230104
0.7023362712
0.7023669963
0.7023938858
0.7024174874
0.702438257
0.7024565936
0.7024727882
0.7024871124
0.7024997857
0.7025110036
0.7025209296
0.7025297101
0.7025374692
0.7025443184
0.7025503578
0.7025556828
0.7025603913
0.7025645923
0.7025684193
0.7025720144
0.7025754239
0.7025783787
0.7025809152
0.7025830187
0.7025847362
0.7025861096
0.7025872052
0.702588081
0.7025888097
0.7025894288
0.7025899554
0.7025904014
0.702590775
0.7025910832
0.702591332
0.7025915267
0.7025916718
0.7025915932
0.7025914095
0.7025912154
0.7025910126
0.7025908033
0.7025905882
0.7025903677
0.7025901422
0.7025899116
0.7025896766
0.7025894371
0.7025891932
0.7025889452
0.7025886932
0.7025884372
0.7025881775
0.7025879141
0.7025876473
0.702587377
0.7025871033
0.7025868265
0.7025865466
0.7025862636
0.7025859777
0.7025856889
0.7025853972
0.7025851029
0.7025848058
0.7025845061
0.7025842039
0.7025838991
0.7025835919
0.7025832824
0.7025829704
0.7025826562
0.7025823398
0.7025820212
0.7025817005
0.7025813778
0.7025810531
0.7025807264
0.7025803979
0.7025800675
0.7025797354
0.7025794017
0.7025790663
0.7025787293
0.7025783908
0.7025780509
0.7025777097
0.7025773671
0.7025770233
0.7025766782
0.7025763321
0.7025759848
0.7025756366
0.7025752874
0.7025749372
0.7025745863
0.7025742345
0.702573882
0.7025735289
0.7025731751
0.7025728207
0.7025724658
0.7025721105
0.7025717547
0.7025713986
0.7025710421
0.7025706855
0.7025703286
0.7025699715
0.7025696144
0.7025692572
0.7025689
0.7025685428
0.7025681858
0.7025678289
0.7025674722
0.7025671158
0.7025667597
0.7025664039
0.7025660486
0.7025656937
0.7025653393
0.7025649854
0.7025646322
0.7025642796
0.7025639278
0.7025635766
0.7025632263
0.7025628768
0.7025625283
0.7025621807
0.702561834
0.7025614885
0.702561144
0.7025608006
0.7025604585
0.7025601176
0.702559778
0.7025594397
0.7025591028
0.7025587673
0.7025584333
0.7025581008
0.7025577699
0.7025574406
0.7025571129
0.702556787
0.7025564628
0.7025561404
0.7025558198
0.7025555012
0.7025551844
0.7025548696
0.7025545568
0.702554246
0.7025539373
0.7025536307
0.7025533262
0.702553024
0.7025527239
0.7025524261
0.7025521305
0.7025518373
0.7025515463
0.7025512577
0.7025509715
0.7025506877
0.7025504063
0.7025501273
0.7025498508
0.7025495767
0.7025493051
0.7025490361
0.7025487695
0.7025485054
0.7025482438
0.7025479848
0.7025477283
0.7025474744
0.702547223
0.7025469741
0.7025467277
0.7025464839
0.7025462426
0.7025460038
0.7025457675
0.7025455337
0.7025453024
0.7025450735
0.7025448471
0.7025446231
0.7025444015
0.7025441823
0.7025439654
0.7025437509
0.7025435386
0.7025433287
0.7025431209
0.7025429153
0.7025427119
0.7025425105
0.7025423112
0.702542114
0.7025419186
0.7025417252
0.7025415336
0.7025413437
0.7025411556
0.7025409691
0.7025407842
0.7025406008
0.7025404187
0.7025402381
0.7025400586
0.7025398804
0.7025397031
0.7025395269
0.7025393515
0.7025391769
0.7025390029
0.7025388294
0.7025386564
0.7025384836
0.702538311
0.7025381385
0.7025379658
0.7025377928
0.7025376194
0.7025374454
0.7025372707
0.7025370951
0.7025369184
0.7025367404
0.702536561
0.7025363799
0.702536197
0.7025360119
0.7025358246
0.7025356347
0.7025354421
0.7025352464
0.7025350475
0.702534845
0.7025346386
0.7025344282
0.7025342134
0.7025339938
0.7025337691
0.7025335391
0.7025333033
0.7025330613
0.7025328129
0.7025325576
0.7025322949
0.7025320245
0.7025317459
0.7025314587
0.7025311622
0.7025308561
0.7025305398
0.7025302127
0.7025298743
0.702529524
0.702529161
0.7025287849
0.7025283948
0.7025279901
0.70252757
0.7025271337
0.7025266805
0.7025262094
0.7025257196
0.7025252101
0.70252468
0.7025241283
0.7025235538
0.7025229555
0.7025223322
0.7025216826
0.7025210056
0.7025202998
0.7025195637
0.7025187959
0.7025179949
0.7025171591
0.7025162867
0.7025153761
0.7025144252
0.7025134323
0.7025123952
0.7025113119
0.7025101799
0.702508997
0.7025077607
0.7025064683
0.702505117
0.702503704
0.702502226
0.70250068
0.7024990623
0.7024973695
0.7024955975
0.7024937424
0.7024917998
0.702489765
0.7024876332
0.7024853992
0.7024830574
0.7024806018
0.7024780261
0.7024753235
0.7024724867
0.7024695079
0.7024663785
0.7024630895
0.7024596309
0.7024559922
0.7024521616
0.7024481264
0.7024438729
0.7024393859
0.7024346488
0.7024296431
0.7024243486
0.7024187427
0.7024128003
0.7024064932
0.7023997899
0.7023926545
0.7023850465
0.7023769195
0.7023682204
0.7023588876
0.7023488499
0.7023380234
0.7023263093
0.7023135901
0.7022997246
0.7022845419
0.7022677706
0.7022492017
0.7022285306
0.702205359
0.7021791882
0.7021493992
0.7021152462
0.7020759098
0.702030715
0.7019798314
0.7019261748
0.7030257966
0.7030274815
0.7030307312
0.7030355828
0.7030420546
0.7030500458
0.7030593043
0.7030695938
0.7030806495
0.7030918097
0.7031021164
0.7031111364
0.7031189472
0.7031257401
0.7031316937
0.7031369533
0.7031416327
0.7031458262
0.7031496148
0.7031530651
0.7031562355
0.7031591761
0.7031619373
0.7031645717
0.7031671418
0.7031697284
0.7031724466
0.703175454
0.7031789037
0.7031828226
0.703186937
0.7031907879
0.7031945509
0.7031986056
0.7032033493
0.7032090498
0.7032157051
0.7032230246
0.7032301756
0.7032360646
0.7032405688
0.70324401
0.7032467077
0.7032488939
0.7032559454
0.7032620144
0.7032671961
0.7032716483
0.7032754948
0.7032788327
0.7032817429
0.7032842924
0.7032865367
0.7032885235
0.7032902923
0.7032918759
0.703293302
0.7032945913
0.7032957624
0.7032968321
0.7032978153
0.703298724
0.7032995678
0.7033003551
0.7033010919
0.7033017833
0.7033024332
0.7033030486
0.7033036357
0.7033041996
0.7033047447
0.7033052742
0.703305792
0.7033063001
0.7033067999
0.7033072921
0.7033077762
0.7033082527
0.7033087212
0.7033091824
0.7033096363
0.7033100819
0.7033105186
0.7033109462
0.7033113629
0.7033117689
0.7033121645
0.7033125515
0.7033129376
0.7033133075
0.7033136506
0.7033139577
0.703314224
0.7033144099
0.703314491
0.7033145263
0.7033145166
0.7033144617
0.703314362
0.7033142157
0.7033140202
0.7033137703
0.7033134651
0.7033131035
0.7033126679
0.7033121979
0.7033117115
0.7033112204
0.7033107314
0.7033102486
0.7033097745
0.7033093095
0.7033088553
0.7033084191
0.7033080041
0.703307595
0.7033071761
0.7033067385
0.703306275
0.7033057862
0.7033052736
0.7033047423
0.7033042008
0.7033036654
0.7033031627
0.7033027233
0.7033023824
0.7033021819
0.7033021743
0.7033024259
0.7033030243
0.7033041332
0.7033069793
0.7033103153
0.7033141846
0.7033188642
0.7033244961
0.7033311855
0.7033411046
0.7033529257
0.7033662878
0.7033804037
0.7033936667
0.7034040807
0.7034119113
0.7034181141
0.7034236992
0.7034298632
0.7034422953
0.7034563667
0.7034718045
0.7034879426
0.7035039632
0.7035201739
0.7035371008
0.7035546377
0.7035722458
0.703589794
0.7036072666
0.703624612
0.7036417205
0.7036583219
0.7036731389
0.703686282
0.7036981019
0.7037094202
0.7037216886
0.7037354377
0.703751128
0.7037687919
0.7037883863
0.7038098447
0.7038330438
0.7038577334
0.7038833994
0.7039091724
0.7039338168
0.7039564746
0.703977245
0.703996878
0.7040163003
0.7040351275
0.7040521425
0.704066665
0.7040774486
0.7040949124
0.7041138736
0.7041334015
0.7041527374
0.7041704394
0.7041869831
0.704202992
0.7042191264
0.7042342075
0.7042516846
0.7042736861
0.7042930865
0.7043084911
0.7043193936
0.7043285592
0.7043387467
0.7043433582
0.704340287
0.7043365917
0.7043208662
0.7042816266
0.7041431131
0.7039892053
0.703815259
0.703618471
0.7033949591
0.7031394527
0.702848828
0.7025205781
0.7021613512
0.7017860651
0.7014160876
0.7010191405
0.7004688471
0.6995034718
0.6980010907
0.6958184663
0.6932144777
0.6913189932
0.690203746
0.6899603617
0.6902981554
0.6910568717
0.6918944928
0.6925503154
0.6932732426
0.6946669552
0.6961213575
0.6973418376
0.6983397801
0.6991384192
0.6997747447
0.7002751594
0.700670376
0.7009846353
0.7012352133
0.7014367073
0.7016039732
0.7017380668
0.7018506864
0.7019437953
0.7020224132
0.7020887234
0.7021453156
0.702193746
0.7022354326
0.7022714865
0.7023027555
0.7023300093
0.7023538025
0.7023746576
0.7023929558
0.7024090599
0.7024232427
0.7024357592
0.7024468106
0.7024565812
0.7024652237
0.7024728782
0.702479665
0.7024856955
0.7024910681
0.7024958716
0.7025001782
0.7025040335
0.7025074463
0.7025104107
0.7025129797
0.7025151858
0.7025170808
0.7025187069
0.7025201093
0.7025213237
0.7025223814
0.7025233014
0.7025240992
0.7025247875
0.7025253775
0.7025258787
0.7025262999
0.7025266486
0.7025268959
0.7025267039
0.7025265024
0.7025262924
0.7025260747
0.7025258501
0.7025256188
0.7025253813
0.702525138
0.7025248888
0.702524634
0.7025243737
0.7025241082
0.7025238379
0.7025235628
0.7025232832
0.7025229993
0.702522711
0.7025224187
0.7025221225
0.7025218224
0.7025215186
0.7025212111
0.7025209002
0.7025205859
0.7025202682
0.7025199473
0.7025196232
0.7025192961
0.7025189659
0.7025186328
0.7025182968
0.7025179579
0.7025176164
0.7025172721
0.7025169252
0.7025165757
0.7025162237
0.7025158693
0.7025155126
0.7025151535
0.7025147922
0.7025144287
0.7025140631
0.7025136956
0.702513326
0.7025129546
0.7025125813
0.7025122064
0.7025118297
0.7025114514
0.7025110716
0.7025106904
0.7025103077
0.7025099237
0.7025095385
0.702509152
0.7025087644
0.7025083758
0.7025079861
0.7025075955
0.702507204
0.7025068116
0.7025064186
0.7025060248
0.7025056304
0.7025052353
0.7025048398
0.7025044438
0.7025040474
0.7025036507
0.7025032536
0.7025028564
0.7025024589
0.7025020614
0.7025016638
0.7025012662
0.7025008686
0.7025004712
0.7025000739
0.7024996769
0.7024992801
0.7024988837
0.7024984877
0.7024980921
0.702497697
0.7024973025
0.7024969086
0.7024965154
0.702496123
0.7024957313
0.7024953404
0.7024949505
0.7024945614
0.7024941734
0.7024937865
0.7024934007
0.702493016
0.7024926326
0.7024922504
0.7024918696
0.7024914902
0.7024911122
0.7024907357
0.7024903607
0.7024899874
0.7024896157
0.7024892457
0.7024888774
0.702488511
0.7024881465
0.7024877838
0.7024874232
0.7024870645
0.7024867079
0.7024863534
0.7024860011
0.702485651
0.7024853031
0.7024849576
0.7024846143
0.7024842734
0.702483935
0.702483599
0.7024832655
0.7024829345
0.7024826061
0.7024822802
0.702481957
0.7024816364
0.7024813185
0.7024810033
0.7024806908
0.702480381
0.702480074
0.7024797698
0.7024794684
0.7024791698
0.702478874
0.702478581
0.7024782909
0.7024780036
0.7024777192
0.7024774377
0.702477159
0.7024768832
0.7024766102
0.7024763401
0.7024760728
0.7024758083
0.7024755467
0.7024752879
0.7024750319
0.7024747787
0.7024745282
0.7024742805
0.7024740355
0.7024737932
0.7024735535
0.7024733165
0.702473082
0.7024728501
0.7024726208
0.7024723938
0.7024721694
0.7024719472
0.7024717275
0.7024715099
0.7024712946
0.7024710814
0.7024708703
0.7024706613
0.7024704541
0.7024702488
0.7024700453