/*--------------------------------*- C++ -*----------------------------------*\
| =========                 |                                                 |
| \\      /  F ield         | OpenFOAM: The Open Source CFD Toolbox           |
|  \\    /   O peration     | Version:  v2006                                 |
|   \\  /    A nd           | Website:  www.openfoam.com                      |
|    \\/     M anipulation  |                                                 |
\*---------------------------------------------------------------------------*/
FoamFile
{
    version     2.0;
    format      ascii;
    class       volScalarField;
    location    "0.075";
    object      O;
}
// * * * * * * * * * * * * * * * * * * * * * * * * * * * * * * * * * * * * * //

dimensions      [0 0 0 0 0 0 0];


internalField   nonuniform List<scalar> 
72000
(
8.283841231e-07
8.293667953e-07
8.311958722e-07
8.325844057e-07
8.333419939e-07
8.330944438e-07
8.351506664e-07
8.410040067e-07
8.369961638e-07
8.264408398e-07
8.225696055e-07
8.236662758e-07
8.245973773e-07
8.2540901e-07
8.259284603e-07
8.266233195e-07
8.271575358e-07
8.27407557e-07
8.279094892e-07
8.281376389e-07
8.28546555e-07
8.286980261e-07
8.289427268e-07
8.289112344e-07
8.290246933e-07
8.289884821e-07
8.288355366e-07
8.285870101e-07
8.2629811e-07
8.194485348e-07
8.054454458e-07
8.034882129e-07
8.017217316e-07
7.998321595e-07
7.964391535e-07
7.895074643e-07
7.788723743e-07
7.636460799e-07
7.419604921e-07
7.345586624e-07
7.304829901e-07
7.274141178e-07
7.249908128e-07
7.229515739e-07
7.213928666e-07
7.200673072e-07
7.189395422e-07
7.181271836e-07
7.173395865e-07
7.1685176e-07
7.162761192e-07
7.159990344e-07
7.155717602e-07
7.154244891e-07
7.152058059e-07
7.150427599e-07
7.149602385e-07
7.147952824e-07
7.148313612e-07
7.148126645e-07
7.147157571e-07
7.147862195e-07
7.147515949e-07
7.149158846e-07
7.14875091e-07
7.150158324e-07
7.150578471e-07
7.150766578e-07
7.152142789e-07
7.152053712e-07
7.153887028e-07
7.154584813e-07
7.156047418e-07
7.156785514e-07
7.157607566e-07
7.159183497e-07
7.159401797e-07
7.16170959e-07
7.162625755e-07
7.163439478e-07
7.164872288e-07
7.166284693e-07
7.166455752e-07
7.168721438e-07
7.169559592e-07
7.171527702e-07
7.173023538e-07
7.173917748e-07
7.176221931e-07
7.176703473e-07
7.17912168e-07
7.180526574e-07
7.183651578e-07
7.184812343e-07
7.187886359e-07
7.189270632e-07
7.192815986e-07
7.194785996e-07
7.197686176e-07
7.200188377e-07
7.203653144e-07
7.206175644e-07
7.209816378e-07
7.212100478e-07
7.216441936e-07
7.219566557e-07
7.222257689e-07
7.226859628e-07
7.230609719e-07
7.233843046e-07
7.238845614e-07
7.242922261e-07
7.247328538e-07
7.252924963e-07
7.257359769e-07
7.263425395e-07
7.269114852e-07
7.275550375e-07
7.281823963e-07
7.28961423e-07
7.296194766e-07
7.304472601e-07
7.311996287e-07
7.319467592e-07
7.328448671e-07
7.336784443e-07
7.346991488e-07
7.355811056e-07
7.36534722e-07
7.375885477e-07
7.386622864e-07
7.396769901e-07
7.407944703e-07
7.417399124e-07
7.427151154e-07
7.428252785e-07
7.421928537e-07
7.409187956e-07
7.389515958e-07
7.360694282e-07
7.317938279e-07
7.251417597e-07
7.141701038e-07
7.140678953e-07
7.152055426e-07
7.170860464e-07
7.194694702e-07
7.223458845e-07
7.247418145e-07
7.267032273e-07
7.276225965e-07
7.243145714e-07
7.281558129e-07
7.321813536e-07
7.342291835e-07
7.335725485e-07
7.367450109e-07
7.400244535e-07
7.43543642e-07
7.471079123e-07
7.508150735e-07
7.546082302e-07
7.585479322e-07
7.627830981e-07
7.702303015e-07
7.814432016e-07
7.898843575e-07
7.977958551e-07
8.058547954e-07
8.140418754e-07
8.223737369e-07
8.308345845e-07
8.393257956e-07
8.475526599e-07
8.54777941e-07
8.6136225e-07
8.688116704e-07
8.799225936e-07
8.927234417e-07
9.080881056e-07
9.198159541e-07
9.291231787e-07
9.429313272e-07
9.537738892e-07
9.679618713e-07
9.846409903e-07
1.000404493e-06
1.01671218e-06
1.034628867e-06
1.058007781e-06
1.083743002e-06
1.112090633e-06
1.140428378e-06
1.168914263e-06
1.198206331e-06
1.230733323e-06
1.267619918e-06
1.306164254e-06
1.348140277e-06
1.393444269e-06
1.442474039e-06
1.501333091e-06
1.567163347e-06
1.639112838e-06
1.719781112e-06
1.818349585e-06
1.935740824e-06
2.069502759e-06
2.224916392e-06
2.421153124e-06
2.655489e-06
2.936295488e-06
3.275646583e-06
3.691599457e-06
4.214737776e-06
4.877309631e-06
5.720073628e-06
6.784743241e-06
8.069425751e-06
9.894656905e-06
1.043597402e-05
4.583099207e-08
5.499420984e-09
1.423172227e-09
3.887184424e-10
1.942550889e-10
1.105640868e-10
6.071070423e-11
3.833957241e-11
2.76040993e-11
1.952578748e-11
1.376861335e-11
1.022798742e-11
7.634494788e-12
5.468503586e-12
3.989108546e-12
2.946737196e-12
2.196061267e-12
1.647789923e-12
1.243912023e-12
9.727172449e-13
7.770568418e-13
6.226671638e-13
5.035903055e-13
4.118088597e-13
3.402911188e-13
2.838073265e-13
2.386194398e-13
2.020426036e-13
1.721185186e-13
1.474030257e-13
1.268169002e-13
1.095423823e-13
9.495108531e-14
8.255337857e-14
7.196363689e-14
6.287483612e-14
5.504066372e-14
4.826197026e-14
4.237614719e-14
3.724949756e-14
3.277139032e-14
2.884968071e-14
2.540721519e-14
2.23790515e-14
1.971028352e-14
1.735425859e-14
1.526834263e-14
1.341898485e-14
1.179495063e-14
1.035200172e-14
9.053111827e-15
7.891337849e-15
6.854449671e-15
5.929651488e-15
5.10408742e-15
4.366076458e-15
3.713350217e-15
3.149578886e-15
2.66314608e-15
2.236220634e-15
1.858435347e-15
1.522654565e-15
1.22377866e-15
9.575924552e-16
7.206048517e-16
5.09626937e-16
3.218496539e-16
1.545461538e-16
5.05243781e-18
2.430767853e-19
2.380187759e-19
2.334937362e-19
2.294347032e-19
2.257874858e-19
2.225075966e-19
2.195561819e-19
2.168992947e-19
2.145074954e-19
2.12354235e-19
2.104156424e-19
2.086702626e-19
2.070988138e-19
2.05683971e-19
2.044101476e-19
2.032632799e-19
2.022306965e-19
2.013010066e-19
2.004639915e-19
1.997104912e-19
1.990322919e-19
1.98421956e-19
1.978726832e-19
1.973783973e-19
1.969336642e-19
1.965336063e-19
1.961738338e-19
1.958503913e-19
1.955597154e-19
1.952985989e-19
1.950641587e-19
1.948538024e-19
1.946651978e-19
1.944962434e-19
1.943450449e-19
1.942098934e-19
1.940892473e-19
1.93981717e-19
1.938860514e-19
1.938011251e-19
1.937259258e-19
1.93659543e-19
1.936011567e-19
1.935500288e-19
1.935054925e-19
1.934669462e-19
1.934338464e-19
1.934057016e-19
1.933820677e-19
1.933625425e-19
1.933467625e-19
1.93334399e-19
1.933251546e-19
1.933187608e-19
1.933149748e-19
1.933135769e-19
1.933143689e-19
1.933171718e-19
1.933218231e-19
1.933281764e-19
1.933360986e-19
1.933454689e-19
1.933561764e-19
1.933681161e-19
1.933811823e-19
1.933952704e-19
1.934103239e-19
1.934262824e-19
1.934430881e-19
1.934606786e-19
1.934790026e-19
1.934980099e-19
1.935176544e-19
1.935378943e-19
1.935586919e-19
1.935800144e-19
1.936018343e-19
1.936241276e-19
1.936468634e-19
1.936700038e-19
1.936935162e-19
1.937173721e-19
1.937415454e-19
1.937660121e-19
1.937907491e-19
1.938157345e-19
1.93840947e-19
1.938663657e-19
1.938919703e-19
1.939177411e-19
1.939436585e-19
1.939697032e-19
1.939958564e-19
1.940220988e-19
1.94048412e-19
1.940747774e-19
1.941011764e-19
1.941275901e-19
1.941539998e-19
1.94180387e-19
1.942067327e-19
1.942330186e-19
1.94259225e-19
1.942853329e-19
1.94311323e-19
1.943371761e-19
1.943628716e-19
1.943883895e-19
1.94413709e-19
1.944388089e-19
1.944636678e-19
1.944882632e-19
1.945125725e-19
1.945365729e-19
1.945602414e-19
1.945835549e-19
1.946064907e-19
1.946290265e-19
1.946511402e-19
1.946728104e-19
1.946940165e-19
1.947147382e-19
1.94734955e-19
1.947546469e-19
1.947737929e-19
1.947923727e-19
1.948103648e-19
1.948277476e-19
1.948444991e-19
1.948605976e-19
1.948760199e-19
1.948907447e-19
1.949047406e-19
1.949180011e-19
1.9493049e-19
1.949421879e-19
1.949530715e-19
1.949631174e-19
1.949723032e-19
1.949806062e-19
1.949880043e-19
1.949944764e-19
1.950000019e-19
1.950045612e-19
1.950081351e-19
1.950107043e-19
1.950122504e-19
1.95012755e-19
1.95012199e-19
1.950105639e-19
1.950078301e-19
1.950039771e-19
1.949989836e-19
1.949928284e-19
1.949854902e-19
1.94976925e-19
1.9496715e-19
1.94956107e-19
1.949437784e-19
1.949301355e-19
1.949151511e-19
1.948988067e-19
1.948810733e-19
1.948619805e-19
1.94841465e-19
1.948195152e-19
1.947961098e-19
1.947712267e-19
1.947448446e-19
1.947169484e-19
1.94687508e-19
1.946565021e-19
1.946239087e-19
1.945897064e-19
1.945538734e-19
1.945163865e-19
1.944772231e-19
1.94436358e-19
1.943937633e-19
1.943494178e-19
1.943032981e-19
1.942553809e-19
1.942056416e-19
1.94154056e-19
1.941005991e-19
1.940452458e-19
1.939879705e-19
1.939287474e-19
1.938675504e-19
1.938043529e-19
1.937391279e-19
1.936718478e-19
1.936024842e-19
1.935310088e-19
1.934573919e-19
1.933816038e-19
1.933036137e-19
1.9322339e-19
1.931409005e-19
1.930561117e-19
1.92968989e-19
1.928794975e-19
1.927876e-19
1.926932588e-19
1.925964338e-19
1.92497084e-19
1.923951669e-19
1.922906372e-19
1.921834491e-19
1.920735543e-19
1.919609025e-19
1.918454414e-19
1.91727117e-19
1.916058729e-19
1.914816502e-19
1.913543882e-19
1.91224023e-19
1.910904888e-19
1.909537171e-19
1.908136375e-19
1.906701769e-19
1.905232604e-19
1.903728109e-19
1.902187499e-19
1.900609966e-19
1.898994685e-19
1.897340791e-19
1.895647385e-19
1.893913516e-19
1.892138172e-19
1.890320269e-19
1.888458652e-19
1.886552096e-19
1.8845993e-19
1.882598881e-19
1.880549334e-19
1.878448986e-19
1.876296307e-19
1.874089439e-19
1.871826407e-19
1.869505063e-19
1.867122928e-19
1.864677528e-19
1.862166071e-19
1.859585515e-19
1.856932612e-19
1.854204048e-19
1.851395584e-19
1.848503553e-19
1.845523743e-19
1.842451683e-19
1.839282653e-19
1.836011665e-19
1.832633418e-19
1.829142271e-19
1.825532194e-19
1.821797046e-19
1.817929472e-19
1.813922352e-19
1.809767634e-19
1.805456899e-19
1.800982824e-19
1.796334005e-19
1.791499321e-19
1.786467258e-19
1.781225269e-19
1.775759532e-19
1.770054728e-19
1.764093893e-19
1.757858312e-19
1.751327449e-19
1.744478939e-19
1.737288552e-19
1.729730143e-19
1.721775186e-19
1.713389823e-19
1.704544914e-19
1.695207641e-19
1.68533924e-19
1.674895916e-19
1.6638298e-19
1.652087615e-19
1.639609986e-19
1.626330986e-19
1.612177573e-19
1.597069293e-19
1.580920262e-19
1.563635506e-19
1.545109776e-19
1.525225943e-19
1.503853457e-19
1.480847124e-19
1.456045958e-19
1.429274096e-19
1.400341938e-19
1.369046041e-19
1.33517187e-19
1.298501965e-19
1.258831473e-19
1.215995125e-19
1.169894339e-19
1.120614112e-19
1.068517617e-19
1.014541708e-19
9.605825077e-20
9.103871911e-20
8.698692292e-20
8.463665356e-20
1.25953065e-15
3.652435878e-15
1.00140672e-06
1.001976675e-06
1.00294753e-06
1.003878042e-06
1.004544111e-06
1.004931514e-06
1.005821414e-06
1.007289628e-06
1.005584177e-06
1.001058862e-06
9.983652375e-07
9.977331295e-07
9.977460315e-07
9.980073718e-07
9.983605703e-07
9.987199461e-07
9.99079217e-07
9.994187699e-07
9.997033854e-07
9.999441282e-07
1.000113935e-06
1.000218469e-06
1.000224596e-06
1.000120751e-06
9.998586685e-07
9.993730128e-07
9.985205667e-07
9.970082352e-07
9.940922428e-07
9.890519805e-07
9.822945051e-07
9.783936665e-07
9.75204979e-07
9.717370822e-07
9.669997401e-07
9.600618038e-07
9.505848148e-07
9.385729313e-07
9.251950388e-07
9.166722347e-07
9.110585917e-07
9.069886789e-07
9.038979669e-07
9.014960628e-07
8.99559598e-07
8.98049428e-07
8.968868284e-07
8.959546755e-07
8.952620228e-07
8.947249038e-07
8.943648789e-07
8.941091096e-07
8.939806604e-07
8.939174556e-07
8.93960709e-07
8.94104053e-07
8.942619942e-07
8.944896486e-07
8.947346335e-07
8.950493268e-07
8.954264314e-07
8.957994413e-07
8.962239503e-07
8.966439833e-07
8.971084688e-07
8.975625695e-07
8.980632633e-07
8.986085041e-07
8.9914113e-07
8.9970812e-07
9.002634218e-07
9.008553673e-07
9.014280376e-07
9.020417794e-07
9.02697802e-07
9.033304449e-07
9.039949327e-07
9.046401288e-07
9.053267945e-07
9.060510633e-07
9.067504921e-07
9.074916797e-07
9.082735233e-07
9.09037139e-07
9.098383359e-07
9.106261163e-07
9.114629814e-07
9.123531764e-07
9.132468851e-07
9.141912975e-07
9.151364754e-07
9.161419923e-07
9.171542398e-07
9.182269483e-07
9.193097809e-07
9.204553896e-07
9.216130406e-07
9.228336858e-07
9.240658021e-07
9.253666611e-07
9.266800913e-07
9.282437286e-07
9.300810151e-07
9.320048496e-07
9.339321852e-07
9.359570544e-07
9.380756732e-07
9.40192359e-07
9.424020166e-07
9.447065598e-07
9.470154656e-07
9.49423793e-07
9.519430355e-07
9.544784704e-07
9.571195593e-07
9.59793488e-07
9.625864948e-07
9.654191406e-07
9.683853994e-07
9.71397266e-07
9.745357337e-07
9.777224942e-07
9.810535611e-07
9.845335184e-07
9.880665211e-07
9.917386456e-07
9.954825485e-07
9.99380121e-07
1.003337268e-06
1.007340958e-06
1.01138119e-06
1.015433855e-06
1.019460316e-06
1.023371057e-06
1.027024542e-06
1.030092789e-06
1.032484874e-06
1.034189122e-06
1.035147124e-06
1.035177109e-06
1.034004066e-06
1.031439146e-06
1.028165256e-06
1.030193195e-06
1.034644917e-06
1.04046923e-06
1.047316071e-06
1.054686576e-06
1.061877574e-06
1.068770657e-06
1.075257732e-06
1.081709552e-06
1.091334618e-06
1.103182783e-06
1.114822514e-06
1.125001346e-06
1.136197626e-06
1.148191868e-06
1.160752968e-06
1.173864236e-06
1.187540741e-06
1.201923688e-06
1.217101298e-06
1.233658703e-06
1.253233517e-06
1.275856851e-06
1.297922367e-06
1.31999973e-06
1.342529776e-06
1.36566638e-06
1.389466235e-06
1.413923265e-06
1.438945197e-06
1.464306445e-06
1.491944851e-06
1.522171849e-06
1.554709992e-06
1.591617629e-06
1.633259842e-06
1.679660021e-06
1.726144146e-06
1.773595916e-06
1.825065982e-06
1.877651703e-06
1.935652088e-06
1.999102434e-06
2.070196828e-06
2.149743172e-06
2.233972243e-06
2.32703593e-06
2.428913841e-06
2.540316766e-06
2.658288016e-06
2.784426627e-06
2.931814015e-06
3.10028347e-06
3.286359348e-06
3.488943786e-06
3.714050403e-06
3.97147285e-06
4.291010224e-06
4.647151926e-06
5.048300823e-06
5.506190822e-06
6.091059878e-06
6.865901902e-06
7.772120746e-06
8.913733429e-06
1.032366633e-05
1.201874408e-05
1.41982923e-05
1.6902928e-05
2.020847564e-05
2.447438326e-05
2.955863845e-05
3.548701886e-05
4.168938653e-05
4.417819322e-05
3.315874513e-05
1.13168627e-05
1.680459728e-06
1.312012285e-07
2.056347152e-08
7.006583482e-09
2.020600563e-09
1.187829976e-09
2.87056818e-10
9.40013762e-11
7.470093636e-11
5.709828842e-11
4.313244891e-11
3.202859787e-11
2.254759635e-11
1.561036657e-11
1.079904655e-11
7.548873697e-12
5.566230141e-12
4.280173299e-12
3.339838891e-12
2.644572772e-12
2.123576929e-12
1.730041436e-12
1.426931015e-12
1.190148453e-12
1.002025344e-12
8.504098825e-13
7.265186293e-13
6.24153035e-13
5.387365817e-13
4.668712519e-13
4.059686294e-13
3.540379974e-13
3.095200392e-13
2.711752089e-13
2.380114721e-13
2.092275797e-13
1.841608083e-13
1.622661967e-13
1.43091941e-13
1.262602478e-13
1.114533229e-13
9.840254537e-14
8.687950657e-14
7.668925616e-14
6.766466095e-14
5.966196675e-14
5.255721614e-14
4.624311583e-14
4.063496028e-14
3.566017027e-14
3.121850075e-14
2.722848818e-14
2.365611424e-14
2.046107715e-14
1.760678711e-14
1.505934746e-14
1.279614989e-14
1.080306403e-14
9.066299501e-15
7.548594396e-15
6.209428472e-15
5.021105849e-15
3.963479072e-15
3.021168408e-15
2.181489142e-15
1.433564557e-15
7.678301224e-16
1.753723041e-16
6.499126019e-19
6.304711399e-19
6.130591859e-19
5.974747352e-19
5.834885967e-19
5.709171343e-19
5.596042245e-19
5.494186139e-19
5.402418306e-19
5.319695193e-19
5.245122513e-19
5.177882017e-19
5.117238516e-19
5.062531307e-19
5.013166651e-19
4.968611334e-19
4.928385946e-19
4.892057341e-19
4.859235151e-19
4.829568484e-19
4.802742721e-19
4.778475878e-19
4.756515768e-19
4.736633979e-19
4.718619742e-19
4.702286236e-19
4.687466416e-19
4.674010282e-19
4.661782783e-19
4.650662177e-19
4.640538755e-19
4.631313808e-19
4.622898614e-19
4.61521346e-19
4.608186638e-19
4.601753576e-19
4.59585606e-19
4.590441599e-19
4.585462851e-19
4.58087718e-19
4.576646209e-19
4.572735469e-19
4.569113978e-19
4.565753915e-19
4.562630265e-19
4.559720512e-19
4.557004378e-19
4.554463569e-19
4.552081604e-19
4.549843596e-19
4.547736115e-19
4.545747032e-19
4.543865404e-19
4.542081343e-19
4.540385947e-19
4.538771189e-19
4.537229834e-19
4.53575536e-19
4.534341904e-19
4.532984177e-19
4.531677423e-19
4.530417358e-19
4.529200114e-19
4.528022203e-19
4.526880468e-19
4.525771965e-19
4.524693687e-19
4.52364219e-19
4.522616426e-19
4.521614716e-19
4.520635373e-19
4.519676808e-19
4.518737585e-19
4.517816381e-19
4.516911999e-19
4.516023357e-19
4.515149498e-19
4.51428962e-19
4.513443101e-19
4.512609499e-19
4.511788111e-19
4.510977887e-19
4.510178032e-19
4.509387905e-19
4.50860694e-19
4.507834615e-19
4.507070443e-19
4.506313967e-19
4.505564747e-19
4.504822363e-19
4.504086419e-19
4.503356518e-19
4.502632283e-19
4.501913341e-19
4.501199335e-19
4.500489907e-19
4.499784699e-19
4.49908337e-19
4.498385575e-19
4.497690961e-19
4.496999192e-19
4.49630992e-19
4.495622803e-19
4.494937499e-19
4.494253656e-19
4.493570917e-19
4.492888942e-19
4.492207359e-19
4.491525805e-19
4.490843896e-19
4.490161235e-19
4.48947742e-19
4.488792024e-19
4.488104614e-19
4.487414728e-19
4.486721899e-19
4.486025661e-19
4.485325533e-19
4.484621047e-19
4.483911745e-19
4.483197166e-19
4.482476883e-19
4.481750467e-19
4.481017506e-19
4.48027759e-19
4.479530292e-19
4.478775181e-19
4.478011811e-19
4.477239711e-19
4.47645839e-19
4.47566735e-19
4.474866069e-19
4.474054013e-19
4.47323063e-19
4.472395359e-19
4.471547661e-19
4.470686936e-19
4.469812595e-19
4.468924033e-19
4.468020655e-19
4.46710186e-19
4.466167055e-19
4.465215654e-19
4.464247083e-19
4.463260786e-19
4.462256229e-19
4.461232877e-19
4.460190205e-19
4.459127687e-19
4.458044791e-19
4.456940974e-19
4.455815682e-19
4.454668326e-19
4.453498287e-19
4.452304901e-19
4.451087471e-19
4.449845265e-19
4.448577502e-19
4.44728348e-19
4.445962307e-19
4.444613109e-19
4.443234874e-19
4.441826636e-19
4.440387956e-19
4.438916964e-19
4.437416084e-19
4.435881823e-19
4.434314219e-19
4.432712377e-19
4.431075413e-19
4.429402425e-19
4.427692952e-19
4.425945636e-19
4.424159653e-19
4.422334062e-19
4.420467938e-19
4.418560346e-19
4.416610224e-19
4.414616634e-19
4.412578422e-19
4.410494286e-19
4.408363302e-19
4.406184311e-19
4.403956181e-19
4.401677732e-19
4.399347744e-19
4.396964972e-19
4.394528141e-19
4.392035935e-19
4.389487009e-19
4.386879987e-19
4.384213444e-19
4.381485922e-19
4.378695916e-19
4.375841877e-19
4.372922212e-19
4.36993527e-19
4.366879364e-19
4.363752736e-19
4.360553575e-19
4.357280012e-19
4.353930112e-19
4.350501871e-19
4.346993206e-19
4.34340196e-19
4.339725889e-19
4.335962658e-19
4.332109839e-19
4.328164905e-19
4.324125214e-19
4.319988031e-19
4.315750498e-19
4.311409645e-19
4.306962376e-19
4.302405474e-19
4.297735582e-19
4.292949208e-19
4.288042712e-19
4.283012296e-19
4.277854012e-19
4.27256375e-19
4.267137241e-19
4.261570054e-19
4.255857595e-19
4.249995116e-19
4.243977701e-19
4.237800275e-19
4.23145757e-19
4.224944107e-19
4.218254162e-19
4.211381705e-19
4.204320381e-19
4.197063472e-19
4.189603873e-19
4.181934099e-19
4.174046267e-19
4.165932108e-19
4.157582761e-19
4.148988326e-19
4.140139893e-19
4.13102666e-19
4.121637501e-19
4.111960646e-19
4.101982505e-19
4.091689915e-19
4.081068081e-19
4.070101153e-19
4.058772217e-19
4.04706495e-19
4.034957289e-19
4.022431297e-19
4.009465546e-19
3.996037705e-19
3.982124267e-19
3.967700436e-19
3.952740009e-19
3.937215246e-19
3.921096744e-19
3.904353306e-19
3.886951568e-19
3.868856031e-19
3.850028459e-19
3.830427277e-19
3.810005994e-19
3.788720893e-19
3.76652406e-19
3.743363109e-19
3.719181149e-19
3.693916184e-19
3.667500456e-19
3.639859854e-19
3.61091349e-19
3.580573416e-19
3.54874448e-19
3.515324221e-19
3.480202859e-19
3.443263844e-19
3.404386458e-19
3.363431233e-19
3.320256477e-19
3.274701201e-19
3.226586262e-19
3.175719381e-19
3.121887951e-19
3.064857058e-19
3.004368279e-19
2.940137445e-19
2.871851699e-19
2.799183253e-19
2.721770472e-19
2.639217379e-19
2.551088819e-19
2.456906521e-19
2.356147444e-19
2.248240987e-19
2.132577866e-19
2.008521833e-19
1.875415171e-19
1.732599851e-19
1.579464201e-19
1.415522356e-19
1.240544689e-19
1.054741982e-19
8.591296209e-20
6.561722356e-20
4.508003704e-20
2.517493395e-20
7.567462745e-21
3.556118295e-22
3.661992417e-22
3.795513605e-22
9.571694049e-21
1.314666492e-06
1.315075965e-06
1.315761109e-06
1.316492372e-06
1.317096604e-06
1.317530679e-06
1.317951275e-06
1.31809465e-06
1.31687823e-06
1.314351138e-06
1.312334809e-06
1.31136882e-06
1.311063029e-06
1.311126106e-06
1.311393367e-06
1.311751713e-06
1.312152669e-06
1.312555745e-06
1.312915448e-06
1.313214724e-06
1.313419372e-06
1.313511272e-06
1.313447161e-06
1.313187259e-06
1.312654094e-06
1.311743073e-06
1.310275254e-06
1.307977695e-06
1.304472218e-06
1.299588094e-06
1.293896104e-06
1.288989621e-06
1.284326062e-06
1.279190958e-06
1.272855944e-06
1.264742979e-06
1.25471513e-06
1.243184077e-06
1.231503446e-06
1.222259417e-06
1.215330937e-06
1.210102673e-06
1.206109994e-06
1.203040469e-06
1.200675886e-06
1.198889925e-06
1.19757485e-06
1.196620171e-06
1.195985522e-06
1.195599681e-06
1.195447859e-06
1.195472949e-06
1.195671044e-06
1.195999314e-06
1.196471131e-06
1.19706946e-06
1.197744976e-06
1.198508835e-06
1.199334693e-06
1.200248505e-06
1.201242101e-06
1.202276077e-06
1.203366604e-06
1.204486835e-06
1.205658049e-06
1.206858152e-06
1.208119174e-06
1.209437063e-06
1.210777639e-06
1.212159015e-06
1.213557207e-06
1.214994721e-06
1.216450893e-06
1.21795954e-06
1.219519092e-06
1.221094802e-06
1.222707192e-06
1.224337585e-06
1.226021721e-06
1.227757857e-06
1.229517082e-06
1.231332105e-06
1.233203492e-06
1.235098829e-06
1.2370418e-06
1.239015328e-06
1.241056591e-06
1.243168083e-06
1.245801621e-06
1.248547544e-06
1.251344913e-06
1.254233367e-06
1.257188088e-06
1.260250527e-06
1.263395678e-06
1.266648986e-06
1.269978688e-06
1.273417942e-06
1.276938772e-06
1.28057669e-06
1.284306815e-06
1.288178754e-06
1.292165892e-06
1.296283301e-06
1.300496006e-06
1.304851094e-06
1.309342339e-06
1.313926136e-06
1.318645863e-06
1.323504005e-06
1.328462267e-06
1.333568562e-06
1.338828247e-06
1.344197763e-06
1.349714031e-06
1.355354478e-06
1.361162662e-06
1.367115571e-06
1.373257232e-06
1.37955748e-06
1.386056277e-06
1.392731563e-06
1.399636321e-06
1.406772393e-06
1.414093154e-06
1.421628045e-06
1.42934615e-06
1.437270407e-06
1.445339014e-06
1.453516417e-06
1.46177059e-06
1.470056553e-06
1.478299053e-06
1.486366188e-06
1.494064225e-06
1.501201985e-06
1.507656725e-06
1.513365907e-06
1.519526313e-06
1.525728271e-06
1.531124281e-06
1.536066576e-06
1.541782864e-06
1.550963037e-06
1.562988314e-06
1.577146831e-06
1.592944317e-06
1.609813879e-06
1.627206078e-06
1.644963488e-06
1.663151305e-06
1.682280075e-06
1.703714858e-06
1.726611965e-06
1.750100466e-06
1.774112661e-06
1.799646224e-06
1.826634501e-06
1.854973083e-06
1.882359555e-06
1.915431525e-06
1.950773158e-06
1.988146239e-06
2.028216599e-06
2.07185835e-06
2.118848948e-06
2.167443276e-06
2.217449087e-06
2.269069447e-06
2.322479325e-06
2.377804134e-06
2.435124545e-06
2.494478967e-06
2.5560456e-06
2.630651785e-06
2.708899106e-06
2.792431233e-06
2.883063028e-06
2.98160201e-06
3.088001079e-06
3.200664514e-06
3.32097838e-06
3.452984659e-06
3.612081666e-06
3.785018974e-06
3.970644111e-06
4.168532956e-06
4.380050949e-06
4.607729415e-06
4.862592847e-06
5.172244412e-06
5.510407505e-06
5.878396623e-06
6.280475977e-06
6.719746587e-06
7.25394971e-06
7.844313416e-06
8.499111711e-06
9.253085446e-06
1.01846176e-05
1.12102249e-05
1.236963412e-05
1.386074238e-05
1.553605063e-05
1.753111697e-05
2.023290193e-05
2.346402089e-05
2.758524615e-05
3.247253719e-05
3.87706281e-05
4.627163859e-05
5.583077697e-05
6.718004553e-05
8.104341324e-05
9.62671751e-05
0.0001099512195
0.0001123254374
8.909188824e-05
4.697140844e-05
1.540950976e-05
3.389866096e-06
5.691019494e-07
1.733570222e-07
6.762594807e-08
2.253248784e-08
8.048360997e-09
1.920884159e-09
9.561296397e-10
1.499551369e-10
7.980579871e-11
6.291474367e-11
4.455197374e-11
2.991692389e-11
1.981891315e-11
1.37168243e-11
1.007940931e-11
7.585045735e-12
5.853645621e-12
4.621936708e-12
3.723118799e-12
3.051121506e-12
2.5376885e-12
2.133439424e-12
1.811973402e-12
1.550346258e-12
1.335052299e-12
1.155391298e-12
1.0041672e-12
8.757652428e-13
7.660296433e-13
6.716691236e-13
5.901334801e-13
5.193809261e-13
4.577611307e-13
4.039226014e-13
3.567476245e-13
3.153132478e-13
2.788402864e-13
2.466717196e-13
2.182502931e-13
1.931004756e-13
1.70815193e-13
1.510436394e-13
1.334828653e-13
1.178702282e-13
1.039777901e-13
9.160755945e-14
8.058843981e-14
7.077153846e-14
6.201812987e-14
5.41871353e-14
4.71707937e-14
4.089411719e-14
3.528455957e-14
3.027970749e-14
2.582460208e-14
2.187417389e-14
1.838776268e-14
1.531840067e-14
1.260712403e-14
1.020050739e-14
8.058118554e-15
6.148208427e-15
4.444964057e-15
2.926420248e-15
1.573422594e-15
3.689164731e-16
9.747673346e-19
9.374708655e-19
9.03988075e-19
8.739385293e-19
8.469481835e-19
8.226734703e-19
8.008229651e-19
7.811385988e-19
7.634050131e-19
7.474167063e-19
7.32990015e-19
7.199752325e-19
7.082292727e-19
6.976246884e-19
6.880468893e-19
6.793929173e-19
6.71570383e-19
6.644964803e-19
6.580960984e-19
6.523014854e-19
6.470517148e-19
6.422922176e-19
6.37974047e-19
6.340528813e-19
6.304888016e-19
6.272463869e-19
6.242934214e-19
6.216009714e-19
6.191430558e-19
6.168962674e-19
6.148394879e-19
6.12953671e-19
6.112216746e-19
6.096281014e-19
6.081591273e-19
6.06802329e-19
6.055465214e-19
6.043816226e-19
6.032985427e-19
6.022890841e-19
6.013458619e-19
6.004622346e-19
5.996322393e-19
5.988505256e-19
5.981122949e-19
5.974132379e-19
5.967494828e-19
5.961175455e-19
5.955142903e-19
5.949368934e-19
5.943828112e-19
5.938497511e-19
5.933356455e-19
5.92838632e-19
5.923570322e-19
5.918893367e-19
5.914341869e-19
5.909903623e-19
5.905567662e-19
5.901324145e-19
5.897164234e-19
5.893079994e-19
5.88906431e-19
5.885110799e-19
5.881213737e-19
5.877368011e-19
5.873569115e-19
5.86981329e-19
5.866097697e-19
5.862417513e-19
5.858769468e-19
5.855150838e-19
5.851559154e-19
5.847992222e-19
5.844448064e-19
5.840924908e-19
5.837421161e-19
5.833935423e-19
5.830466504e-19
5.82701357e-19
5.823576533e-19
5.820154779e-19
5.816746297e-19
5.813350071e-19
5.809965362e-19
5.806591525e-19
5.803227997e-19
5.799874263e-19
5.796529851e-19
5.793194338e-19
5.789867329e-19
5.786548459e-19
5.783237389e-19
5.779933808e-19
5.776637412e-19
5.773347925e-19
5.770065081e-19
5.766788625e-19
5.763518322e-19
5.760253936e-19
5.75699524e-19
5.753742025e-19
5.750494079e-19
5.747251203e-19
5.7440132e-19
5.740779872e-19
5.737551026e-19
5.734326482e-19
5.731106041e-19
5.727889501e-19
5.724676657e-19
5.721467274e-19
5.718261109e-19
5.715057888e-19
5.711857307e-19
5.708659044e-19
5.705462748e-19
5.702268054e-19
5.699074588e-19
5.695881982e-19
5.692689885e-19
5.68949795e-19
5.686305859e-19
5.683113314e-19
5.679920031e-19
5.676725727e-19
5.673530104e-19
5.670332835e-19
5.667133563e-19
5.663931887e-19
5.660727354e-19
5.657519489e-19
5.654307772e-19
5.651091654e-19
5.647870568e-19
5.644643912e-19
5.641411064e-19
5.638171357e-19
5.634924096e-19
5.63166857e-19
5.628404046e-19
5.62512979e-19
5.621845058e-19
5.618549116e-19
5.615241251e-19
5.611920767e-19
5.608586986e-19
5.605239244e-19
5.601876877e-19
5.598499218e-19
5.595105576e-19
5.591695241e-19
5.588267467e-19
5.584821459e-19
5.58135635e-19
5.577871192e-19
5.574364956e-19
5.570836522e-19
5.567284743e-19
5.563708443e-19
5.560106368e-19
5.556477175e-19
5.552819113e-19
5.549129868e-19
5.54540938e-19
5.541656622e-19
5.537870855e-19
5.534050104e-19
5.530193208e-19
5.52629872e-19
5.522365116e-19
5.518389958e-19
5.514374062e-19
5.510313693e-19
5.506207761e-19
5.502054453e-19
5.497851992e-19
5.493598824e-19
5.489292655e-19
5.484931951e-19
5.48051467e-19
5.476037673e-19
5.471499654e-19
5.466898126e-19
5.462230911e-19
5.457495625e-19
5.452689821e-19
5.447810981e-19
5.442856506e-19
5.437823715e-19
5.432709848e-19
5.427512048e-19
5.422227375e-19
5.416852779e-19
5.411385122e-19
5.405821141e-19
5.40015748e-19
5.394390662e-19
5.388517086e-19
5.38253303e-19
5.376434634e-19
5.370217899e-19
5.363878686e-19
5.357412692e-19
5.350815451e-19
5.344082328e-19
5.337208496e-19
5.330188929e-19
5.323018397e-19
5.315691449e-19
5.308202404e-19
5.300545347e-19
5.292714116e-19
5.28470229e-19
5.276503194e-19
5.268109867e-19
5.259515053e-19
5.250711192e-19
5.241690407e-19
5.232444472e-19
5.222964832e-19
5.213242558e-19
5.203268367e-19
5.193032619e-19
5.18252529e-19
5.171735998e-19
5.160653992e-19
5.149268136e-19
5.137566896e-19
5.125538272e-19
5.11316973e-19
5.100448111e-19
5.087359563e-19
5.073889473e-19
5.060022428e-19
5.045742182e-19
5.031031687e-19
5.015873252e-19
5.000248646e-19
4.984134387e-19
4.967514019e-19
4.95036339e-19
4.932659075e-19
4.91437785e-19
4.895489077e-19
4.875967211e-19
4.855781321e-19
4.834898978e-19
4.813285806e-19
4.790905547e-19
4.767719147e-19
4.743686652e-19
4.718765504e-19
4.692910967e-19
4.666076025e-19
4.638211256e-19
4.609264641e-19
4.579181341e-19
4.547903467e-19
4.515369851e-19
4.481515769e-19
4.446272623e-19
4.409567313e-19
4.371321609e-19
4.331452022e-19
4.289871791e-19
4.246489193e-19
4.201206482e-19
4.153918856e-19
4.104513104e-19
4.052866416e-19
3.998845429e-19
3.942305558e-19
3.883090731e-19
3.8210334e-19
3.755954528e-19
3.687663576e-19
3.615958636e-19
3.540625891e-19
3.46143478e-19
3.378135196e-19
3.290473512e-19
3.198182925e-19
3.100967911e-19
2.998501419e-19
2.890427622e-19
2.776364196e-19
2.655905094e-19
2.528624433e-19
2.394063074e-19
2.251751324e-19
2.101204703e-19
1.941920843e-19
1.773384297e-19
1.595086159e-19
1.406528327e-19
1.207279732e-19
9.970492444e-20
7.757291857e-20
5.434978992e-20
3.009973956e-20
4.959620488e-21
3.351941988e-22
3.387780104e-22
3.427675631e-22
3.472397194e-22
3.522907167e-22
3.580400303e-22
3.646315949e-22
3.722235634e-22
3.809462239e-22
3.907668198e-22
4.011226055e-22
1.737115313e-06
1.737444588e-06
1.737994155e-06
1.738621224e-06
1.739190969e-06
1.739622452e-06
1.739876458e-06
1.739731646e-06
1.738835012e-06
1.737269796e-06
1.735847426e-06
1.735002552e-06
1.734695607e-06
1.734780937e-06
1.73512369e-06
1.735613772e-06
1.736177918e-06
1.736755114e-06
1.737288086e-06
1.737733198e-06
1.738043978e-06
1.738178067e-06
1.738076982e-06
1.737672344e-06
1.736865514e-06
1.735527199e-06
1.7334781e-06
1.730497999e-06
1.726404057e-06
1.721212654e-06
1.715333877e-06
1.709411176e-06
1.703279826e-06