/*--------------------------------*- C++ -*----------------------------------*\
| =========                 |                                                 |
| \\      /  F ield         | OpenFOAM: The Open Source CFD Toolbox           |
|  \\    /   O peration     | Version:  v2006                                 |
|   \\  /    A nd           | Website:  www.openfoam.com                      |
|    \\/     M anipulation  |                                                 |
\*---------------------------------------------------------------------------*/
FoamFile
{
    version     2.0;
    format      ascii;
    class       volScalarField;
    location    "0.075";
    object      O2;
}
// * * * * * * * * * * * * * * * * * * * * * * * * * * * * * * * * * * * * * //

dimensions      [0 0 0 0 0 0 0];


internalField   nonuniform List<scalar> 
72000
(
0.04213700185
0.0421375966
0.04213977271
0.04215300082
0.04217966733
0.04222161292
0.04225951605
0.04229417631
0.0423656736
0.04244291185
0.04248364414
0.04249676309
0.04250811394
0.04251780746
0.04252720736
0.04253379298
0.04253978282
0.042546128
0.04254974387
0.04255397013
0.04255608877
0.04255878487
0.04255991832
0.04256163398
0.04256126419
0.04256026708
0.04255792051
0.04255302563
0.04255435751
0.04257401793
0.04262867408
0.04262088755
0.04261471404
0.04260851643
0.04260706133
0.04261892728
0.0426437061
0.04268873931
0.04277364276
0.04277802122
0.0427722882
0.04276750827
0.04276360847
0.04276107761
0.0427582617
0.04275632147
0.04275500084
0.04275305725
0.04275237934
0.04275064582
0.04275058058
0.04274910465
0.04274945923
0.04274828128
0.04274808487
0.04274784565
0.04274732836
0.0427477353
0.04274690149
0.04274666732
0.04274717213
0.04274657472
0.04274692316
0.04274590241
0.04274654358
0.04274590231
0.04274602878
0.04274635408
0.04274585399
0.04274651672
0.04274579558
0.04274598557
0.04274563853
0.04274582916
0.04274595776
0.04274554526
0.04274620486
0.04274531932
0.04274549015
0.04274572732
0.04274552255
0.04274532767
0.04274607746
0.04274528638
0.04274563255
0.04274518409
0.04274510807
0.04274552031
0.04274495418
0.04274584842
0.04274536762
0.04274576199
0.04274494573
0.04274571054
0.04274512651
0.04274592267
0.04274518699
0.04274574995
0.04274571384
0.04274608547
0.04274580726
0.04274625063
0.04274583549
0.04274652832
0.04274576877
0.04274603665
0.04274675356
0.04274618443
0.0427464062
0.04274718648
0.04274682911
0.04274734214
0.0427478162
0.04274763235
0.04274859222
0.0427485909
0.04274915541
0.04274942535
0.04275013565
0.04274997932
0.04275102435
0.04275105614
0.04275190566
0.04275306249
0.04275335252
0.04275442193
0.04275437839
0.04275568159
0.04275674715
0.04275735412
0.04275805072
0.04275931561
0.04275975866
0.04276113021
0.04276134818
0.04276601679
0.04277397053
0.0427846432
0.04279853889
0.04281738478
0.0428452386
0.04289208637
0.04298316059
0.04298403078
0.04298789833
0.04299401172
0.04300333161
0.04301771474
0.04305307477
0.04310574874
0.04318060279
0.04329678221
0.04332841381
0.04336190586
0.0434245229
0.04352820386
0.04359357317
0.04366239629
0.04373208819
0.04380525016
0.0438800845
0.04395738873
0.04403519125
0.04411041336
0.04413279368
0.04409486498
0.04411334887
0.0441552886
0.04420963496
0.04427400441
0.04434755673
0.0444306491
0.04452522873
0.04463636369
0.04477559305
0.04493629373
0.04509067881
0.04519025023
0.04526146663
0.04529411317
0.04540901441
0.04558562242
0.045683824
0.04585762593
0.04596654654
0.04603328754
0.04615798994
0.04631825702
0.04652273702
0.04666736317
0.04678260961
0.04686866629
0.04703356563
0.04726504362
0.0475537264
0.04779276609
0.04799946528
0.04827054951
0.04851241927
0.04874832023
0.04898248539
0.04929086919
0.04963076174
0.04992046428
0.05021776585
0.05040543348
0.05050541101
0.05062087807
0.0507627974
0.05093981184
0.05115701525
0.05143875917
0.05180248117
0.05228127057
0.052922964
0.05380430043
0.05502927079
0.05676243846
0.05925291566
0.06307476907
0.07137469425
0.1241789711
0.1520002959
0.1688692592
0.1790283641
0.1867907944
0.1927393457
0.1974747605
0.2012275236
0.2043240797
0.2066833065
0.2082627955
0.2092655119
0.209988495
0.2105315277
0.2109509494
0.2112973611
0.2115910495
0.2118436319
0.2120629161
0.2122550375
0.2124187633
0.2125593547
0.2126782747
0.2127783656
0.2128627818
0.2129343678
0.2129954247
0.2130477975
0.2130929671
0.2131321197
0.2131662069
0.2131959996
0.2132221177
0.21324507
0.2132652904
0.2132831415
0.2132989285
0.2133129071
0.213325296
0.2133362832
0.2133460297
0.2133546738
0.2133623335
0.2133691078
0.2133750769
0.2133802997
0.2133847986
0.2133884052
0.2133910292
0.2133946815
0.2133982627
0.2134015281
0.2134043941
0.2134068422
0.2134088585
0.2134104074
0.2134113794
0.2134119084
0.2134122863
0.2134125896
0.213412845
0.2134130626
0.2134132489
0.2134134065
0.2134135382
0.2134136462
0.2134137323
0.2134137977
0.2134138429
0.2134138004
0.2134137497
0.2134136956
0.213413639
0.2134135802
0.2134135196
0.2134134572
0.2134133931
0.2134133274
0.2134132603
0.2134131917
0.2134131217
0.2134130504
0.213412978
0.2134129043
0.2134128295
0.2134127536
0.2134126767
0.2134125988
0.21341252
0.2134124402
0.2134123595
0.213412278
0.2134121956
0.2134121124
0.2134120285
0.2134119438
0.2134118583
0.2134117721
0.2134116853
0.2134115977
0.2134115095
0.2134114207
0.2134113313
0.2134112412
0.2134111506
0.2134110594
0.2134109677
0.2134108755
0.2134107827
0.2134106895
0.2134105958
0.2134105016
0.2134104071
0.2134103121
0.2134102167
0.213410121
0.2134100248
0.2134099284
0.2134098316
0.2134097345
0.2134096372
0.2134095395
0.2134094416
0.2134093435
0.2134092451
0.2134091466
0.2134090478
0.2134089489
0.2134088498
0.2134087505
0.2134086512
0.2134085517
0.2134084521
0.2134083524
0.2134082527
0.2134081529
0.213408053
0.2134079531
0.2134078532
0.2134077534
0.2134076535
0.2134075536
0.2134074538
0.2134073541
0.2134072544
0.2134071548
0.2134070553
0.213406956
0.2134068567
0.2134067576
0.2134066587
0.2134065599
0.2134064613
0.2134063629
0.2134062647
0.2134061668
0.213406069
0.2134059716
0.2134058744
0.2134057774
0.2134056808
0.2134055845
0.2134054885
0.2134053928
0.2134052975
0.2134052025
0.2134051079
0.2134050137
0.2134049199
0.2134048265
0.2134047335
0.213404641
0.2134045489
0.2134044573
0.2134043661
0.2134042755
0.2134041853
0.2134040957
0.2134040065
0.213403918
0.2134038299
0.2134037424
0.2134036555
0.2134035691
0.2134034834
0.2134033982
0.2134033137
0.2134032297
0.2134031464
0.2134030637
0.2134029816
0.2134029002
0.2134028195
0.2134027394
0.21340266
0.2134025812
0.2134025031
0.2134024257
0.213402349
0.213402273
0.2134021977
0.213402123
0.2134020491
0.2134019758
0.2134019033
0.2134018315
0.2134017603
0.2134016899
0.2134016202
0.2134015512
0.2134014829
0.2134014153
0.2134013483
0.2134012821
0.2134012166
0.2134011518
0.2134010876
0.2134010241
0.2134009613
0.2134008992
0.2134008377
0.2134007769
0.2134007167
0.2134006572
0.2134005983
0.21340054
0.2134004823
0.2134004252
0.2134003687
0.2134003127
0.2134002574
0.2134002025
0.2134001482
0.2134000944
0.2134000411
0.2133999882
0.2133999359
0.2133998839
0.2133998324
0.2133997813
0.2133997305
0.2133996801
0.21339963
0.2133995802
0.2133995307
0.2133994814
0.2133994324
0.2133993835
0.2133993348
0.2133992861
0.2133992376
0.2133991892
0.2133991407
0.2133990922
0.2133990436
0.213398995
0.2133989462
0.2133988972
0.2133988479
0.2133987984
0.2133987485
0.2133986982
0.2133986475
0.2133985962
0.2133985444
0.213398492
0.2133984389
0.213398385
0.2133983303
0.2133982748
0.2133982182
0.2133981606
0.2133981019
0.213398042
0.2133979808
0.2133979183
0.2133978542
0.2133977886
0.2133977213
0.2133976523
0.2133975814
0.2133975084
0.2133974334
0.2133973561
0.2133972765
0.2133971944
0.2133971096
0.213397022
0.2133969316
0.213396838
0.2133967412
0.2133966409
0.2133965371
0.2133964294
0.2133963178
0.213396202
0.2133960818
0.2133959569
0.2133958272
0.2133956924
0.2133955522
0.2133954065
0.2133952548
0.2133950969
0.2133949326
0.2133947614
0.2133945832
0.2133943974
0.2133942038
0.213394002
0.2133937915
0.213393572
0.2133933431
0.2133931041
0.2133928548
0.2133925946
0.2133923229
0.2133920392
0.2133917429
0.2133914334
0.21339111
0.2133907721
0.213390419
0.2133900499
0.2133896639
0.2133892604
0.2133888383
0.2133883967
0.2133879347
0.2133874512
0.2133869451
0.2133864152
0.2133858602
0.2133852789
0.2133846698
0.2133840313
0.213383362
0.21338266
0.2133819235
0.2133811505
0.2133803389
0.2133794864
0.2133785905
0.2133776485
0.2133766576
0.2133756144
0.2133745156
0.2133733575
0.2133721358
0.2133708461
0.2133694833
0.2133680419
0.2133665157
0.2133648978
0.2133631805
0.2133613551
0.2133594117
0.2133573392
0.2133551246
0.2133527532
0.2133502077
0.2133474679
0.2133445102
0.2133413062
0.2133378218
0.2133340155
0.2133298361
0.2133252193
0.2133200836
0.213314323
0.2133077971
0.2133003145
0.2132916066
0.2132812815
0.2132687407
0.2132530146
0.2132324116
0.2132032321
0.2131586438
0.04182632667
0.04183049563
0.04183930666
0.04185505115
0.04187905038
0.04191115128
0.04194760227
0.04198688767
0.0420344729
0.04208160465
0.04211719621
0.04214212454
0.04216182697
0.04217818652
0.04219208788
0.04220407317
0.04221439421
0.04222329441
0.04223104465
0.04223772993
0.04224350574
0.04224839237
0.04225248219
0.04225576883
0.04225827597
0.04225995887
0.0422609406
0.04226164012
0.04226393473
0.04227017298
0.04228008471
0.04228048666
0.04227855154
0.04227665889
0.04227704593
0.04228191381
0.0422924404
0.0423102659
0.04233387522
0.04234063053
0.04234006077
0.04233770562
0.042335078
0.04233263836
0.04233063535
0.04232892491
0.04232748527
0.04232640884
0.04232553669
0.04232493422
0.0423244596
0.0423241867
0.04232400724
0.0423239832
0.04232397923
0.04232396432
0.04232412819
0.04232430529
0.04232457186
0.04232479793
0.04232499123
0.04232529562
0.04232556554
0.04232592828
0.04232625332
0.04232665227
0.04232699776
0.04232729151
0.04232764387
0.04232797561
0.04232837326
0.0423287324
0.04232916205
0.04232953859
0.04232985657
0.04233025855
0.04233062652
0.04233106711
0.04233144535
0.04233178037
0.04233219153
0.04233254733
0.04233285774
0.04233325319
0.04233361571
0.04233405004
0.04233443594
0.04233477575
0.04233518233
0.04233556028
0.0423360147
0.04233641364
0.04233687632
0.04233729713
0.04233778086
0.04233822851
0.04233873615
0.04233921498
0.04233976525
0.04234028074
0.04234087222
0.04234143212
0.04234206996
0.04234269254
0.04234341621
0.04234411615
0.04234481761
0.04234565658
0.04234652075
0.04234742258
0.04234847636
0.04234958653
0.04235074225
0.04235206888
0.04235347179
0.04235504165
0.04235668096
0.04235849042
0.0423603409
0.04236236238
0.04236446717
0.04236674187
0.04236908893
0.04237150988
0.04237413596
0.04237689784
0.04237986671
0.04238298977
0.0423863947
0.04239011186
0.04239417112
0.0423986243
0.04240354262
0.04240912621
0.04241579182
0.04242469049
0.04243615906
0.0424503702
0.04246790365
0.04248994198
0.04251840311
0.04255550018
0.04259938466
0.04262306561
0.04264197609
0.042661673
0.04268465517
0.04271407242
0.04275483676
0.04280751396
0.04287230967
0.04294593948
0.04300191072
0.04305696526
0.04312268535
0.04319850766
0.04326747579
0.04333576948
0.04340491826
0.04347513478
0.04354612168
0.04361688485
0.04368527313
0.04374595356
0.04378727829
0.04381360335
0.04385395048
0.04390833342
0.04397397716
0.04404938973
0.0441340394
0.04422815287
0.04433270539
0.04444934387
0.04457930306
0.04471695732
0.04484906324
0.0449616016
0.0450562237
0.04514150035
0.0452503109
0.04537712638
0.04550656159
0.04564733866
0.0457747917
0.04589576706
0.04603634744
0.04619661269
0.04637044242
0.04653281114
0.04668773334
0.04684603038
0.04703629026
0.04725733803
0.04751395476
0.04777117361
0.04802985784
0.04830808294
0.04859055048
0.04888083069
0.04920060248
0.04955975246
0.04994424731
0.0503377785
0.05076778555
0.05096332791
0.0511994084
0.05148766772
0.05185024015
0.05230273943
0.05287470814
0.05360317903
0.05453589571
0.0557458359
0.05732925363
0.05943489711
0.06229828277
0.06636608005
0.0726759326
0.08365046986
0.1031972686
0.1330143083
0.1549623606
0.168647395
0.1783616448
0.1859945795
0.191625386
0.1964470366
0.2002799324
0.2032830481
0.2054793439
0.2070465003
0.2082327332
0.2091399749
0.209849096
0.2104151311
0.2108781465
0.2112613496
0.2115795654
0.2118452608
0.2120682911
0.2122549704
0.2124120564
0.2125442936
0.2126560513
0.2127509055
0.2128318947
0.2129013987
0.2129613544
0.2130133061
0.2130585118
0.2130979884
0.2131325712
0.2131629566
0.2131897155
0.2132133151
0.2132341678
0.2132526183
0.2132689644
0.2132834596
0.2132963212
0.213307737
0.213317869
0.2133268573
0.2133348223
0.2133418671
0.2133480829
0.2133535435
0.2133583301
0.2133626206
0.2133668531
0.2133706934
0.2133741153
0.2133770952
0.2133796454
0.2133817719
0.2133835024
0.2133848455
0.2133858986
0.2133867749
0.2133875277
0.2133881842
0.2133887594
0.2133892636
0.2133897041
0.2133900874
0.2133904189
0.2133907035
0.2133907715
0.2133907436
0.2133907071
0.2133906646
0.2133906175
0.2133905663
0.2133905116
0.2133904535
0.2133903923
0.2133903284
0.2133902618
0.2133901927
0.2133901213
0.2133900477
0.2133899722
0.2133898947
0.2133898154
0.2133897345
0.213389652
0.2133895679
0.2133894825
0.2133893956
0.2133893075
0.2133892182
0.2133891277
0.213389036
0.2133889433
0.2133888495
0.2133887548
0.2133886591
0.2133885625
0.2133884649
0.2133883666
0.2133882674
0.2133881674
0.2133880667
0.2133879652
0.213387863
0.2133877601
0.2133876565
0.2133875524
0.2133874476
0.2133873422
0.2133872363
0.2133871298
0.2133870228
0.2133869153
0.2133868074
0.213386699
0.2133865901
0.2133864809
0.2133863713
0.2133862613
0.213386151
0.2133860404
0.2133859294
0.2133858182
0.2133857067
0.213385595
0.213385483
0.2133853708
0.2133852584
0.2133851459
0.2133850332
0.2133849203
0.2133848073
0.2133846943
0.2133845811
0.2133844679
0.2133843546
0.2133842412
0.2133841279
0.2133840145
0.2133839012
0.2133837878
0.2133836746
0.2133835613
0.2133834482
0.2133833351
0.2133832222
0.2133831094
0.2133829967
0.2133828842
0.2133827718
0.2133826597
0.2133825477
0.2133824359
0.2133823244
0.2133822132
0.2133821022
0.2133819915
0.2133818811
0.213381771
0.2133816612
0.2133815517
0.2133814427
0.213381334
0.2133812257
0.2133811177
0.2133810103
0.2133809032
0.2133807966
0.2133806905
0.2133805848
0.2133804796
0.213380375
0.2133802708
0.2133801672
0.2133800641
0.2133799617
0.2133798597
0.2133797584
0.2133796577
0.2133795576
0.2133794581
0.2133793593
0.2133792611
0.2133791636
0.2133790668
0.2133789706
0.2133788751
0.2133787804
0.2133786864
0.2133785931
0.2133785005
0.2133784086
0.2133783176
0.2133782272
0.2133781377
0.2133780489
0.2133779608
0.2133778736
0.2133777871
0.2133777015
0.2133776166
0.2133775325
0.2133774492
0.2133773667
0.213377285
0.2133772041
0.2133771241
0.2133770448
0.2133769663
0.2133768886
0.2133768118
0.2133767357
0.2133766604
0.2133765859
0.2133765122
0.2133764393
0.2133763671
0.2133762957
0.2133762251
0.2133761553
0.2133760861
0.2133760178
0.2133759501
0.2133758832
0.213375817
0.2133757515
0.2133756866
0.2133756225
0.213375559
0.2133754961
0.2133754338
0.2133753722
0.2133753111
0.2133752507
0.2133751907
0.2133751313
0.2133750724
0.213375014
0.2133749561
0.2133748986
0.2133748414
0.2133747847
0.2133747283
0.2133746723
0.2133746165
0.213374561
0.2133745057
0.2133744506
0.2133743956
0.2133743408
0.213374286
0.2133742312
0.2133741765
0.2133741216
0.2133740667
0.2133740116
0.2133739563
0.2133739008
0.2133738449
0.2133737887
0.213373732
0.2133736748
0.2133736171
0.2133735588
0.2133734998
0.21337344
0.2133733794
0.2133733179
0.2133732554
0.2133731918
0.213373127
0.213373061
0.2133729937
0.2133729249
0.2133728546
0.2133727826
0.2133727089
0.2133726333
0.2133725558
0.2133724761
0.2133723942
0.2133723099
0.2133722232
0.2133721337
0.2133720415
0.2133719463
0.213371848
0.2133717464
0.2133716413
0.2133715326
0.21337142
0.2133713034
0.2133711825
0.2133710572
0.2133709271
0.213370792
0.2133706518
0.2133705061
0.2133703547
0.2133701972
0.2133700334
0.213369863
0.2133696856
0.2133695009
0.2133693086
0.2133691082
0.2133688994
0.2133686817
0.2133684548
0.2133682182
0.2133679714
0.2133677139
0.2133674452
0.2133671648
0.2133668721
0.2133665665
0.2133662474
0.2133659141
0.2133655659
0.2133652021
0.2133648219
0.2133644246
0.2133640092
0.2133635749
0.2133631208
0.2133626458
0.2133621488
0.2133616289
0.2133610847
0.2133605151
0.2133599188
0.2133592942
0.2133586399
0.2133579544
0.213357236
0.2133564827
0.2133556927
0.213354864
0.2133539942
0.2133530811
0.213352122
0.2133511141
0.2133500545
0.2133489399
0.2133477668
0.2133465314
0.2133452293
0.2133438561
0.2133424067
0.2133408756
0.2133392565
0.2133375427
0.2133357265
0.2133337994
0.2133317519
0.2133295731
0.2133272506
0.2133247705
0.2133221165
0.2133192699
0.2133162089
0.2133129079
0.2133093363
0.2133054579
0.2133012285
0.2132965943
0.2132914884
0.2132858267
0.2132795019
0.2132723744
0.2132642587
0.2132549037
0.2132439608
0.2132309357
0.2132151033
0.213195462
0.2131706918
0.2131396351
0.04146423465
0.04146958303
0.04148008031
0.04149624103
0.04151840167
0.04154624524
0.04157847414
0.04161399204
0.04165172899
0.04168826591
0.04171995129
0.04174614964
0.04176814309
0.0417869226
0.04180315141
0.04181728123
0.04182961137
0.04184039237
0.0418498454
0.04185811932
0.0418653502
0.04187161904
0.04187700748
0.04188155918
0.04188532537
0.04188835298
0.04189077826
0.04189289321
0.04189528708
0.04189843499
0.04190173638
0.04190273034
0.04190263007
0.04190258173
0.04190364205
0.04190670694
0.04191223424
0.04192016903
0.04192853298
0.04193231716
0.04193267834
0.04193153125
0.04192989312
0.04192822853
0.04192670467
0.04192542267
0.04192440898
0.04192369166
0.04192321224
0.04192296753
0.04192289129
0.04192299086
0.0419232063
0.04192354454
0.0419239412
0.04192438441
0.04192491782
0.04192549781
0.04192613688
0.0419267794
0.04192742585
0.04192812026
0.04192882995
0.04192958352
0.04193034071
0.04193112183
0.04193187572
0.04193260603
0.04193336061
0.04193411698
0.04193490681
0.04193569765
0.04193651453
0.04193730934
0.04193808508
0.04193889139
0.04193970101
0.04194053817
0.04194135272
0.0419421494
0.04194296875
0.04194376971
0.04194455665
0.04194537936
0.04194620916
0.04194707109
0.0419479191
0.04194875581
0.04194969202
0.0419506427
0.04195163168
0.04195261976
0.04195363718
0.04195464797
0.04195568172
0.04195671885
0.04195779545
0.04195888708
0.04196002838
0.041961194
0.04196242062
0.04196368607
0.04196502512
0.04196640331
0.04196785112
0.04196934115
0.04197089981
0.04197258296
0.04197436845
0.04197626839
0.04197832927
0.04198052504
0.04198286451
0.04198540034
0.04198811414
0.04199103023
0.04199411645
0.04199739663
0.04200083695
0.04200447413
0.04200828629
0.04201230188
0.0420164946
0.04202088515
0.04202553726
0.04203045927
0.04203570303
0.04204128831
0.0420472984
0.04205379867
0.04206085477
0.04206855379
0.0420770271
0.04208653161
0.04209745749
0.04211027568
0.04212534113
0.04214297214
0.0421637478
0.04218826213
0.04221702698
0.0422499438
0.0422845049
0.04231423576
0.04234205386
0.04237089156
0.04240295131
0.04244039255
0.04248527037
0.04253796652
0.04259758368
0.04266093114
0.04272151193
0.04278285278
0.04284866838
0.04291869723
0.04298861398
0.04305874147
0.04312950374
0.04319928878
0.04326891482
0.0433378453
0.04340454136
0.04346651995
0.04352141648
0.04357280668
0.04363004195
0.04369591439
0.04377060434
0.0438538013
0.04394530569
0.04404513598
0.04415344308
0.04427017572
0.04439424938
0.04452190379
0.0446471906
0.04476517687
0.04487667296
0.044986964
0.04510507698
0.04522929585
0.0453511667
0.04547639308
0.04561380016
0.04575410453
0.04590488919
0.04606732025
0.04623819273
0.04641086678
0.04658683928
0.04677259514
0.04697733826
0.04720140875
0.04745390401
0.04772288856
0.04800319956
0.04829905012
0.04860845771
0.04893824725
0.04930666043
0.04970576087
0.05013398255
0.05060980575
0.05112628293
0.05147381962
0.05182285952
0.05225622162
0.05279051506
0.05345616287
0.05429008124
0.05533795978
0.05666816157
0.05836795733
0.06056501332
0.06347291807
0.06747093405
0.07323152798
0.0819101142
0.09496546955
0.1133733054
0.1351013934
0.1514880269
0.1637815071
0.1735728496
0.1816093834
0.1880650203
0.1931460455
0.1967844351
0.2001826147
0.2028042667
0.2048643517
0.2064821683
0.2077484911
0.2087532667
0.2095531354
0.2101918478
0.2107038512
0.2111178952
0.2114559526
0.2117342598
0.2119648228
0.2121579039
0.2123198835
0.2124569945
0.2125735539
0.2126733173
0.2127590839
0.2128331868
0.2128974571
0.2129534225
0.2130023124
0.2130451431
0.2130827596
0.2131158714
0.2131450813
0.2131708871
0.21319372
0.2132139457
0.2132318805
0.2132477961
0.2132619291
0.2132744841
0.2132856404
0.2132955551
0.2133043675
0.2133122036
0.2133191802
0.2133254129
0.2133310235
0.2133361093
0.2133406331
0.2133446341
0.213348137
0.2133511818
0.2133538048
0.213356048
0.2133579558
0.2133595918
0.2133610154
0.2133622658
0.2133633693
0.2133643445
0.2133652056
0.2133659646
0.2133666317
0.2133672162
0.2133673938
0.2133673868
0.2133673701
0.2133673448
0.2133673124
0.2133672736
0.2133672291
0.2133671794
0.2133671248
0.2133670659
0.2133670029
0.2133669361
0.2133668659
0.2133667924
0.2133667159
0.2133666365
0.2133665546
0.2133664703
0.2133663836
0.2133662948
0.2133662041
0.2133661114
0.2133660169
0.2133659208
0.2133658231
0.2133657238
0.2133656232
0.2133655211
0.2133654178
0.2133653132
0.2133652074
0.2133651005
0.2133649924
0.2133648833
0.2133647732
0.2133646622
0.2133645502
0.2133644373
0.2133643235
0.2133642089
0.2133640935
0.2133639774
0.2133638605
0.2133637429
0.2133636247
0.2133635058
0.2133633863
0.2133632662
0.2133631455
0.2133630244
0.2133629027
0.2133627805
0.2133626579
0.2133625348
0.2133624113
0.2133622875
0.2133621633
0.2133620387
0.2133619138
0.2133617887
0.2133616632
0.2133615375
0.2133614116
0.2133612854
0.2133611591
0.2133610325
0.2133609058
0.213360779
0.2133606521
0.2133605251
0.213360398
0.2133602708
0.2133601436
0.2133600163
0.2133598891
0.2133597619
0.2133596347
0.2133595076
0.2133593805
0.2133592535
0.2133591267
0.2133589999
0.2133588733
0.2133587469
0.2133586206
0.2133584946
0.2133583687
0.2133582431
0.2133581178
0.2133579927
0.2133578679
0.2133577434
0.2133576192
0.2133574953
0.2133573718
0.2133572487
0.213357126
0.2133570037
0.2133568818
0.2133567603
0.2133566393
0.2133565188
0.2133563988
0.2133562792
0.2133561603
0.2133560418
0.2133559239
0.2133558066
0.2133556899
0.2133555738
0.2133554583
0.2133553435
0.2133552293
0.2133551158
0.2133550029
0.2133548908
0.2133547794
0.2133546687
0.2133545588
0.2133544496
0.2133543411
0.2133542335
0.2133541266
0.2133540206
0.2133539153
0.2133538109
0.2133537073
0.2133536046
0.2133535027
0.2133534016
0.2133533015
0.2133532021
0.2133531037
0.2133530062
0.2133529095
0.2133528137
0.2133527189
0.2133526249
0.2133525318
0.2133524396
0.2133523484
0.213352258
0.2133521686
0.2133520801
0.2133519924
0.2133519057
0.2133518199
0.213351735
0.213351651
0.2133515678
0.2133514856
0.2133514043
0.2133513238
0.2133512442
0.2133511654
0.2133510876
0.2133510105
0.2133509343
0.2133508589
0.2133507843
0.2133507106
0.2133506376
0.2133505654
0.2133504939
0.2133504232
0.2133503532
0.2133502839
0.2133502153
0.2133501473
0.21335008
0.2133500133
0.2133499472
0.2133498816
0.2133498166
0.2133497522
0.2133496882
0.2133496246
0.2133495615
0.2133494988
0.2133494364
0.2133493743
0.2133493125
0.213349251
0.2133491896
0.2133491284
0.2133490674
0.2133490063
0.2133489454
0.2133488843
0.2133488232
0.213348762
0.2133487005
0.2133486389
0.2133485769
0.2133485145
0.2133484517
0.2133483883
0.2133483244
0.2133482599
0.2133481946
0.2133481285
0.2133480615
0.2133479936
0.2133479246
0.2133478544
0.213347783
0.2133477103
0.2133476361
0.2133475603
0.2133474829
0.2133474036
0.2133473225
0.2133472394
0.213347154
0.2133470664
0.2133469764
0.2133468837
0.2133467883
0.21334669
0.2133465887
0.2133464841
0.213346376
0.2133462644
0.213346149
0.2133460295
0.2133459058
0.2133457777
0.2133456448
0.2133455071
0.2133453641
0.2133452157
0.2133450616
0.2133449014
0.2133447349
0.2133445618
0.2133443817
0.2133441943
0.2133439992
0.2133437961
0.2133435845
0.213343364
0.2133431343
0.2133428947
0.213342645
0.2133423845
0.2133421128
0.2133418293
0.2133415334
0.2133412246
0.2133409022
0.2133405655
0.2133402139
0.2133398467
0.213339463
0.213339062
0.2133386431
0.2133382051
0.2133377472
0.2133372685
0.2133367678
0.2133362442
0.2133356963
0.2133351231
0.2133345231
0.2133338951
0.2133332376
0.2133325491
0.2133318279
0.2133310722
0.2133302802
0.2133294501
0.2133285795
0.2133276664
0.2133267082
0.2133257024
0.2133246462
0.2133235366
0.2133223703
0.213321144
0.2133198536
0.2133184952
0.2133170643
0.2133155558
0.2133139644
0.2133122843
0.2133105088
0.2133086309
0.2133066423
0.2133045343
0.2133022967
0.2132999183
0.2132973864
0.2132946866
0.2132918022
0.2132887142
0.2132854008
0.2132818364
0.2132779911
0.2132738294
0.2132693091
0.2132643797
0.2132589796
0.2132529812
0.2132463327
0.2132389315
0.2132306349
0.2132212645
0.2132105986
0.2131983703
0.213184286
0.2131681041
0.2131498853
0.2131306737
0.04112208894
0.04112774477
0.0411384855
0.04115416961
0.04117462607
0.04119940944
0.04122767845
0.04125838239
0.04129018337
0.0413211752
0.04134959864
0.04137476659
0.04139686379
0.04141627827
0.04143338021
0.04144847847
0.04146182032
0.04147361901
0.04148406067
0.04149329503
0.04150144646
0.04150860861
0.04151486323
0.04152027451
0.04152490615
0.04152882891
0.04153215819
0.04153507937
0.04153780633
0.04154045638
0.04154278705
0.04154431259
0.04154534835
0.04154643411
0.0415481094
0.04155075047
0.04155444862
0.04155899544
0.04156334469
0.04156604438
0.04156709854
0.04156717134
0.04156680981
0.04156635617
0.04157940009
0.04159075888
0.04160054058
0.04160904125
0.04161648582
0.04162304694
0.04162886689
0.04163406503
0.04163873523
0.0416429618
0.04164680976
0.04165033662
0.04165359433
0.04165661698
0.04165943726
0.04166208083
0.0416645747
0.04166694341
0.04166920282
0.04167136926
0.04167344995
0.04167545238
0.04167737866
0.04167924345
0.04168106374
0.04168284928
0.04168461083
0.04168635297
0.04168808345
0.04168980266
0.04169151361
0.04169322177
0.04169492485
0.04169662463
0.04169831682
0.04170000297
0.04170168608
0.04170336239
0.04170503214
0.04170669963
0.04170836099
0.04171001811
0.04171166871
0.04171331612
0.04171497706
0.04171662372
0.0417182387
0.04171980237
0.04172130729
0.04172268334
0.04172389148
0.04172503464
0.0417261185
0.04172714416
0.04172811717
0.04172903583
0.04172990074
0.04173070366
0.04173144637
0.04173212135
0.04173268329
0.04173322779
0.0417338003
0.04173443381
0.04173514561
0.04173594918
0.04173685631
0.0417378705
0.04173900107
0.04174027153
0.04174169366
0.04174323818
0.04174487192
0.04174657947
0.04174834729
0.04175018093
0.04175208547
0.04175407669
0.0417561748
0.04175842141
0.04176088304
0.04176363234
0.04176675344
0.0417703432
0.04177452287
0.04177944119
0.04178528963
0.04179243891
0.04180393781
0.04181660111
0.04183062298
0.04184639826
0.04186423858
0.04188441703
0.04191245788
0.04194512135
0.04198174169
0.04202074451
0.04205874274
0.04209147248
0.04211969777
0.04214568734
0.04217180446
0.0422008853
0.04224712158
0.04229869804
0.04235486497
0.04241396424
0.04247403927
0.04253573213
0.04260021518
0.04266713389
0.04273521365
0.04280413173
0.04287385091
0.04294426196
0.04301503803
0.04308554364
0.04315381411
0.04321962957
0.04328352127
0.04334777366
0.04341619809
0.04349075918
0.0435723849
0.04366125759
0.04375735586
0.04386058118
0.04397067946
0.04408704547
0.04420837633
0.04433245185
0.04445656693
0.04457879454
0.04469949817
0.04482105968
0.04494625104
0.04507454091
0.04520336884
0.04533182298
0.04545757837
0.04560373515
0.04576002978
0.04592522611
0.04609835011
0.0462780816
0.04646551187
0.04666380214
0.0468763402
0.04710349453
0.04735242837
0.04762814078
0.04791913731
0.0482267442
0.04855195114
0.04890561559
0.04929968697
0.04972535223
0.0501888053
0.05071036504
0.05128086961
0.05187549163
0.05230820439
0.05283876565
0.05349317399
0.05429760923
0.05529299031
0.05653426986
0.05808679573
0.06005567272
0.06260412029
0.06600186838
0.07067262103
0.07717260787
0.08619645419
0.09840135865
0.1138664309
0.1296332795
0.1426845694
0.1542855936
0.1643692767
0.1731401621
0.1805804818
0.1868231588
0.1918160968
0.1955233218
0.1983458535
0.2011055843
0.2034523681
0.2053102827
0.2067908453
0.2079592432
0.2088899293
0.2096304587
0.210225306
0.2107076692
0.2111013644
0.2114255273
0.211695863
0.2119208951
0.2121108227
0.2122715001
0.2124084909
0.2125257906
0.2126267985
0.2127141177
0.2127898988
0.2128559013
0.2129135506
0.212964051
0.2130083891
0.213047407
0.2130818024
0.213112179
0.2131390434
0.2131628342
0.2131839254
0.2132026419
0.2132192643
0.213234038
0.2132471771
0.2132588701
0.2132692833
0.2132785639
0.2132868423
0.2132942317
0.2133008216
0.2133066754
0.2133118637
0.2133164466
0.213320485
0.2133240345
0.2133271497
0.2133298839
0.2133322916
0.2133344202
0.2133363075
0.2133379828
0.2133394698
0.2133407886
0.2133419565
0.2133429889
0.2133438326
0.213343859
0.2133438723
0.2133438739
0.213343865
0.2133438468
0.2133438199
0.2133437853
0.2133437437
0.2133436955
0.2133436412
0.2133435814
0.2133435165
0.2133434469
0.213343373
0.2133432951
0.2133432135
0.2133431285
0.2133430403
0.2133429492
0.2133428553
0.2133427588
0.2133426599
0.2133425587
0.2133424554
0.2133423501
0.2133422429
0.213342134
0.2133420233
0.213341911
0.2133417971
0.2133416818
0.2133415651
0.2133414471
0.2133413278
0.2133412073
0.2133410856
0.2133409627
0.2133408388
0.2133407139
0.213340588
0.2133404611
0.2133403334
0.2133402047
0.2133400752
0.213339945
0.2133398139
0.2133396822
0.2133395497
0.2133394166
0.2133392829
0.2133391485
0.2133390136
0.2133388782
0.2133387422
0.2133386058
0.2133384689
0.2133383315
0.2133381938
0.2133380557
0.2133379172
0.2133377784
0.2133376392
0.2133374998
0.2133373602
0.2133372202
0.2133370801
0.2133369398
0.2133367993
0.2133366586
0.2133365178
0.213336377
0.213336236
0.2133360949
0.2133359538
0.2133358127
0.2133356716
0.2133355305
0.2133353894
0.2133352484
0.2133351075
0.2133349667
0.213334826
0.2133346854
0.213334545
0.2133344048
0.2133342648
0.2133341249
0.2133339854
0.2133338461
0.213333707
0.2133335683
0.2133334299
0.2133332918
0.2133331541
0.2133330168
0.2133328798
0.2133327433
0.2133326072
0.2133324716
0.2133323365
0.2133322018
0.2133320676
0.213331934