/*--------------------------------*- C++ -*----------------------------------*\
| =========                 |                                                 |
| \\      /  F ield         | OpenFOAM: The Open Source CFD Toolbox           |
|  \\    /   O peration     | Version:  v2006                                 |
|   \\  /    A nd           | Website:  www.openfoam.com                      |
|    \\/     M anipulation  |                                                 |
\*---------------------------------------------------------------------------*/
FoamFile
{
    version     2.0;
    format      ascii;
    class       volScalarField;
    location    "0.075";
    object      OH;
}
// * * * * * * * * * * * * * * * * * * * * * * * * * * * * * * * * * * * * * //

dimensions      [0 0 0 0 0 0 0];


internalField   nonuniform List<scalar> 
72000
(
6.883853124e-06
6.890475465e-06
6.902691042e-06
6.91075293e-06
6.913091345e-06
6.906973781e-06
6.916821038e-06
6.956670132e-06
6.919989879e-06
6.83847484e-06
6.808161607e-06
6.814127122e-06
6.819221473e-06
6.823715577e-06
6.826306359e-06
6.83034759e-06
6.833395585e-06
6.834526739e-06
6.837612474e-06
6.838822253e-06
6.841449555e-06
6.84231425e-06
6.843956285e-06
6.8437113e-06
6.844646695e-06
6.844656493e-06
6.844020486e-06
6.842988078e-06
6.827601505e-06
6.779741569e-06
6.680708525e-06
6.668450719e-06
6.65735731e-06
6.645403889e-06
6.622862457e-06
6.575303343e-06
6.501736244e-06
6.395819336e-06
6.244438992e-06
6.194743425e-06
6.168096534e-06
6.148158103e-06
6.1324848e-06
6.119291204e-06
6.109253228e-06
6.100736632e-06
6.09352604e-06
6.08841237e-06
6.083412599e-06
6.080441065e-06
6.076814279e-06
6.075231012e-06
6.072564503e-06
6.071821007e-06
6.070578052e-06
6.069745134e-06
6.069425234e-06
6.068527999e-06
6.069008027e-06
6.06912339e-06
6.068709397e-06
6.069439468e-06
6.069443006e-06
6.070823707e-06
6.070767613e-06
6.071962577e-06
6.072491738e-06
6.072891358e-06
6.074096137e-06
6.074285395e-06
6.075808723e-06
6.076552728e-06
6.077801319e-06
6.078573417e-06
6.079443922e-06
6.080811008e-06
6.081237449e-06
6.08311321e-06
6.084034555e-06
6.084919879e-06
6.086200269e-06
6.087503392e-06
6.087959339e-06
6.089868356e-06
6.090788359e-06
6.092474156e-06
6.093863296e-06
6.094863945e-06
6.09683097e-06
6.097530807e-06
6.099580297e-06
6.100942448e-06
6.103501745e-06
6.104697908e-06
6.107228696e-06
6.10859269e-06
6.111469357e-06
6.113260132e-06
6.115685206e-06
6.117866122e-06
6.120704782e-06
6.122913466e-06
6.125891526e-06
6.127938007e-06
6.131416059e-06
6.134064352e-06
6.13643945e-06
6.140130535e-06
6.143246399e-06
6.146025669e-06
6.150017741e-06
6.15338228e-06
6.157018376e-06
6.161458259e-06
6.165097362e-06
6.169862801e-06
6.174392599e-06
6.179419471e-06
6.184363072e-06
6.190355091e-06
6.195515447e-06
6.20185042e-06
6.20768903e-06
6.213533294e-06
6.220421383e-06
6.226888417e-06
6.234670262e-06
6.241515395e-06
6.248856645e-06
6.256898766e-06
6.265078705e-06
6.272842234e-06
6.281360815e-06
6.288683524e-06
6.29628796e-06
6.297822649e-06
6.294176534e-06
6.28606126e-06
6.273097707e-06
6.253687478e-06
6.224380644e-06
6.178071683e-06
6.10079833e-06
6.101105591e-06
6.109814847e-06
6.123405845e-06
6.140300246e-06
6.160220997e-06
6.175917935e-06
6.187829492e-06
6.191711187e-06
6.166083166e-06
6.191647695e-06
6.21839817e-06
6.230702379e-06
6.223396518e-06
6.243772443e-06
6.264854072e-06
6.287451616e-06
6.310276249e-06
6.33394328e-06
6.358165947e-06
6.383357444e-06
6.410847466e-06
6.46161701e-06
6.539422657e-06
6.597140963e-06
6.650584115e-06
6.704581639e-06
6.75892032e-06
6.813679732e-06
6.86868682e-06
6.923131297e-06
6.974723973e-06
7.017902723e-06
7.055412737e-06
7.098921165e-06
7.169783259e-06
7.257643405e-06
7.368595511e-06
7.448951564e-06
7.508201077e-06
7.603453722e-06
7.672829035e-06
7.769533384e-06
7.886316869e-06
7.992402165e-06
8.099260936e-06
8.212955771e-06
8.368745431e-06
8.54289385e-06
8.737279685e-06
8.923025174e-06
9.110021547e-06
9.298271615e-06
9.512520944e-06
9.759793751e-06
1.000837412e-05
1.02820413e-05
1.057707566e-05
1.090249313e-05
1.128675802e-05
1.170685964e-05
1.217366196e-05
1.269478763e-05
1.33778213e-05
1.422228213e-05
1.518359801e-05
1.63095892e-05
1.771467041e-05
1.939368599e-05
2.1436179e-05
2.393833233e-05
2.705707515e-05
3.104551756e-05
3.623342569e-05
4.306754987e-05
5.211789247e-05
6.401849858e-05
8.198443347e-05
0.0001020770756
3.516622697e-06
9.652184274e-07
4.821155891e-07
2.711867771e-07
1.979219649e-07
1.431379607e-07
1.013994683e-07
7.342401701e-08
5.439447557e-08
3.991388103e-08
2.987808866e-08
2.324655718e-08
1.823385345e-08
1.42439126e-08
1.14524145e-08
9.337538735e-09
7.688778419e-09
6.378792185e-09
5.328043731e-09
4.481415078e-09
3.776580054e-09
3.17488048e-09
2.678891163e-09
2.273987207e-09
1.941938402e-09
1.667483011e-09
1.438733282e-09
1.246593395e-09
1.08403961e-09
9.456260482e-10
8.270904371e-10
7.250675798e-10
6.368580649e-10
5.602817771e-10
4.935747418e-10
4.352838232e-10
3.842057461e-10
3.393367709e-10
2.998346745e-10
2.649889696e-10
2.341964705e-10
2.069422387e-10
1.827847517e-10
1.613434785e-10
1.422885802e-10
1.253309433e-10
1.101911707e-10
9.667837272e-11
8.474584974e-11
7.429328747e-11
6.486706741e-11
5.639906333e-11
4.880728898e-11
4.201564233e-11
3.59529129e-11
3.0572092e-11
2.593661514e-11
2.20511431e-11
1.872548108e-11
1.581345856e-11
1.32381997e-11
1.094941641e-11
8.912080741e-12
7.097343904e-12
5.481474991e-12
4.042806253e-12
2.762245947e-12
1.621265624e-12
6.017700125e-13
5.604042837e-13
5.524578271e-13
5.453502608e-13
5.389761402e-13
5.332501557e-13
5.28102279e-13
5.234713539e-13
5.193039497e-13
5.155537293e-13
5.12178907e-13
5.091419125e-13
5.064089798e-13
5.039497631e-13
5.017369975e-13
4.997461543e-13
4.979551022e-13
4.96343902e-13
4.948946294e-13
4.935912056e-13
4.924192174e-13
4.913657414e-13
4.904190754e-13
4.895685204e-13
4.888045175e-13
4.881185172e-13
4.875028463e-13
4.869505989e-13
4.864555528e-13
4.860121023e-13
4.856152022e-13
4.852603169e-13
4.849433685e-13
4.846606878e-13
4.844089688e-13
4.841852311e-13
4.839867863e-13
4.838112085e-13
4.836563113e-13
4.835201256e-13
4.834008804e-13
4.832969823e-13
4.832069975e-13
4.831296354e-13
4.83063733e-13
4.830082405e-13
4.8296221e-13
4.829247848e-13
4.828951904e-13
4.828727265e-13
4.828567589e-13
4.82846714e-13
4.82842073e-13
4.828423664e-13
4.828471701e-13
4.828561006e-13
4.8286881e-13
4.828849851e-13
4.829043423e-13
4.829266242e-13
4.829515984e-13
4.829790538e-13
4.830087984e-13
4.830406559e-13
4.83074459e-13
4.831100398e-13
4.831472318e-13
4.831859441e-13
4.832260796e-13
4.832675454e-13
4.833102412e-13
4.833540845e-13
4.833989944e-13
4.834448962e-13
4.834917222e-13
4.83539411e-13
4.83587909e-13
4.83637171e-13
4.836871569e-13
4.837378163e-13
4.837890874e-13
4.838409172e-13
4.838932587e-13
4.839460692e-13
4.839993085e-13
4.840529388e-13
4.841069231e-13
4.841612265e-13
4.842158138e-13
4.842706515e-13
4.843257063e-13
4.843809457e-13
4.844363373e-13
4.844918497e-13
4.845474508e-13
4.846031097e-13
4.846587953e-13
4.847144763e-13
4.847701214e-13
4.848256995e-13
4.848811794e-13
4.849365298e-13
4.849917198e-13
4.850467172e-13
4.8510149e-13
4.851560064e-13
4.852102344e-13
4.852641404e-13
4.853176912e-13
4.853708524e-13
4.854235896e-13
4.854758673e-13
4.855276493e-13
4.855788984e-13
4.856295775e-13
4.856796492e-13
4.857290764e-13
4.857778221e-13
4.858258504e-13
4.858731252e-13
4.859196125e-13
4.859652786e-13
4.860100911e-13
4.860540167e-13
4.860970236e-13
4.861390783e-13
4.861801481e-13
4.862201991e-13
4.862591966e-13
4.86297106e-13
4.863338928e-13
4.863695206e-13
4.864039557e-13
4.86437149e-13
4.864690899e-13
4.864997223e-13
4.865290156e-13
4.865569333e-13
4.865834395e-13
4.866084991e-13
4.866320772e-13
4.866541394e-13
4.866746534e-13
4.866935876e-13
4.86710912e-13
4.867265971e-13
4.867406139e-13
4.867529343e-13
4.867635304e-13
4.867723738e-13
4.867794364e-13
4.867846889e-13
4.867881007e-13
4.867896398e-13
4.867892749e-13
4.86786974e-13
4.867826704e-13
4.867763927e-13
4.867680521e-13
4.867576231e-13
4.867450632e-13
4.867303322e-13
4.867134036e-13
4.866942349e-13
4.866728744e-13
4.866492265e-13
4.866232759e-13
4.865949926e-13
4.865643452e-13
4.865313036e-13
4.86495848e-13
4.86457935e-13
4.864175352e-13
4.863746183e-13
4.863291548e-13
4.862811153e-13
4.86230468e-13
4.861771824e-13
4.861212238e-13
4.860625541e-13
4.860011455e-13
4.859369667e-13
4.858699872e-13
4.858001748e-13
4.857274976e-13
4.856519233e-13
4.855734192e-13
4.854919524e-13
4.8540749e-13
4.853199988e-13
4.852294447e-13
4.851357943e-13
4.850390125e-13
4.849390641e-13
4.848359138e-13
4.847295249e-13
4.846198609e-13
4.84506884e-13
4.843905558e-13
4.842708368e-13
4.841476866e-13
4.840210633e-13
4.838909249e-13
4.837572263e-13
4.836199224e-13
4.83478965e-13
4.833343049e-13
4.831858911e-13
4.830336692e-13
4.828775845e-13
4.82717579e-13
4.825535929e-13
4.823855635e-13
4.822134266e-13
4.820371151e-13
4.818565591e-13
4.816716865e-13
4.814824217e-13
4.812886868e-13
4.810904013e-13
4.808874826e-13
4.806798455e-13
4.804674028e-13
4.802500659e-13
4.800277453e-13
4.798003493e-13
4.795677854e-13
4.793299564e-13
4.790867621e-13
4.788380958e-13
4.785838434e-13
4.783238819e-13
4.780580797e-13
4.777862963e-13
4.775083825e-13
4.772241788e-13
4.769335096e-13
4.766361767e-13
4.763320069e-13
4.760207796e-13
4.7570226e-13
4.7537619e-13
4.750422649e-13
4.747001847e-13
4.74349605e-13
4.739901478e-13
4.736214087e-13
4.732429786e-13
4.728543118e-13
4.724549575e-13
4.720443876e-13
4.716220419e-13
4.711873299e-13
4.707396283e-13
4.702782751e-13
4.698025661e-13
4.693117483e-13
4.688050636e-13
4.682815793e-13
4.677404138e-13
4.671805568e-13
4.666009585e-13
4.660007565e-13
4.653784795e-13
4.647327219e-13
4.640620422e-13
4.633648671e-13
4.626394565e-13
4.618838734e-13
4.610959646e-13
4.602733486e-13
4.594134103e-13
4.585133051e-13
4.575699595e-13
4.565800708e-13
4.555400442e-13
4.544455503e-13
4.532930754e-13
4.520786465e-13
4.507975e-13
4.494442412e-13
4.480130109e-13
4.464973078e-13
4.448899123e-13
4.431828542e-13
4.413673691e-13
4.39433905e-13
4.373724833e-13
4.351722184e-13
4.328212311e-13
4.303065208e-13
4.276138776e-13
4.247278802e-13
4.216319542e-13
4.183088047e-13
4.147409692e-13
4.109113011e-13
4.068040445e-13
4.024069467e-13
3.977147798e-13
3.927350229e-13
3.874942679e-13
3.820588536e-13
3.765538383e-13
3.712138679e-13
3.664514174e-13
3.630056563e-13
3.620263213e-13
3.650589503e-13
6.89720131e-12
1.851807256e-11
8.446529544e-06
8.45008467e-06
8.455981451e-06
8.460921052e-06
8.463206519e-06
8.462751003e-06
8.465366232e-06
8.471772769e-06
8.455232535e-06
8.419234444e-06
8.397208387e-06
8.390557997e-06
8.388945402e-06
8.389430805e-06
8.390830785e-06
8.392458719e-06
8.394282833e-06
8.396140894e-06
8.397725989e-06
8.399134968e-06
8.400136217e-06
8.40079566e-06
8.400845982e-06
8.400238668e-06
8.398610286e-06
8.395525512e-06
8.389965976e-06
8.379862797e-06
8.359913298e-06
8.324936904e-06
8.277786506e-06
8.251204303e-06
8.229750575e-06
8.206308896e-06
8.173829837e-06
8.125686907e-06
8.059456946e-06
7.97510025e-06
7.880959179e-06
7.821756411e-06
7.78330299e-06
7.755739876e-06
7.735038988e-06
7.719133794e-06
7.706357324e-06
7.696564362e-06
7.689213953e-06
7.683389418e-06
7.679255204e-06
7.676140881e-06
7.6742967e-06
7.673122552e-06
7.672871944e-06
7.67302173e-06
7.673971786e-06
7.675678157e-06
7.677426931e-06
7.679700492e-06
7.682042887e-06
7.684934369e-06
7.68832366e-06
7.691632047e-06
7.695346589e-06
7.698983997e-06
7.70298038e-06
7.706857893e-06
7.71113058e-06
7.715779335e-06
7.720294664e-06
7.725099379e-06
7.729780126e-06
7.734768184e-06
7.739576116e-06
7.74474166e-06
7.750270743e-06
7.755588419e-06
7.761175454e-06
7.766581162e-06
7.772346152e-06
7.778438545e-06
7.784307135e-06
7.790535625e-06
7.797116778e-06
7.803525586e-06
7.810249621e-06
7.816839544e-06
7.823848925e-06
7.831309194e-06
7.838760169e-06
7.84663037e-06
7.854478318e-06
7.862820696e-06
7.871188636e-06
7.880056095e-06
7.88897441e-06
7.898410612e-06
7.907912796e-06
7.917934315e-06
7.928018849e-06
7.938665316e-06
7.949381961e-06
7.96192961e-06
7.976369757e-06
7.991490861e-06
8.006609509e-06
8.022498287e-06
8.039124161e-06
8.055698095e-06
8.073000054e-06
8.09104268e-06
8.10907682e-06
8.127887432e-06
8.147559639e-06
8.167312179e-06
8.187876857e-06
8.208650251e-06
8.230338315e-06
8.25228882e-06
8.275261682e-06
8.298540646e-06
8.322791702e-06
8.347369531e-06
8.373065604e-06
8.399912643e-06
8.427125197e-06
8.455410557e-06
8.48421057e-06
8.514205152e-06
8.544626402e-06
8.575375097e-06
8.606390171e-06
8.637510207e-06
8.668467963e-06
8.698632902e-06
8.727005524e-06
8.75124579e-06
8.770708297e-06
8.785304889e-06
8.794598776e-06
8.797260626e-06
8.791279245e-06
8.775249669e-06
8.75406885e-06
8.770885791e-06
8.80488479e-06
8.848320576e-06
8.89875275e-06
8.952374057e-06
9.004017085e-06
9.052840299e-06
9.098134165e-06
9.142757294e-06
9.210119233e-06
9.291938495e-06
9.371440503e-06
9.44097894e-06
9.518339678e-06
9.601177686e-06
9.687747531e-06
9.777971235e-06
9.871894181e-06
9.97059841e-06
1.007470599e-05
1.018852027e-05
1.032360692e-05
1.047990338e-05
1.063161699e-05
1.078248641e-05
1.093553614e-05
1.109179016e-05
1.125158059e-05
1.14147796e-05
1.158063593e-05
1.174746658e-05
1.192541063e-05
1.211714188e-05
1.232391861e-05
1.256044159e-05
1.282890161e-05
1.312847121e-05
1.342531049e-05
1.372580108e-05
1.405886607e-05
1.439636031e-05
1.476930222e-05
1.517690449e-05
1.562104482e-05
1.61061867e-05
1.661517375e-05
1.717792136e-05
1.779295841e-05
1.846218475e-05
1.916106714e-05
1.989858756e-05
2.073584153e-05
2.168079205e-05
2.271884604e-05
2.383653169e-05
2.50711843e-05
2.646216887e-05
2.812134489e-05
2.994975205e-05
3.198715059e-05
3.429932304e-05
3.709964485e-05
4.090183304e-05
4.528658194e-05
5.054512357e-05
5.680078104e-05
6.416645e-05
7.306916311e-05
8.365650478e-05
9.616536965e-05
0.0001111565196
0.0001286038513
0.0001487065417
0.0001706545181
0.0001888266964
0.0001797310823
0.000107100719
2.934121988e-05
4.669040538e-06
1.626640962e-06
1.082193919e-06
7.235330314e-07
4.677267523e-07
2.732916421e-07
1.983382464e-07
1.580583726e-07
1.236527911e-07
9.728778641e-08
7.658746452e-08
5.928139701e-08
4.584105024e-08
3.589507309e-08
2.851057651e-08
2.303847889e-08
1.885682487e-08
1.557841479e-08
1.298078905e-08
1.089280929e-08
9.207255982e-09
7.833769122e-09
6.705826474e-09
5.77140441e-09
4.990666861e-09
4.333032933e-09
3.775100154e-09
3.298764225e-09
2.889841271e-09
2.537093262e-09
2.231513597e-09
1.965817439e-09
1.734048785e-09
1.531281607e-09
1.353420425e-09
1.197045216e-09
1.059270387e-09
9.376644117e-10
8.301523603e-10
7.34958561e-10
6.505592555e-10
5.756393071e-10
5.090610006e-10
4.498363129e-10
3.971052447e-10
3.501219977e-10
3.082368166e-10
2.709619561e-10
2.378925671e-10
2.084602671e-10
1.819526528e-10
1.581638537e-10
1.368406225e-10
1.177667295e-10
1.007418135e-10
8.564841811e-11
7.241406694e-11
6.09353579e-11
5.092679174e-11
4.210361585e-11
3.42768419e-11
2.731154686e-11
2.110581728e-11
1.557594959e-11
1.065034535e-11
6.266067651e-12
2.364499701e-12
1.19158329e-12
1.161491948e-12
1.134541226e-12
1.110419076e-12
1.088770833e-12
1.069312211e-12
1.051801459e-12
1.036035317e-12
1.021830336e-12
1.009024927e-12
9.974806148e-13
9.870707123e-13
9.77681401e-13
9.692104013e-13
9.615658056e-13
9.546650812e-13
9.484340281e-13
9.428056113e-13
9.377194206e-13
9.331211578e-13
9.289621411e-13
9.2519874e-13
9.217919369e-13
9.187063953e-13
9.159095115e-13
9.133723879e-13
9.110691867e-13
9.089767085e-13
9.07074067e-13
9.053424358e-13
9.037648505e-13
9.023260489e-13
9.010123139e-13
8.998113222e-13
8.987119892e-13
8.977043339e-13
8.967793593e-13
8.959289537e-13
8.951458014e-13
8.944233151e-13
8.937555661e-13
8.931372299e-13
8.925635214e-13
8.920301441e-13
8.915332354e-13
8.910693191e-13
8.906352648e-13
8.902282492e-13
8.898457288e-13
8.894854068e-13
8.891452114e-13
8.888232716e-13
8.885179003e-13
8.882275729e-13
8.879509172e-13
8.876866963e-13
8.874337956e-13
8.871912103e-13
8.86958038e-13
8.867334644e-13
8.865167576e-13
8.863072587e-13
8.861043727e-13
8.85907564e-13
8.857163471e-13
8.8553027e-13
8.853488712e-13
8.85171622e-13
8.849983621e-13
8.848288346e-13
8.846627812e-13
8.84499959e-13
8.843401483e-13
8.841831471e-13
8.840287727e-13
8.838768604e-13
8.837272646e-13
8.835798633e-13
8.834345625e-13
8.832912958e-13
8.831499569e-13
8.830103855e-13
8.828724616e-13
8.827360879e-13
8.826011792e-13
8.824676568e-13
8.823354477e-13
8.822044831e-13
8.820746971e-13
8.819460268e-13
8.818184131e-13
8.816917964e-13
8.815661205e-13
8.814413301e-13
8.813173715e-13
8.811941917e-13
8.810717371e-13
8.809499573e-13
8.808288006e-13
8.807082145e-13
8.805881491e-13
8.804685527e-13
8.803493741e-13
8.802305627e-13
8.801120659e-13
8.799938306e-13
8.79875806e-13
8.797579367e-13
8.796401685e-13
8.79522444e-13
8.794047037e-13
8.792868875e-13
8.791689313e-13
8.790507699e-13
8.78932334e-13
8.788135534e-13
8.786943576e-13
8.785746745e-13
8.784544335e-13
8.783335653e-13
8.782120006e-13
8.780896749e-13
8.779665235e-13
8.778424844e-13
8.777174953e-13
8.77591492e-13
8.774644094e-13
8.773361794e-13
8.772067311e-13
8.770759897e-13
8.769438795e-13
8.768103212e-13
8.766752334e-13
8.765385322e-13
8.76400132e-13
8.762599505e-13
8.761178963e-13
8.759738792e-13
8.758278071e-13
8.756795888e-13
8.755291324e-13
8.753763474e-13
8.752211437e-13
8.750634334e-13
8.749031314e-13
8.747401557e-13
8.745744241e-13
8.744058559e-13
8.742343701e-13
8.740598851e-13
8.73882317e-13
8.737015804e-13
8.735175845e-13
8.733302341e-13
8.731394266e-13
8.729450544e-13
8.727470046e-13
8.725451566e-13
8.72339402e-13
8.721296033e-13
8.719156255e-13
8.716973123e-13
8.714745146e-13
8.712471639e-13
8.710149726e-13
8.707783092e-13
8.705366383e-13
8.702899636e-13
8.700381464e-13
8.697810491e-13
8.695185321e-13
8.692505224e-13
8.689768103e-13
8.686972669e-13
8.684117464e-13
8.681201042e-13
8.67822195e-13
8.675178535e-13
8.672069333e-13
8.668892551e-13
8.665646168e-13
8.662328738e-13
8.658938456e-13
8.655473559e-13
8.651932204e-13
8.648312495e-13
8.64461249e-13
8.6408302e-13
8.636963576e-13
8.633010521e-13
8.62896889e-13
8.624836463e-13
8.620610971e-13
8.616290064e-13
8.611871334e-13
8.607352298e-13
8.602730387e-13
8.598002972e-13
8.59316732e-13
8.588220614e-13
8.583159944e-13
8.577982304e-13
8.572684579e-13
8.567263534e-13
8.561715818e-13
8.556037951e-13
8.550226307e-13
8.544277124e-13
8.538186485e-13
8.531950298e-13
8.525564331e-13
8.519024162e-13
8.512325197e-13
8.505462654e-13
8.498431566e-13
8.491226749e-13
8.48384282e-13
8.476274167e-13
8.468514941e-13
8.460559066e-13
8.452400222e-13
8.444031846e-13
8.435447134e-13
8.426639036e-13
8.417600271e-13
8.408323309e-13
8.398800381e-13
8.389023428e-13
8.378984083e-13
8.368673605e-13
8.358082802e-13
8.347201997e-13
8.336020966e-13
8.324528914e-13
8.312714479e-13
8.300565709e-13
8.288070082e-13
8.275214198e-13
8.261983093e-13
8.248363338e-13
8.234338652e-13
8.21989229e-13
8.205006566e-13
8.189661064e-13
8.173836057e-13
8.157509389e-13
8.140657352e-13
8.123254682e-13
8.10527708e-13
8.086691599e-13
8.067471643e-13
8.047585408e-13
8.026999817e-13
8.005680123e-13
7.983589746e-13
7.960690109e-13
7.936940461e-13
7.912297694e-13
7.886716174e-13
7.860147195e-13
7.832539049e-13
7.803836145e-13
7.773978132e-13
7.742897553e-13
7.710531503e-13
7.676811139e-13
7.641661305e-13
7.60500055e-13
7.566740287e-13
7.526783878e-13
7.485025835e-13
7.441351277e-13
7.395635629e-13
7.347744525e-13
7.297533806e-13
7.24484967e-13
7.189529682e-13
7.131406883e-13
7.07028818e-13
7.005979414e-13
6.938260129e-13
6.86688572e-13
6.791595431e-13
6.712102179e-13
6.628090305e-13
6.53921461e-13
6.445098006e-13
6.345328323e-13
6.239480085e-13
6.127088071e-13
6.007648631e-13
5.88061504e-13
5.745394793e-13
5.601350996e-13
5.447803048e-13
5.284045623e-13
5.109373189e-13
4.923097332e-13
4.724589467e-13
4.513363749e-13
4.289211213e-13
4.052411957e-13
3.804029657e-13
3.546469343e-13
3.284435356e-13
3.026405412e-13
2.786524293e-13
2.590263819e-13
2.5512729e-13
2.626652135e-13
2.721715261e-13
2.960761539e-13
1.097464965e-05
1.097690659e-05
1.098052356e-05
1.098385639e-05
1.09856663e-05
1.09856876e-05
1.098515142e-05
1.098234823e-05
1.09698959e-05
1.094854723e-05
1.093133608e-05
1.092204531e-05
1.09178272e-05
1.091655122e-05
1.091699831e-05
1.091832437e-05
1.092016821e-05
1.092222056e-05
1.092413177e-05
1.092577202e-05
1.092688331e-05
1.092733813e-05
1.092682306e-05
1.092506623e-05
1.092152223e-05
1.091546871e-05
1.09056545e-05
1.089017224e-05
1.086636749e-05
1.083302682e-05
1.079414007e-05
1.076089761e-05
1.072943816e-05
1.069472038e-05
1.065163777e-05
1.059614746e-05
1.052729476e-05
1.04479568e-05
1.036764603e-05
1.030452626e-05
1.025765116e-05
1.022263023e-05
1.019618062e-05
1.017610003e-05
1.016083806e-05
1.014955752e-05
1.014151868e-05
1.01359285e-05
1.013253613e-05
1.013082995e-05
1.013073979e-05
1.013184806e-05
1.013415822e-05
1.013735584e-05
1.014157409e-05
1.014669559e-05
1.015234096e-05
1.015861091e-05
1.016530424e-05
1.017264123e-05
1.018056577e-05
1.018876649e-05
1.019737825e-05
1.020619048e-05
1.021537894e-05
1.022477088e-05
1.023462925e-05
1.024492358e-05
1.025537887e-05
1.026614259e-05
1.027702247e-05
1.028820176e-05
1.029951657e-05
1.031124193e-05
1.032336542e-05
1.033560634e-05
1.034812896e-05
1.036078344e-05
1.037385855e-05
1.038734121e-05
1.040099734e-05
1.04150902e-05
1.042962266e-05
1.04443316e-05
1.045940492e-05
1.047470443e-05
1.049053018e-05
1.050690004e-05
1.052641914e-05
1.0546713e-05
1.05673756e-05
1.058870417e-05
1.061050802e-05
1.063309628e-05
1.065627585e-05
1.06802432e-05
1.070475749e-05
1.07300688e-05
1.075596286e-05
1.078270594e-05
1.081010409e-05
1.083852129e-05
1.086775061e-05
1.089791665e-05
1.092875785e-05
1.096063006e-05
1.099348516e-05
1.10269914e-05
1.106147475e-05
1.109695088e-05
1.113312691e-05
1.117036257e-05
1.12086936e-05
1.124778604e-05
1.128791418e-05
1.132890202e-05
1.137107342e-05
1.141424943e-05
1.145875648e-05
1.150436437e-05
1.155137196e-05
1.159961022e-05
1.164947733e-05
1.170098469e-05
1.175377906e-05
1.180808263e-05
1.18636626e-05
1.192069667e-05
1.197872638e-05
1.203749829e-05
1.2096796e-05
1.215632149e-05
1.221557096e-05
1.227365831e-05
1.232927982e-05
1.238116265e-05
1.242849015e-05
1.247084486e-05
1.251478451e-05
1.255797762e-05
1.259575176e-05
1.263048748e-05
1.267045619e-05
1.273366568e-05
1.281571642e-05
1.291160133e-05
1.301788521e-05
1.313060637e-05
1.324598461e-05
1.3362975e-05
1.348208052e-05
1.360682561e-05
1.374635394e-05
1.389491902e-05
1.404664811e-05
1.42011373e-05
1.436500633e-05
1.453774683e-05
1.47185719e-05
1.489471614e-05
1.510133986e-05
1.532106376e-05
1.555299618e-05
1.580136386e-05
1.607157415e-05
1.636177965e-05
1.666040552e-05
1.696593601e-05
1.727948519e-05
1.760202693e-05
1.793422284e-05
1.827644629e-05
1.862881119e-05
1.899205953e-05
1.94145568e-05
1.985571194e-05
2.032567558e-05
2.083525548e-05
2.138850292e-05
2.19838826e-05
2.261058209e-05
2.327632217e-05
2.400457157e-05
2.485083106e-05
2.575415487e-05
2.671603307e-05
2.773138589e-05
2.880603567e-05
2.995263688e-05
3.121572995e-05
3.26873864e-05
3.427752432e-05
3.598663468e-05
3.783202609e-05
3.980089106e-05
4.207305165e-05
4.455139818e-05
4.726308335e-05
5.031218611e-05
5.388788762e-05
5.774042475e-05
6.201740772e-05
6.717141432e-05
7.281475196e-05
7.928402104e-05
8.76946373e-05
9.742096649e-05
0.0001089281788
0.0001219481786
0.0001373846583
0.0001547745159
0.0001751670634
0.0001979690213
0.000223925991
0.0002517386716
0.0002790406163
0.0002976561086
0.0002863293046
0.000217510133
0.0001089065675
3.236868422e-05
6.963200963e-06
2.827349974e-06
1.663493063e-06
1.114126926e-06
7.883108874e-07
5.721380286e-07
3.750869076e-07
2.491633411e-07
2.009986793e-07
1.616636879e-07
1.244624249e-07
9.471159354e-08
7.256978501e-08
5.65069227e-08
4.482153046e-08
3.607486869e-08
2.945968278e-08
2.437030222e-08
2.03828822e-08
1.720807407e-08
1.464470901e-08
1.254306004e-08
1.080566084e-08
9.352909613e-09
8.128619583e-09
7.088818278e-09
6.200156528e-09
5.436383853e-09
4.776808733e-09
4.204797211e-09
3.706894158e-09
3.272103729e-09
2.891353259e-09
2.557084981e-09
2.262974911e-09
2.003679291e-09
1.774670049e-09
1.57207932e-09
1.392606642e-09
1.233409403e-09
1.092040959e-09
9.663773768e-10
8.545759291e-10
7.550312928e-10
6.663462171e-10
5.873050666e-10
5.168572579e-10
4.540887587e-10
3.981317828e-10
3.480692007e-10
3.031606466e-10
2.629552967e-10
2.270032137e-10
1.949265847e-10
1.663893767e-10
1.411157594e-10
1.188469551e-10
9.927077595e-11
8.199267114e-11
6.666241577e-11
5.301814171e-11
4.085590735e-11
3.001066589e-11
2.03422631e-11
1.172860608e-11
4.061024057e-12
1.677537492e-12
1.620749931e-12
1.569770257e-12
1.524018792e-12
1.482925761e-12
1.445967639e-12
1.412700351e-12
1.382730656e-12
1.355730389e-12
1.331386515e-12
1.309419272e-12
1.289600587e-12
1.271712547e-12
1.255561068e-12
1.240971665e-12
1.22778758e-12
1.215868158e-12
1.205087346e-12
1.195330816e-12
1.18649545e-12
1.178488527e-12
1.171227008e-12
1.164636413e-12
1.158649306e-12
1.153204958e-12
1.148249481e-12
1.143733871e-12
1.13961412e-12
1.135850712e-12
1.13240805e-12
1.129254023e-12
1.126359669e-12
1.123698927e-12
1.121248391e-12
1.118987046e-12
1.11689601e-12
1.114958286e-12
1.113158553e-12
1.111483e-12
1.109919175e-12
1.108455859e-12
1.107082967e-12
1.105791443e-12
1.104573164e-12
1.103420846e-12
1.102327949e-12
1.101288596e-12
1.100297503e-12
1.099349912e-12
1.098441541e-12
1.097568534e-12
1.096727415e-12
1.095915051e-12
1.09512862e-12
1.09436558e-12
1.093623646e-12
1.09290076e-12
1.092195077e-12
1.091504938e-12
1.090828853e-12
1.090165489e-12
1.089513645e-12
1.088872249e-12
1.088240336e-12
1.087617043e-12
1.0870016e-12
1.086393329e-12
1.085791663e-12
1.085196178e-12
1.084606146e-12
1.084021077e-12
1.083440563e-12
1.082864234e-12
1.082291762e-12
1.081722852e-12
1.081157239e-12
1.080594688e-12
1.080034989e-12
1.079477967e-12
1.078923499e-12
1.078371576e-12
1.07782211e-12
1.077274799e-12
1.076729495e-12
1.076186089e-12
1.075644488e-12
1.075104611e-12
1.074566383e-12
1.074029737e-12
1.073494612e-12
1.072960953e-12
1.072428708e-12
1.07189783e-12
1.071368274e-12
1.070839999e-12
1.070312967e-12
1.06978714e-12
1.069262484e-12
1.068738966e-12
1.068216555e-12
1.067695219e-12
1.067174931e-12
1.06665566e-12
1.066137381e-12
1.065620067e-12
1.065103691e-12
1.064588226e-12
1.06407365e-12
1.063559935e-12
1.063047053e-12
1.062534976e-12
1.062023672e-12
1.061513105e-12
1.061003239e-12
1.060494029e-12
1.059985429e-12
1.059477388e-12
1.058969854e-12
1.058462773e-12
1.057956091e-12
1.057449756e-12
1.056943719e-12
1.056437934e-12
1.055932356e-12
1.055426944e-12
1.054921658e-12
1.054416452e-12
1.05391128e-12
1.053406088e-12
1.052900816e-12
1.052395398e-12
1.051889761e-12
1.051383828e-12
1.050877517e-12
1.050370743e-12
1.049863415e-12
1.049355439e-12
1.048846714e-12
1.048337137e-12
1.047826599e-12
1.047314989e-12
1.046802198e-12
1.046288111e-12
1.045772617e-12
1.04525561e-12
1.044736981e-12
1.044216629e-12
1.043694451e-12
1.043170348e-12
1.042644216e-12
1.042115949e-12
1.04158544e-12
1.041052574e-12
1.040517229e-12
1.039979273e-12
1.03943856e-12
1.038894933e-12
1.038348222e-12
1.037798251e-12
1.03724484e-12
1.036687797e-12
1.036126918e-12
1.035561935e-12
1.034992499e-12
1.034418595e-12
1.033840066e-12
1.033256796e-12
1.032668484e-12
1.032074951e-12
1.031475976e-12
1.030871324e-12
1.030260624e-12
1.029643994e-12
1.029020868e-12
1.028391075e-12
1.027754339e-12
1.027110386e-12
1.026458977e-12
1.025799761e-12
1.025132501e-12
1.024456884e-12
1.023772432e-12
1.023078942e-12
1.022376032e-12
1.021663369e-12
1.020940587e-12
1.02020731e-12
1.019463153e-12
1.018707717e-12
1.017940591e-12
1.017161353e-12
1.016369563e-12
1.015564773e-12
1.014746514e-12
1.013914307e-12
1.013067652e-12
1.012206035e-12
1.011328924e-12
1.010435769e-12
1.009526001e-12
1.008599029e-12
1.007654242e-12
1.006691009e-12
1.005708673e-12
1.004706552e-12
1.003683939e-12
1.002640098e-12
1.001574263e-12
1.000485638e-12
9.993733937e-13
9.982366648e-13
9.970745522e-13
9.958861197e-13
9.946703919e-13
9.934263555e-13
9.921529545e-13
9.908490889e-13
9.89513613e-13
9.881453342e-13
9.867430078e-13
9.853053398e-13
9.838309814e-13
9.823185304e-13
9.807665324e-13
9.791734757e-13
9.775377963e-13
9.758578752e-13
9.741320378e-13
9.723585502e-13
9.705356103e-13
9.686613383e-13
9.667337619e-13
9.647508075e-13
9.627102899e-13
9.606099065e-13
9.584472337e-13
9.562197305e-13
9.539247637e-13
9.515596232e-13
9.491208194e-13
9.466059166e-13
9.440113355e-13
9.413336116e-13
9.385693175e-13
9.357139265e-13
9.327636811e-13
9.297140298e-13
9.26560208e-13
9.232971733e-13
9.199196159e-13
9.16421824e-13
9.127979685e-13
9.090418506e-13
9.051469669e-13
9.011064979e-13
8.969132902e-13
8.925598318e-13
8.880382218e-13
8.833401395e-13
8.784568147e-13
8.733789897e-13
8.680968786e-13
8.626000781e-13
8.568774807e-13
8.50917263e-13
8.447071869e-13
8.38234358e-13
8.314850774e-13
8.244446989e-13
8.170974419e-13
8.094262289e-13
8.014125613e-13
7.93036439e-13
7.842763421e-13
7.751092568e-13
7.655106997e-13
7.554547455e-13
7.449140805e-13
7.338599604e-13
7.222615436e-13
7.100855317e-13
6.97298579e-13
6.838659355e-13
6.69749248e-13
6.549062464e-13
6.392912593e-13
6.228556759e-13
6.055484972e-13
5.873170696e-13
5.681053339e-13
5.478573571e-13
5.265169822e-13
5.04027701e-13
4.803337346e-13
4.553833175e-13
4.291298356e-13
4.015405259e-13
3.72607585e-13
3.423551095e-13
3.108545153e-13
2.782505438e-13
2.447990251e-13
2.405905425e-13
2.431421101e-13
2.459825532e-13
2.491665959e-13
2.527627562e-13
2.568560969e-13
2.615490954e-13
2.669543519e-13
2.731646275e-13
2.801566005e-13
2.875296128e-13
1.409646009e-05
1.409798837e-05
1.410039343e-05
1.410274895e-05
1.410418205e-05
1.410420826e-05
1.410266684e-05
1.409821654e-05
1.408868759e-05
1.407486962e-05
1.406234406e-05
1.405405849e-05
1.40497226e-05
1.404832286e-05
1.404892034e-05
1.405074753e-05
1.405329197e-05
1.4056125e-05
1.405884429e-05
1.406114501e-05
1.406270589e-05
1.406323961e-05
1.406235274e-05
1.4059592e-05
1.405430404e-05
1.404563662e-05
1.403240461e-05
1.401315071e-05
1.398666686e-05
1.395306041e-05
1.391504773e-05
1.387688468e-05
1.383745705e-05
1.37936923e-05
1.374228982e-05