/*--------------------------------*- C++ -*----------------------------------*\
| =========                 |                                                 |
| \\      /  F ield         | OpenFOAM: The Open Source CFD Toolbox           |
|  \\    /   O peration     | Version:  v2006                                 |
|   \\  /    A nd           | Website:  www.openfoam.com                      |
|    \\/     M anipulation  |                                                 |
\*---------------------------------------------------------------------------*/
FoamFile
{
    version     2.0;
    format      ascii;
    class       volScalarField;
    location    "0.075";
    object      p;
}
// * * * * * * * * * * * * * * * * * * * * * * * * * * * * * * * * * * * * * //

dimensions      [1 -1 -2 0 0 0 0];


internalField   nonuniform List<scalar> 
72000
(
101330.9201
101330.918
101330.9179
101330.9174
101330.9151
101330.9125
101330.9116
101330.9122
101330.9098
101330.8956
101330.8561
101330.9301
101330.9555
101330.9026
101330.8716
101330.8556
101330.8751
101330.9354
101330.9855
101330.9648
101330.8804
101330.8724
101330.8446
101330.8215
101330.878
101330.8544
101330.8317
101330.8879
101330.8948
101330.8884
101330.9256
101330.8831
101330.8433
101330.8267
101330.8564
101330.8799
101330.8931
101330.8992
101330.8748
101330.7433
101330.9406
101331.0176
101330.8579
101331.1213
101331.0617
101330.9641
101330.6945
101330.9492
101330.7956
101330.7895
101330.9504
101330.7623
101330.9131
101330.7561
101330.9469
101330.8225
101331.0373
101331.0105
101330.7262
101330.8389
101331.1077
101331.0008
101330.9393
101330.7066
101330.5692
101330.6456
101330.9522
101331.0859
101331.0435
101331.0009
101330.7874
101330.7361
101330.7558
101330.9233
101330.7821
101331.0408
101330.9847
101330.7061
101330.8099
101330.6606
101330.5838
101330.651
101330.9453
101331.0538
101330.813
101330.9964
101330.6969
101330.686
101330.6425
101330.9087
101330.8971
101330.645
101330.7073
101330.8946
101330.6644
101330.6195
101330.6158
101330.7691
101330.9935
101331.1039
101331.004
101330.7207
101330.6655
101330.5959
101330.6089
101330.6132
101330.4957
101330.516
101330.4881
101330.4776
101330.4991
101330.4795
101330.612
101330.6418
101330.7379
101330.9743
101330.7471
101330.8314
101330.568
101330.5009
101330.5927
101330.6005
101330.5122
101330.5092
101330.4307
101330.4912
101330.534
101330.5238
101330.5014
101330.6497
101330.77
101330.9723
101330.8443
101330.6684
101330.7575
101330.7589
101330.7476
101330.7339
101330.7162
101330.6922
101330.6634
101330.637
101330.6189
101330.5292
101330.6007
101331.0071
101330.8328
101330.7314
101330.6712
101330.6358
101330.6105
101330.5792
101330.5381
101330.5723
101330.5914
101330.5128
101330.5504
101330.5437
101330.7288
101330.5476
101330.647
101330.4903
101330.6294
101330.5608
101330.5733
101330.5868
101330.5888
101330.5836
101330.5766
101330.5693
101330.5615
101330.5522
101330.5418
101330.5344
101330.5343
101330.4787
101330.5124
101330.519
101330.5191
101330.5156
101330.5091
101330.5002
101330.4891
101330.4766
101330.4637
101330.451
101330.4395
101330.4294
101330.4208
101330.4137
101330.4075
101330.4018
101330.3962
101330.3901
101330.3833
101330.3755
101330.3666
101330.3567
101330.3464
101330.3363
101330.3273
101330.3198
101330.3126
101330.2992
101330.2515
101330.274
101330.2626
101330.2451
101330.228
101330.2127
101330.199
101330.1867
101330.1761
101330.1674
101330.1618
101330.1605
101330.1659
101330.1839
101330.2081
101330.2063
101330.3107
101330.4318
101330.5041
101330.594
101330.6737
101330.7568
101330.8381
101330.9157
101330.9899
101331.0597
101331.1239
101331.1826
101331.237
101331.2877
101331.3348
101331.3786
101331.4198
101331.4586
101331.4953
101331.53
101331.5628
101331.5936
101331.6226
101331.6497
101331.6749
101331.6984
101331.7203
101331.7406
101331.7597
101331.7775
101331.7944
101331.8103
101331.8254
101331.8398
101331.8536
101331.8667
101331.8794
101331.8916
101331.9035
101331.9151
101331.9267
101331.9384
101331.9502
101331.9623
101331.9747
101331.9875
101332.0005
101332.0137
101332.0269
101332.0401
101332.053
101332.0656
101332.0778
101332.0896
101332.1009
101332.1117
101332.1222
101332.1324
101332.1425
101332.1524
101332.1623
101332.1722
101332.1822
101332.1923
101332.2024
101332.2125
101332.2225
101332.2324
101332.242
101332.2515
101332.2607
101332.2696
101332.2785
101332.2872
101332.2959
101332.3048
101332.3138
101332.3232
101332.3329
101332.3429
101332.3532
101332.3637
101332.3743
101332.3849
101332.3953
101332.4053
101332.4148
101332.4237
101332.4321
101332.4398
101332.447
101332.4538
101332.4603
101332.4667
101332.4732
101332.48
101332.4871
101332.4948
101332.5032
101332.5122
101332.5218
101332.532
101332.5427
101332.5537
101332.5649
101332.5761
101332.5871
101332.5979
101332.6084
101332.6184
101332.628
101332.6372
101332.6459
101332.6544
101332.6625
101332.6705
101332.6784
101332.6863
101332.6943
101332.7023
101332.7104
101332.7186
101332.727
101332.7354
101332.7438
101332.7523
101332.7607
101332.7691
101332.7773
101332.7855
101332.7935
101332.8015
101332.8094
101332.8172
101332.8251
101332.833
101332.841
101332.8492
101332.8575
101332.8661
101332.875
101332.8842
101332.8936
101332.9033
101332.9133
101332.9234
101332.9336
101332.9439
101332.9541
101332.9643
101332.9742
101332.9839
101332.9933
101333.0024
101333.0112
101333.0197
101333.028
101333.036
101333.0438
101333.0516
101333.0594
101333.0672
101333.0752
101333.0833
101333.0916
101333.1001
101333.1089
101333.1179
101333.127
101333.1363
101333.1458
101333.1552
101333.1647
101333.1741
101333.1835
101333.1927
101333.2018
101333.2108
101333.2196
101333.2283
101333.2369
101333.2454
101333.2539
101333.2622
101333.2706
101333.2789
101333.2872
101333.2955
101333.3039
101333.3122
101333.3205
101333.3288
101333.3371
101333.3454
101333.3537
101333.3619
101333.3702
101333.3784
101333.3867
101333.395
101333.4034
101333.4118
101333.4202
101333.4287
101333.4373
101333.4459
101333.4545
101333.4632
101333.4719
101333.4806
101333.4893
101333.4979
101333.5065
101333.515
101333.5234
101333.5318
101333.5401
101333.5483
101333.5564
101333.5644
101333.5724
101333.5803
101333.5882
101333.596
101333.6037
101333.6114
101333.6191
101333.6267
101333.6343
101333.6418
101333.6492
101333.6566
101333.6639
101333.6711
101333.6783
101333.6854
101333.6926
101333.6997
101333.7068
101333.7139
101333.7211
101333.7283
101333.7356
101333.7429
101333.7503
101333.7577
101333.7652
101333.7727
101333.7802
101333.7877
101333.7951
101333.8025
101333.8098
101333.8169
101333.8239
101333.8308
101333.8375
101333.844
101333.8504
101333.8565
101333.8625
101333.8684
101333.8741
101333.8798
101333.8853
101333.8908
101333.8962
101333.9015
101333.9069
101333.9122
101333.9175
101333.9229
101333.9282
101333.9336
101333.9389
101333.9443
101333.9497
101333.955
101333.9603
101333.9655
101333.9707
101333.9758
101333.9809
101333.9858
101333.9907
101333.9954
101334.0001
101334.0047
101334.0091
101334.0135
101334.0178
101334.0221
101334.0263
101334.0304
101334.0346
101334.0387
101334.0428
101334.047
101334.0512
101334.0554
101334.0596
101334.0638
101334.068
101334.0722
101334.0764
101334.0806
101334.0847
101334.0887
101334.0926
101334.0964
101334.1001
101334.1036
101334.107
101334.1103
101334.1134
101334.1163
101334.1192
101334.1219
101334.1245
101334.1271
101334.1295
101334.1319
101334.1342
101334.1365
101334.1388
101334.141
101334.1432
101334.1453
101334.1475
101334.1496
101334.1516
101334.1537
101334.1556
101334.1576
101334.1595
101334.1613
101334.1631
101334.1648
101334.1665
101334.1681
101334.1697
101334.1713
101334.1728
101334.1743
101334.1758
101334.1772
101334.1787
101334.1801
101334.1815
101334.1829
101334.1843
101334.1857
101334.1871
101334.1884
101334.1897
101334.191
101334.1922
101334.1934
101334.1946
101334.1957
101334.1967
101334.1978
101334.1988
101334.1998
101334.2007
101334.2016
101334.2025
101334.2034
101334.2043
101334.2052
101334.206
101334.2069
101334.2077
101334.2085
101334.2093
101334.2101
101334.2108
101334.2115
101334.2122
101334.2131
101330.9254
101330.9214
101330.9196
101330.9178
101330.915
101330.9123
101330.9111
101330.9117
101330.9118
101330.9082
101330.9043
101330.925
101330.9288
101330.9164
101330.9111
101330.9028
101330.8967
101330.907
101330.9226
101330.9163
101330.8902
101330.8848
101330.8778
101330.8774
101330.89
101330.8819
101330.8809
101330.8961
101330.8979
101330.8906
101330.8883
101330.8796
101330.8654
101330.8601
101330.8726
101330.8846
101330.8927
101330.8979
101330.892
101330.8671
101330.9061
101330.9076
101330.8893
101330.9399
101330.9213
101330.8924
101330.8413
101330.8983
101330.8831
101330.8686
101330.871
101330.8295
101330.8401
101330.8276
101330.8698
101330.8821
101330.9354
101330.9361
101330.8818
101330.9287
101330.9797
101330.937
101330.854
101330.7623
101330.7201
101330.7574
101330.8411
101330.8987
101330.8957
101330.8884
101330.8596
101330.8463
101330.8421
101330.8492
101330.8311
101330.878
101330.8588
101330.7891
101330.7628
101330.7175
101330.7098
101330.7423
101330.8194
101330.8734
101330.8417
101330.8549
101330.7804
101330.7549
101330.7569
101330.8145
101330.8097
101330.7499
101330.7459
101330.7862
101330.7485
101330.7364
101330.7442
101330.7953
101330.8722
101330.9182
101330.8935
101330.8265
101330.7924
101330.7475
101330.7138
101330.7063
101330.6698
101330.629
101330.601
101330.5972
101330.6108
101330.6439
101330.7008
101330.7665
101330.8141
101330.8389
101330.7622
101330.7449
101330.6509
101330.6108
101330.6354
101330.6392
101330.6138
101330.6204
101330.612
101330.5914
101330.592
101330.5862
101330.5911
101330.6774
101330.7549
101330.8296
101330.8118
101330.7649
101330.7625
101330.753
101330.7414
101330.7283
101330.7116
101330.6898
101330.6646
101330.6424
101330.6338
101330.6429
101330.6958
101330.7969
101330.7544
101330.7016
101330.6618
101330.6375
101330.6214
101330.6051
101330.5897
101330.6078
101330.6192
101330.605
101330.5946
101330.601
101330.6268
101330.5989
101330.5861
101330.5555
101330.5601
101330.5634
101330.5774
101330.5869
101330.5879
101330.5836
101330.5775
101330.5711
101330.5641
101330.5558
101330.5466
101330.5381
101330.5318
101330.5227
101330.5225
101330.5229
101330.521
101330.5166
101330.5098
101330.5009
101330.4901
101330.4782
101330.4658
101330.4538
101330.4427
101330.4329
101330.4245
101330.4174
101330.4112
101330.4054
101330.3997
101330.3937
101330.387
101330.3794
101330.3709
101330.3615
101330.3517
101330.3421
101330.3333
101330.3254
101330.3179
101330.3084
101330.2938
101330.2849
101330.2715
101330.2565
101330.2422
101330.2294
101330.2183
101330.2091
101330.2019
101330.1973
101330.1963
101330.1997
101330.2082
101330.2214
101330.2399
101330.2921
101330.4644
101330.5944
101330.6298
101330.6815
101330.7522
101330.8245
101330.895
101330.9665
101331.0294
101331.0857
101331.1401
101331.1939
101331.2458
101331.2942
101331.3393
101331.3818
101331.422
101331.46
101331.4961
101331.5303
101331.5627
101331.5932
101331.622
101331.6489
101331.674
101331.6975
101331.7193
101331.7397
101331.7587
101331.7766
101331.7935
101331.8095
101331.8247
101331.8391
101331.8529
101331.8662
101331.8789
101331.8911
101331.903
101331.9147
101331.9264
101331.9381
101331.9499
101331.9621
101331.9745
101331.9873
101332.0003
101332.0135
101332.0268
101332.0399
101332.0529
101332.0655
101332.0777
101332.0894
101332.1007
101332.1115
101332.122
101332.1322
101332.1422
101332.1521
101332.162
101332.1719
101332.1819
101332.192
101332.2021
101332.2122
101332.2222
101332.232
101332.2417
101332.2512
101332.2604
101332.2694
101332.2782
101332.287
101332.2957
101332.3046
101332.3137
101332.3231
101332.3328
101332.3428
101332.3531
101332.3636
101332.3742
101332.3848
101332.3951
101332.4051
101332.4147
101332.4236
101332.4319
101332.4397
101332.4469
101332.4537
101332.4602
101332.4666
101332.4731
101332.4799
101332.4871
101332.4948
101332.5032
101332.5121
101332.5218
101332.532
101332.5426
101332.5536
101332.5647
101332.5759
101332.587
101332.5978
101332.6082
101332.6182
101332.6278
101332.637
101332.6457
101332.6542
101332.6624
101332.6704
101332.6783
101332.6862
101332.6941
101332.7021
101332.7103
101332.7185
101332.7268
101332.7353
101332.7437
101332.7522
101332.7606
101332.7689
101332.7772
101332.7854
101332.7934
101332.8014
101332.8093
101332.8172
101332.825
101332.8329
101332.8409
101332.8491
101332.8575
101332.8661
101332.8749
101332.8841
101332.8935
101332.9032
101332.9132
101332.9233
101332.9335
101332.9438
101332.954
101332.9641
101332.974
101332.9837
101332.9931
101333.0022
101333.011
101333.0195
101333.0277
101333.0357
101333.0436
101333.0514
101333.0591
101333.067
101333.0749
101333.0831
101333.0914
101333.1
101333.1087
101333.1177
101333.1269
101333.1362
101333.1456
101333.1551
101333.1646
101333.174
101333.1833
101333.1926
101333.2017
101333.2106
101333.2194
101333.2281
101333.2367
101333.2452
101333.2536
101333.262
101333.2704
101333.2787
101333.287
101333.2953
101333.3036
101333.312
101333.3203
101333.3286
101333.3369
101333.3452
101333.3534
101333.3617
101333.37
101333.3782
101333.3865
101333.3948
101333.4032
101333.4115
101333.42
101333.4285
101333.437
101333.4456
101333.4543
101333.4629
101333.4716
101333.4803
101333.489
101333.4976
101333.5062
101333.5147
101333.5231
101333.5315
101333.5397
101333.5479
101333.556
101333.5641
101333.5721
101333.58
101333.5878
101333.5956
101333.6034
101333.6111
101333.6188
101333.6264
101333.634
101333.6415
101333.6489
101333.6563
101333.6636
101333.6708
101333.678
101333.6852
101333.6923
101333.6994
101333.7065
101333.7136
101333.7208
101333.728
101333.7353
101333.7426
101333.75
101333.7574
101333.7649
101333.7724
101333.7799
101333.7873
101333.7948
101333.8021
101333.8094
101333.8166
101333.8236
101333.8304
101333.8371
101333.8436
101333.85
101333.8561
101333.8621
101333.868
101333.8737
101333.8794
101333.8849
101333.8903
101333.8958
101333.9011
101333.9065
101333.9118
101333.9171
101333.9225
101333.9278
101333.9332
101333.9386
101333.9439
101333.9493
101333.9546
101333.9599
101333.9652
101333.9704
101333.9755
101333.9805
101333.9855
101333.9904
101333.9951
101333.9998
101334.0043
101334.0088
101334.0132
101334.0175
101334.0217
101334.0259
101334.0301
101334.0342
101334.0384
101334.0425
101334.0467
101334.0508
101334.055
101334.0592
101334.0635
101334.0677
101334.0719
101334.0761
101334.0802
101334.0843
101334.0883
101334.0923
101334.0961
101334.0997
101334.1033
101334.1067
101334.1099
101334.1131
101334.116
101334.1189
101334.1216
101334.1242
101334.1268
101334.1292
101334.1316
101334.1339
101334.1362
101334.1385
101334.1407
101334.1429
101334.145
101334.1472
101334.1493
101334.1514
101334.1534
101334.1554
101334.1573
101334.1592
101334.1611
101334.1628
101334.1646
101334.1663
101334.1679
101334.1695
101334.171
101334.1726
101334.1741
101334.1756
101334.177
101334.1785
101334.1799
101334.1813
101334.1827
101334.1842
101334.1855
101334.1869
101334.1882
101334.1895
101334.1908
101334.1921
101334.1933
101334.1944
101334.1955
101334.1966
101334.1977
101334.1987
101334.1996
101334.2006
101334.2015
101334.2024
101334.2033
101334.2042
101334.2051
101334.2059
101334.2068
101334.2076
101334.2084
101334.2093
101334.21
101334.2108
101334.2115
101334.2123
101334.2131
101330.9261
101330.9231
101330.9208
101330.9181
101330.915
101330.912
101330.9104
101330.9108
101330.9121
101330.9134
101330.9159
101330.9233
101330.9242
101330.9198
101330.9162
101330.9111
101330.9045
101330.9032
101330.9055
101330.9031
101330.8954
101330.8936
101330.8935
101330.8957
101330.8977
101330.895
101330.8961
101330.9001
101330.8998
101330.8945
101330.8888
101330.8848
101330.8809
101330.8799
101330.8843
101330.889
101330.8926
101330.8952
101330.8943
101330.8883
101330.8882
101330.8781
101330.8699
101330.8784
101330.8809
101330.8833
101330.8865
101330.8957
101330.8895
101330.8726
101330.8558
101330.8377
101330.8345
101330.8389
101330.8584
101330.8801
101330.9065
101330.9202
101330.9237
101330.9301
101330.9298
101330.899
101330.8424
101330.7874
101330.7775
101330.7923
101330.82
101330.8433
101330.8523
101330.8573
101330.8587
101330.8586
101330.8507
101330.84
101330.8301
101330.8325
101330.8232
101330.799
101330.7712
101330.747
101330.7436
101330.7576
101330.7865
101330.8119
101330.8189
101330.8161
101330.796
101330.7843
101330.7948
101330.798
101330.7928
101330.7785
101330.766
101330.7678
101330.767
101330.7752
101330.7861
101330.7963
101330.8263
101330.8529
101330.8542
101330.8487
101330.825
101330.7961
101330.7746
101330.7624
101330.7415
101330.7045
101330.6774
101330.6705
101330.683
101330.7118
101330.7518
101330.7931
101330.8119
101330.8031
101330.7724
101330.7494
101330.7122
101330.6866
101330.6812
101330.6812
101330.6827
101330.6902
101330.6869
101330.6672
101330.655
101330.6529
101330.6672
101330.7095
101330.7532
101330.7852
101330.7843
101330.768
101330.7554
101330.744
101330.733
101330.7208
101330.7056
101330.6868
101330.6657
101330.6472
101330.6392
101330.6484
101330.6759
101330.7059
101330.6941
101330.6706
101330.6508
101330.6389
101330.6323
101330.6277
101330.6257
101330.633
101330.6359
101330.6269
101330.6143
101330.6069
101330.6048
101330.5932
101330.581
101330.5685
101330.5669
101330.5728
101330.5818
101330.5871
101330.5872
101330.5836
101330.5787
101330.5734
101330.5675
101330.5607
101330.553
101330.5453
101330.5386
101330.533
101330.5301
101330.5275
101330.5237
101330.5183
101330.511
101330.502
101330.4916
101330.4803
101330.4687
101330.4574
101330.4469
101330.4375
101330.4294
101330.4223
101330.4161
101330.4102
101330.4045
101330.3985
101330.392
101330.3847
101330.3765
101330.3677
101330.3585
101330.3494
101330.3407
101330.3325
101330.3246
101330.3161
101330.3055
101330.2945
101330.2822
101330.2697
101330.2578
101330.2473
101330.2384
101330.2312
101330.2261
101330.2236
101330.2241
101330.2281
101330.2363
101330.2537
101330.2936
101330.3778
101330.5189
101330.6113
101330.6546
101330.7149
101330.7859
101330.8592
101330.9254
101330.9797
101331.0418
101331.1068
101331.1605
101331.2106
101331.2584
101331.3049
101331.3481
101331.3887
101331.4273
101331.4639
101331.4989
101331.5322
101331.5638
101331.5937
101331.622
101331.6486
101331.6735
101331.6968
101331.7186
101331.7389
101331.758
101331.7759
101331.7929
101331.8089
101331.8241
101331.8386
101331.8525
101331.8658
101331.8785
101331.8909
101331.9029
101331.9146
101331.9263
101331.9381
101331.95
101331.9621
101331.9746
101331.9874
101332.0004
101332.0136
101332.0268
101332.04
101332.0529
101332.0655
101332.0776
101332.0893
101332.1005
101332.1113
101332.1218
101332.1319
101332.1419
101332.1518
101332.1616
101332.1715
101332.1815
101332.1915
101332.2016
101332.2117
101332.2217
101332.2316
101332.2413
101332.2508
101332.26
101332.2691
101332.2779
101332.2868
101332.2956
101332.3045
101332.3136
101332.323
101332.3327
101332.3427
101332.353
101332.3636
101332.3742
101332.3847
101332.395
101332.405
101332.4145
101332.4234
101332.4318
101332.4396
101332.4468
101332.4536
101332.4602
101332.4666
101332.4731
101332.4799
101332.4871
101332.4948
101332.5032
101332.5122
101332.5218
101332.5319
101332.5425
101332.5535
101332.5646
101332.5757
101332.5867
101332.5975
101332.6079
101332.6179
101332.6275
101332.6367
101332.6454
101332.6539
101332.6621
101332.6701
101332.678
101332.6859
101332.6939
101332.7019
101332.7101
101332.7183
101332.7267
101332.7351
101332.7435
101332.752
101332.7604
101332.7688
101332.7771
101332.7852
101332.7933
101332.8013
101332.8092
101332.8171
101332.825
101332.8329
101332.8409
101332.8491
101332.8575
101332.8661
101332.8749
101332.8841
101332.8935
101332.9032
101332.9131
101332.9232
101332.9334
101332.9436
101332.9538
101332.9638
101332.9737
101332.9834
101332.9927
101333.0018
101333.0106
101333.0191
101333.0273
101333.0353
101333.0432
101333.051
101333.0588
101333.0667
101333.0747
101333.0828
101333.0912
101333.0998
101333.1086
101333.1176
101333.1268
101333.1361
101333.1455
101333.155
101333.1645
101333.1739
101333.1832
101333.1924
101333.2015
101333.2104
101333.2192
101333.2279
101333.2365
101333.245
101333.2534
101333.2617
101333.2701
101333.2784
101333.2867
101333.295
101333.3034
101333.3117
101333.32
101333.3283
101333.3366
101333.3449
101333.3532
101333.3615
101333.3697
101333.378
101333.3863
101333.3946
101333.4029
101333.4113
101333.4197
101333.4282
101333.4367
101333.4453
101333.4539
101333.4626
101333.4713
101333.4799
101333.4886
101333.4972
101333.5058
101333.5143
101333.5227
101333.531
101333.5393
101333.5475
101333.5556
101333.5636
101333.5716
101333.5795
101333.5874
101333.5952
101333.603
101333.6107
101333.6184
101333.626
101333.6336
101333.6411
101333.6485
101333.6559
101333.6632
101333.6705
101333.6777
101333.6849
101333.692
101333.6991
101333.7062
101333.7133
101333.7205
101333.7277
101333.735
101333.7423
101333.7496
101333.7571
101333.7645
101333.772
101333.7795
101333.7869
101333.7944
101333.8017
101333.809
101333.8161
101333.8231
101333.8299
101333.8366
101333.8431
101333.8494
101333.8556
101333.8616
101333.8675
101333.8732
101333.8788
101333.8844
101333.8898
101333.8952
101333.9006
101333.906
101333.9113
101333.9167
101333.922
101333.9274
101333.9327
101333.9381
101333.9435
101333.9489
101333.9542
101333.9595
101333.9648
101333.97
101333.9751
101333.9802
101333.9851
101333.99
101333.9947
101333.9994
101334.004
101334.0084
101334.0128
101334.0171
101334.0214
101334.0256
101334.0297
101334.0339
101334.038
101334.0421
101334.0463
101334.0505
101334.0546
101334.0589
101334.0631
101334.0673
101334.0715
101334.0757
101334.0799
101334.0839
101334.088
101334.0919
101334.0957
101334.0994
101334.1029
101334.1063
101334.1096
101334.1127
101334.1157
101334.1185
101334.1213
101334.1239
101334.1264
101334.1289
101334.1313
101334.1336
101334.1359
101334.1381
101334.1404
101334.1426
101334.1447
101334.1469
101334.149
101334.151
101334.1531
101334.1551
101334.157
101334.1589
101334.1608
101334.1626
101334.1643
101334.166
101334.1676
101334.1692
101334.1708
101334.1723
101334.1738
101334.1753
101334.1768
101334.1782
101334.1797
101334.1811
101334.1826
101334.184
101334.1854
101334.1867
101334.1881
101334.1894
101334.1907
101334.1919
101334.1931
101334.1943
101334.1954
101334.1965
101334.1975
101334.1985
101334.1995
101334.2005
101334.2014
101334.2023
101334.2032
101334.2041
101334.205
101334.2059
101334.2067
101334.2076
101334.2084
101334.2092
101334.21
101334.2108
101334.2115
101334.2123
101334.2131
101330.9261
101330.9236
101330.9211
101330.9182
101330.9149
101330.9117
101330.9097
101330.9093
101330.9104
101330.9124
101330.9151
101330.9184
101330.9186
101330.916
101330.9127
101330.9086
101330.9039
101330.9007
101330.8993
101330.8976
101330.8954
101330.8953
101330.8965
101330.8981
101330.8985
101330.8977
101330.898
101330.899
101330.8981
101330.8949
101330.8913
101330.889
101330.888
101330.8883
101330.8902
101330.8919
101330.8931
101330.8936
101330.892
101330.8872
101330.8806
101330.871
101330.8643
101330.8651
101330.869
101330.8751
101330.8804
101330.8825
101330.8758
101330.8629
101330.8497
101330.84
101330.8383
101330.8438
101330.8562
101330.872
101330.8886
101330.9005
101330.906
101330.9064
101330.8978
101330.8758
101330.8439
101330.816
101330.8064
101330.8103
101330.8206
101330.8312
101330.8388
101330.845
101330.8497
101330.8514
101330.8472
101330.8391
101330.8302
101330.8236
101330.8134
101330.7972
101330.778
101330.7623
101330.757
101330.7633
101330.7786
101330.7954
101330.8068
101330.8108
101330.8076
101330.8052
101330.8067
101330.8058
101330.8019
101330.7948
101330.7889
101330.7854
101330.7833
101330.786
101330.7914
101330.7993
101330.8144
101330.8301
101330.8372
101330.8364
101330.8249
101330.8089
101330.7937
101330.7789
101330.7594
101330.7353
101330.7174
101330.7131
101330.7233
101330.7441
101330.7693
101330.7905
101330.7988
101330.7928
101330.7775
101330.7609
101330.7403
101330.7224
101330.7125
101330.7101
101330.7135
101330.719
101330.7185
101330.71
101330.7037
101330.7044
101330.7146
101330.7343
101330.754
101330.7657
101330.764
101330.7545
101330.744
101330.734
101330.7241
101330.713
101330.6996
101330.6836
101330.6663
101330.6508
101330.6417
101330.6427
101330.6526
101330.6624
101330.6595
101330.651
101330.6437
101330.64
101330.6392
101330.6397
101330.6411
101330.6433
101330.6415
101330.6328
101330.6204
101330.609
101330.6
101330.5905
101330.5821
101330.5763
101330.5758
101330.5796
101330.5845
101330.5871
101330.5865
101330.5837
101330.58
101330.5758
101330.571
101330.5654
101330.559
101330.5524
101330.5461
101330.5407
101330.5361
101330.5316
101330.5264
101330.52
101330.5122
101330.5032
101330.493
101330.4823
101330.4714
101330.4609
101330.451
101330.4421
101330.4342
101330.4272
101330.4209
101330.415
101330.4092
101330.4032
101330.3968
101330.3898
101330.382
101330.3736
101330.3648
101330.3561
101330.3475
101330.3392
101330.331
101330.3226
101330.3132
101330.3027
101330.2916
101330.2809
101330.271
101330.2621
101330.2546
101330.2488
101330.2447
101330.243
101330.2438
101330.2475
101330.257
101330.2795
101330.3286
101330.4159
101330.5323
101330.6221
101330.6885
101330.7619
101330.8351
101330.9056
101330.9732
101331.0352
101331.0813
101331.1212
101331.1772
101331.2396
101331.2878
101331.3268
101331.364
101331.4021
101331.4388
101331.4733
101331.506
101331.5377
101331.5681
101331.597
101331.6244
101331.6503
101331.6748
101331.6977
101331.7193
101331.7394
101331.7584
101331.7763
101331.7932
101331.8092
101331.8245
101331.839
101331.8529
101331.8662
101331.879
101331.8914
101331.9034
101331.9152
101331.9269
101331.9387
101331.9506
101331.9628
101331.9753
101331.9881
101332.0011
101332.0142
101332.0274
101332.0405
101332.0533
101332.0658
101332.0779
101332.0895
101332.1007
101332.1114
101332.1218
101332.1319
101332.1418
101332.1516
101332.1614
101332.1712
101332.1811
101332.1911
101332.2012
101332.2112
101332.2212
101332.2311
101332.2408
101332.2503
101332.2596
101332.2687
101332.2777
101332.2866
101332.2954
101332.3044
101332.3136
101332.323
101332.3327
101332.3428
101332.3531
101332.3636
101332.3741
101332.3846
101332.3949
101332.4049
101332.4144
101332.4233
101332.4317
101332.4395
101332.4467
101332.4536
101332.4602
101332.4667
101332.4732
101332.48
101332.4873
101332.495
101332.5033
101332.5123
101332.5219
101332.532
101332.5425
101332.5534
101332.5645
101332.5755
101332.5865
101332.5972
101332.6076
101332.6176
101332.6271
101332.6363
101332.6451
101332.6535
101332.6618
101332.6698
101332.6778
101332.6857
101332.6937
101332.7017
101332.7099
101332.7181
101332.7265
101332.7349
101332.7434
101332.7518
101332.7603
101332.7687
101332.777
101332.7851
101332.7932
101332.8013
101332.8092
101332.8171
101332.825
101332.8329
101332.841
101332.8492
101332.8575
101332.8661
101332.875
101332.8841
101332.8935
101332.9032
101332.9131
101332.9231
101332.9332
101332.9434
101332.9535
101332.9635
101332.9734
101332.983
101332.9923
101333.0013
101333.0101
101333.0185
101333.0268
101333.0348
101333.0427
101333.0505
101333.0584
101333.0663
101333.0743
101333.0825
101333.0909
101333.0996
101333.1084
101333.1175
101333.1267
101333.1361
101333.1455
101333.155
101333.1644
101333.1738
101333.1831
101333.1923
101333.2014
101333.2103
101333.2191
101333.2277
101333.2363
101333.2447
101333.2531
101333.2615
101333.2698
101333.2781
101333.2864
101333.2948
101333.3031
101333.3114
101333.3198
101333.3281
101333.3364
101333.3447
101333.353
101333.3613
101333.3696
101333.3778
101333.3861
101333.3944
101333.4027
101333.4111
101333.4195
101333.428
101333.4365
101333.4451
101333.4537
101333.4623
101333.471
101333.4796
101333.4882
101333.4968
101333.5054
101333.5139
101333.5223
101333.5306
101333.5389
101333.5471
101333.5552
101333.5632
101333.5712
101333.5791
101333.587
101333.5948
101333.6026
101333.6103
101333.618
101333.6256
101333.6332
101333.6408
101333.6482
101333.6556
101333.663
101333.6702
101333.6775
101333.6846
101333.6918
101333.6989
101333.706
101333.7131
101333.7203
101333.7275
101333.7347
101333.742
101333.7494
101333.7568
101333.7642
101333.7717
101333.7792
101333.7866
101333.794
101333.8013
101333.8086
101333.8157
101333.8227
101333.8295
101333.8361
101333.8426
101333.849
101333.8551
101333.8611
101333.867
101333.8727
101333.8783
101333.8839
101333.8893
101333.8948
101333.9001
101333.9055
101333.9109
101333.9162
101333.9216
101333.927
101333.9324
101333.9377
101333.9431
101333.9485
101333.9539
101333.9592
101333.9645
101333.9697
101333.9748
101333.9799
101333.9848
101333.9897
101333.9945
101333.9991
101334.0037
101334.0082
101334.0126
101334.0169
101334.0211
101334.0253
101334.0294
101334.0336
101334.0377
101334.0419
101334.046
101334.0502
101334.0544
101334.0586
101334.0628
101334.067
101334.0712
101334.0754
101334.0796
101334.0836
101334.0877
101334.0916
101334.0954
101334.0991
101334.1026
101334.106
101334.1093
101334.1124
101334.1154
101334.1182
101334.121
101334.1236
101334.1261
101334.1286
101334.131
101334.1333
101334.1356
101334.1379
101334.1401
101334.1423
101334.1445
101334.1466
101334.1487
101334.1508
101334.1528
101334.1548
101334.1568
101334.1587
101334.1605
101334.1623
101334.1641
101334.1658
101334.1674
101334.169
101334.1706
101334.1721
101334.1737
101334.1752
101334.1766
101334.1781
101334.1795
101334.181
101334.1824
101334.1838
101334.1852
101334.1866
101334.1879
101334.1893
101334.1905
101334.1918
101334.193
101334.1942
101334.1953
101334.1964
101334.1974
101334.1985
101334.1994
101334.2004
101334.2014
101334.2023
101334.2032
101334.2041
101334.205
101334.2058
101334.2067
101334.2076
101334.2084
101334.2092
101334.21
101334.2108
101334.2115
101334.2123
101334.2132
101330.9257
101330.9234
101330.9209
101330.918
101330.9148
101330.9116
101330.9092
101330.9081
101330.9083
101330.9095
101330.9111
101330.9125
101330.9123
101330.9104
101330.9076
101330.9042
101330.9005
101330.8972
101330.8948
101330.893
101330.892
101330.8922
101330.8932
101330.8944
101330.8948
101330.8947
101330.8947
101330.8947
101330.8939
101330.8921
101330.8903
101330.8896
101330.89
101330.8912
101330.8929
101330.8942
101330.8948
101330.8944
101330.8922
101330.8876
101330.8808
101330.8729
101330.8668
101330.8647
101330.8658
101330.8686
101330.8705
101330.8695
101330.8641
101330.856
101330.8484
101330.8441