/*--------------------------------*- C++ -*----------------------------------*\
| =========                 |                                                 |
| \\      /  F ield         | OpenFOAM: The Open Source CFD Toolbox           |
|  \\    /   O peration     | Version:  v2006                                 |
|   \\  /    A nd           | Website:  www.openfoam.com                      |
|    \\/     M anipulation  |                                                 |
\*---------------------------------------------------------------------------*/
FoamFile
{
    version     2.0;
    format      ascii;
    class       surfaceScalarField;
    location    "0.075";
    object      phi;
}
// * * * * * * * * * * * * * * * * * * * * * * * * * * * * * * * * * * * * * //

dimensions      [1 0 -1 0 0 0 0];
oriented        oriented;


internalField   nonuniform List<scalar> 
143280
(
-7.851995581e-10
-9.961629491e-12
-7.782791008e-10
-8.050725143e-12
-7.713524439e-10
-6.214507688e-12
-7.657842559e-10
-4.828976295e-12
-7.613064474e-10
-3.971974052e-12
-7.579717408e-10
-3.215046258e-12
-7.555181135e-10
-2.469117291e-12
-7.554792277e-10
-1.127887956e-12
-7.424264594e-10
2.086810918e-12
-7.390703399e-10
-6.865212016e-13
-7.488113371e-10
-4.871727422e-12
-7.347922315e-10
2.1897568e-12
-7.281293267e-10
4.756005422e-13
-7.352734666e-10
-4.694912025e-12
-7.322774902e-10
-3.807307984e-12
-7.266477704e-10
-2.589690388e-12
-7.311136118e-10
-3.786361087e-12
-7.246668494e-10
2.667740536e-13
-7.196271166e-10
2.048722874e-12
-7.110266185e-10
1.522677526e-12
-7.167851153e-10
-5.381403695e-12
-7.174521868e-10
-5.168589929e-12
-7.174573407e-10
-4.671374393e-12
-7.094308071e-10
-2.203265885e-12
-7.075439961e-10
-3.069911367e-12
-7.087553713e-10
-3.310888036e-12
-7.019014547e-10
-1.522705649e-12
-6.993482755e-10
-1.476320687e-12
-6.962677836e-10
-2.25121481e-12
-6.945989062e-10
-3.467671067e-12
-6.923872666e-10
-3.976902746e-12
-6.960100754e-10
-6.228832976e-12
-6.939621969e-10
-5.485539275e-12
-6.928317404e-10
-5.174766135e-12
-6.875325181e-10
-2.576351902e-12
-6.840291386e-10
-1.879330768e-12
-6.817147972e-10
-1.738131995e-12
-6.789452331e-10
-1.533928714e-12
-6.708346485e-10
-1.545167753e-12
-6.871633584e-10
-5.226785405e-12
-6.562337712e-10
9.027676972e-12
-6.497012457e-10
3.841249299e-12
-6.731969241e-10
-7.104582507e-12
-6.656823381e-10
1.728870631e-12
-6.659177009e-10
2.303915151e-12
-6.528089998e-10
3.112491978e-12
-6.651516821e-10
-6.389631079e-12
-6.419614301e-10
3.99851047e-12
-6.486558128e-10
-5.490915625e-12
-6.563359195e-10
-7.245421872e-12
-6.4023823e-10
9.180897676e-13
-6.538882547e-10
-7.306166183e-12
-6.371162288e-10
6.522467587e-13
-6.503819396e-10
-6.720086959e-12
-6.348371223e-10
1.591445913e-12
-6.50452578e-10
-5.747293874e-12
-6.401805959e-10
4.020319368e-12
-6.258540273e-10
5.478624082e-12
-6.363712421e-10
-5.033464587e-12
-6.446433894e-10
-1.362124572e-12
-6.356355553e-10
9.906977401e-12
-6.069753951e-10
1.380734036e-11
-5.961793045e-10
4.166700098e-12
-6.261307384e-10
-1.539355923e-11
-6.242345691e-10
-1.137937312e-11
-6.275864025e-10
-7.545992882e-12
-6.179005982e-10
2.150783987e-12
-6.142154973e-10
4.876365291e-12
-6.150663098e-10
3.106107029e-12
-6.075476218e-10
3.225252161e-12
-6.14912822e-10
-5.316201024e-12
-6.10371014e-10
-4.35160024e-12
-6.150269144e-10
-3.72623174e-12
-5.975231555e-10
3.249296267e-12
-6.152793847e-10
-5.221534949e-12
-6.043009867e-10
5.548334161e-12
-5.934097599e-10
5.168959241e-12
-5.997854647e-10
-1.635248445e-12
-5.779642536e-10
1.95715996e-12
-5.995001044e-10
-1.23842837e-11
-5.988169458e-10
-9.086014146e-12
-6.062432406e-10
-6.359518932e-12
-5.991947539e-10
3.054195821e-12
-5.88695983e-10
5.431156718e-12
-6.034953489e-10
-3.356190597e-12
-5.829171678e-10
4.244011472e-12
-5.904179805e-10
-7.815800017e-12
-6.066328646e-10
-1.218717946e-11
-6.057387799e-10
-4.531392869e-12
-5.91144081e-10
6.230107999e-12
-5.768743503e-10
5.183298453e-12
-5.819597181e-10
-5.644387776e-12
-6.057905702e-10
-1.085992337e-11
-5.819342717e-10
3.490019356e-12
-5.87785152e-10
-3.970757632e-12
-5.839644432e-10
-3.589646386e-12
-5.770491654e-10
-4.295199046e-12
-6.03764924e-10
-9.346728671e-12
-5.968967082e-10
3.737213155e-12
-5.923931333e-10
9.926914739e-12
-5.84093441e-10
8.982687118e-12
-5.85879382e-10
2.627315768e-12
-5.826074077e-10
-1.071183746e-12
-5.786834989e-10
-4.231755644e-12
-5.919844924e-10
-1.096567839e-11
-5.9938599e-10
-1.032187701e-11
-5.821342631e-10
-6.210155792e-12
-5.898630741e-10
-1.236621793e-11
-5.975360081e-10
-1.522500864e-11
-6.059451732e-10
-1.504484814e-11
-6.13469669e-10
-1.269133116e-11
-6.045413297e-10
-5.718141117e-12
-6.152596774e-10
-6.28014072e-12
-6.048666104e-10
2.046799274e-12
-6.054765695e-10
4.387565438e-12
-5.852513437e-10
9.98207336e-12
-6.18737795e-10
-4.065848247e-12
-5.904030421e-10
6.149654955e-12
-6.046206952e-10
-9.768899306e-12
-6.134152188e-10
-1.344227047e-11
-6.216826521e-10
-1.186380857e-11
-6.306347237e-10
-1.079125432e-11
-6.396176763e-10
-1.030002764e-11
-6.42140552e-10
-5.19815786e-12
-6.20823398e-10
2.048962655e-12
-6.282498185e-10
-5.784305483e-12
-6.350165974e-10
-5.683652283e-12
-6.413252914e-10
-6.597098707e-12
-6.524052334e-10
-9.868457443e-12
-6.613346608e-10
-2.821298e-12
-6.765236315e-10
3.203014066e-12
-6.508510999e-10
1.829864824e-11
-6.684215258e-10
9.477331091e-12
-6.652917732e-10
1.077838462e-11
-6.715566398e-10
8.694465063e-12
-6.786129009e-10
7.025757557e-12
-6.854645911e-10
6.357434938e-12
-6.922825118e-10
6.152767502e-12
-6.991196687e-10
6.223549869e-12
-7.057677417e-10
6.477721665e-12
-7.121431416e-10
6.763684962e-12
-7.184379756e-10
6.721558783e-12
-7.242226618e-10
7.56883663e-12
-7.40140432e-10
5.715335067e-12
-7.541484607e-10
1.139462928e-11
-7.261381747e-10
2.556498726e-11
-7.586633564e-10
8.717940455e-12
-7.720550358e-10
6.621341685e-12
-7.839035137e-10
8.045828155e-12
-7.941716901e-10
9.366691486e-12
-8.03447917e-10
1.090943527e-11
-8.053183166e-10
1.25702919e-11
-8.276418279e-10
7.390190551e-12
-8.339071662e-10
1.128370609e-11
-8.375305459e-10
1.206226019e-11
-8.550740722e-10
7.492749815e-12
-8.793336807e-10
5.584814298e-12
-9.004131509e-10
1.033372527e-11
-9.002710229e-10
1.975905792e-11
-9.247986941e-10
1.543138035e-11
-9.284031809e-10
1.934444184e-11
-9.573949312e-10
1.272320287e-11
-9.713902298e-10
1.701994619e-11
-9.89617428e-10
1.720012013e-11
-1.00676604e-09
1.853069744e-11
-1.025685233e-09
1.946629021e-11
-1.046018981e-09
2.007232949e-11
-1.067219146e-09
2.082554157e-11
-1.088944305e-09
2.172481151e-11
-1.111135134e-09
2.269101434e-11
-1.133899072e-09
2.363076801e-11
-1.157411711e-09
2.446443804e-11
-1.18190735e-09
2.508449664e-11
-1.207581302e-09
2.523418717e-11
-1.237022723e-09
2.473227395e-11
-1.2694219e-09
2.540986353e-11
-1.297089844e-09
2.903098804e-11
-1.327558038e-09
3.108234913e-11
-1.360269538e-09
3.304663862e-11
-1.394902118e-09
3.473804062e-11
-1.431280264e-09
3.626716412e-11
-1.46973808e-09
3.815120939e-11
-1.510301276e-09
4.010396759e-11
-1.552997874e-09
4.215793896e-11
-1.59818939e-09
4.465614918e-11
-1.645817882e-09
4.717226266e-11
-1.695868199e-09
4.972679773e-11
-1.748592814e-09
5.255583479e-11
-1.804463077e-09
5.585250871e-11
-1.863971656e-09
5.961684158e-11
-1.92749681e-09
6.372547049e-11
-1.995278813e-09
6.804130448e-11
-2.067616579e-09
7.263175749e-11
-2.144784583e-09
7.748847456e-11
-2.227226117e-09
8.278167685e-11
-2.315650294e-09
8.878195133e-11
-2.41045961e-09
9.517110257e-11
-2.512455385e-09
1.023376782e-10
-2.622649742e-09
1.104672152e-10
-2.74179453e-09
1.192884279e-10
-2.870779112e-09
1.289568744e-10
-3.01076395e-09
1.398186687e-10
-3.163265032e-09
1.524744818e-10
-3.328794182e-09
1.667672977e-10
-3.512406994e-09
1.828517635e-10
-3.714022178e-09
2.027902695e-10
-3.938624965e-09
2.24491808e-10
-4.188111513e-09
2.492036571e-10
-4.466198793e-09
2.778889751e-10
-4.777381963e-09
3.110988145e-10
-5.126977095e-09
3.495871949e-10
-5.521636745e-09
3.946857599e-10
-5.969150552e-09
4.475358704e-10
-6.477702524e-09
5.085529004e-10
-7.05460986e-09
5.768844424e-10
-7.702601959e-09
6.479515489e-10
-8.417787614e-09
7.151380338e-10
-9.172912497e-09
7.55104308e-10
-9.818692027e-09
6.457632955e-10
-1.009808735e-08
2.792997128e-10
-1.042573235e-08
3.27347199e-10
-1.090395095e-08
4.787344039e-10
-1.124764917e-08
3.441666944e-10
-1.155666402e-08
3.09508037e-10
-1.164658091e-08
9.031751753e-11
-1.157109493e-08
-7.519522701e-11
-1.137711426e-08
-1.937635581e-10
-1.111235706e-08
-2.645802826e-10
-1.078237237e-08
-3.298854797e-10
-1.040118423e-08
-3.810727987e-10
-1.000373422e-08
-3.973662961e-10
-9.598747965e-09
-4.049023034e-10
-9.200839789e-09
-3.977984735e-10
-8.822741504e-09
-3.779346391e-10
-8.474172856e-09
-3.483401714e-10
-8.157320751e-09
-3.165498638e-10
-7.872209001e-09
-2.847380466e-10
-7.616585217e-09
-2.551882698e-10
-7.386903486e-09
-2.292023229e-10
-7.179711522e-09
-2.066918448e-10
-6.991944102e-09
-1.872775954e-10
-6.821378103e-09
-1.701071261e-10
-6.666006377e-09
-1.54965245e-10
-6.523930612e-09
-1.417381699e-10
-6.393568551e-09
-1.301025151e-10
-6.27363122e-09
-1.197583669e-10
-6.163000781e-09
-1.105290807e-10
-6.060688762e-09
-1.022813828e-10
-5.965841576e-09
-9.487825902e-11
-5.87771535e-09
-8.820950288e-11
-5.795652e-09
-8.219010384e-11
-5.719074095e-09
-7.674093915e-11
-5.647480724e-09
-7.178718475e-11
-5.580430741e-09
-6.727039903e-11
-5.517534401e-09
-6.313969918e-11
-5.458447304e-09
-5.934923859e-11
-5.402864763e-09
-5.58578143e-11
-5.350513259e-09
-5.26320752e-11
-5.301146121e-09
-4.964280377e-11
-5.254539587e-09
-4.686515226e-11
-5.210490853e-09
-4.427726013e-11
-5.168815138e-09
-4.186166446e-11
-5.129344384e-09
-3.960384264e-11
-5.091926146e-09
-3.74918656e-11
-5.056423318e-09
-3.551513617e-11
-5.022712889e-09
-3.366469821e-11
-4.990684755e-09
-3.193246522e-11
-4.960239968e-09
-3.031111929e-11
-4.931288427e-09
-2.879418502e-11
-4.903746088e-09
-2.737626821e-11
-4.877534398e-09
-2.605086651e-11
-4.852579385e-09
-2.481096846e-11
-4.828809795e-09
-2.36504453e-11
-4.806156095e-09
-2.256368706e-11
-4.784549648e-09
-2.154595817e-11
-4.763922674e-09
-2.059305045e-11
-4.744208455e-09
-1.970140118e-11
-4.725342122e-09
-1.886770636e-11
-4.7072616e-09
-1.808888685e-11
-4.689907548e-09
-1.736297434e-11
-4.673224225e-09
-1.668804719e-11
-4.657161474e-09
-1.606083581e-11
-4.641676723e-09
-1.547637206e-11
-4.626736023e-09
-1.49285694e-11
-4.6123138e-09
-1.44111416e-11
-4.598402197e-09
-1.390768901e-11
-4.585026684e-09
-1.338519948e-11
-4.572202042e-09
-1.285356582e-11
-4.559894484e-09
-1.235948294e-11
-4.548050353e-09
-1.192006503e-11
-4.536624871e-09
-1.152308521e-11
-4.52558333e-09
-1.115505908e-11
-4.514890627e-09
-1.08132102e-11
-4.504512403e-09
-1.049443399e-11
-4.494415505e-09
-1.019632508e-11
-4.484568623e-09
-9.917250287e-12
-4.474943622e-09
-9.655742128e-12
-4.465516549e-09
-9.410720549e-12
-4.456268463e-09
-9.181377064e-12
-4.447186045e-09
-8.966964845e-12
-4.438261687e-09
-8.766783694e-12
-4.429492981e-09
-8.580212121e-12
-4.420881799e-09
-8.406579996e-12
-4.412432994e-09
-8.245128049e-12
-4.404152806e-09
-8.095019157e-12
-4.396047174e-09
-7.955356219e-12
-4.388120166e-09
-7.825166524e-12
-4.38037269e-09
-7.703413805e-12
-4.372801589e-09
-7.589042413e-12
-4.365399213e-09
-7.481031519e-12
-4.358153485e-09
-7.378436922e-12
-4.351048478e-09
-7.280421713e-12
-4.344065378e-09
-7.186290678e-12
-4.337183742e-09
-7.09552049e-12
-4.330382905e-09
-7.007772776e-12
-4.323643396e-09
-6.922884172e-12
-4.316948238e-09
-6.84084421e-12
-4.310283988e-09
-6.761768552e-12
-4.303641437e-09
-6.685870151e-12
-4.297015906e-09
-6.613423163e-12
-4.290407129e-09
-6.544722191e-12
-4.283818758e-09
-6.480042225e-12
-4.277257532e-09
-6.419605652e-12
-4.27073221e-09
-6.36355907e-12
-4.264252379e-09
-6.311958632e-12
-4.257827238e-09
-6.264764669e-12
-4.251464509e-09
-6.22184516e-12
-4.245169531e-09
-6.182988406e-12
-4.238944659e-09
-6.147923797e-12
-4.232788973e-09
-6.116346946e-12
-4.226698329e-09
-6.087946316e-12
-4.220665716e-09
-6.062428705e-12
-4.214681867e-09
-6.039541092e-12
-4.208736038e-09
-6.019086259e-12
-4.202816873e-09
-6.000932895e-12
-4.196913243e-09
-5.985019157e-12
-4.191015003e-09
-5.971348991e-12
-4.185113583e-09
-5.959983076e-12
-4.179202372e-09
-5.951024077e-12
-4.173276894e-09
-5.944600229e-12
-4.167334771e-09
-5.940847393e-12
-4.161375509e-09
-5.939892014e-12
-4.155400139e-09
-5.941836278e-12
-4.149410771e-09
-5.946746858e-12
-4.143410111e-09
-5.954647357e-12
-4.137400967e-09
-5.965515792e-12
-4.131385805e-09
-5.979286095e-12
-4.125366359e-09
-5.995853361e-12
-4.119343329e-09
-6.015081848e-12
-4.113316169e-09
-6.036815285e-12
-4.107282963e-09
-6.060887697e-12
-4.101240408e-09
-6.087134864e-12
-4.095183875e-09
-6.115404823e-12
-4.089107565e-09
-6.145567527e-12
-4.083004739e-09
-6.177522325e-12
-4.076868018e-09
-6.211203629e-12
-4.070689733e-09
-6.246584904e-12
-4.064462314e-09
-6.283679786e-12
-4.058178687e-09
-6.32254153e-12
-4.051832652e-09
-6.363260791e-12
-4.045419224e-09
-6.405960903e-12
-4.038934896e-09
-6.450792213e-12
-4.032377796e-09
-6.497924384e-12
-4.025747739e-09
-6.547538115e-12
-4.019046137e-09
-6.599815415e-12
-4.012275783e-09
-6.654930076e-12
-4.005440523e-09
-6.713037639e-12
-3.998544825e-09
-6.774265768e-12
-3.991593286e-09
-6.838705897e-12
-3.984590119e-09
-6.90640581e-12
-3.977538659e-09
-6.977364948e-12
-3.970440918e-09
-7.051530907e-12
-3.963297255e-09
-7.128799374e-12
-3.95610616e-09
-7.209016702e-12
-3.948864189e-09
-7.291985141e-12
-3.941566044e-09
-7.3774706e-12
-3.93420481e-09
-7.465212781e-12
-3.926772302e-09
-7.554937272e-12
-3.919259514e-09
-7.646368239e-12
-3.911657127e-09
-7.739241877e-12
-3.903956033e-09
-7.833319346e-12
-3.896147824e-09
-7.928398302e-12
-3.88822523e-09
-8.024322836e-12
-3.880182452e-09
-8.1209904e-12
-3.872015373e-09
-8.218356318e-12
-3.863721648e-09
-8.316434511e-12
-3.855300651e-09
-8.415295242e-12
-3.8467533e-09
-8.515059581e-12
-3.83808179e-09
-8.615891161e-12
-3.829289234e-09
-8.717985617e-12
-3.820379275e-09
-8.821558379e-12
-3.811355681e-09
-8.926831663e-12
-3.802221964e-09
-9.034021536e-12
-3.792981051e-09
-9.143325417e-12
-3.783635029e-09
-9.254911035e-12
-3.774184979e-09
-9.368907802e-12
-3.764630905e-09
-9.485400073e-12
-3.754971752e-09
-9.604423488e-12
-3.745205512e-09
-9.72596396e-12
-3.735329392e-09
-9.849959756e-12
-3.725340024e-09
-9.976305523e-12
-3.715233701e-09
-1.010485874e-11
-3.705006608e-09
-1.023544781e-11
-3.694655034e-09
-1.03678808e-11
-3.684175536e-09
-1.050195501e-11
-3.673565061e-09
-1.063746594e-11
-3.662821004e-09
-1.077421591e-11
-3.651941216e-09
-1.091202112e-11
-3.640923959e-09
-1.105071757e-11
-3.629767826e-09
-1.11901651e-11
-3.618471635e-09
-1.133024959e-11
-3.607034318e-09
-1.14708834e-11
-3.595454819e-09
-1.161200442e-11
-3.583732012e-09
-1.175357356e-11
-3.57186465e-09
-1.189557123e-11
-3.559851357e-09
-1.20379931e-11
-3.547690656e-09
-1.218084546e-11
-3.535381028e-09
-1.232414068e-11
-3.522921007e-09
-1.246789271e-11
-3.510309282e-09
-1.261211322e-11
-3.49754481e-09
-1.275680817e-11
-3.484626915e-09
-1.290197544e-11
-3.471555362e-09
-1.304760288e-11
-3.458330411e-09
-1.319366753e-11
-3.444952815e-09
-1.334013514e-11
-3.431423797e-09
-1.34869605e-11
-3.417744972e-09
-1.363408836e-11
-3.403918247e-09
-1.378145414e-11
-3.389945691e-09
-1.392898577e-11
-3.375829395e-09
-1.407660456e-11
-3.361571331e-09
-1.422422664e-11
-3.347173223e-09
-1.437176455e-11
-3.332636447e-09
-1.451912766e-11
-3.317961953e-09
-1.466622359e-11
-3.303150236e-09
-1.481295863e-11
-3.288201347e-09
-1.495923821e-11
-3.273114936e-09
-1.510496713e-11
-3.257890342e-09
-1.525005027e-11
-3.242526698e-09
-1.539439203e-11
-3.227023067e-09
-1.553789709e-11
-3.211378567e-09
-1.568047039e-11
-3.195592505e-09
-1.582201738e-11
-3.179664489e-09
-1.596244475e-11
-3.163594507e-09
-1.610166116e-11
-3.147382987e-09
-1.623957778e-11
-3.131030807e-09
-1.637610869e-11
-3.114539286e-09
-1.651117177e-11
-3.097910125e-09
-1.664468954e-11
-3.081145336e-09
-1.677659033e-11
-3.064247142e-09
-1.690680924e-11
-3.04721788e-09
-1.703528875e-11
-3.030059891e-09
-1.716197933e-11
-3.012775437e-09
-1.72868397e-11
-2.995366628e-09
-1.740983683e-11
-2.977835374e-09
-1.753094582e-11
-2.960183377e-09
-1.765014888e-11
-2.942412138e-09
-1.776743483e-11
-2.924523006e-09
-1.788279771e-11
-2.906517236e-09
-1.799623534e-11
-2.888396073e-09
-1.81077477e-11
-2.870160835e-09
-1.821733544e-11
-2.851813002e-09
-1.832499808e-11
-2.833354285e-09
-1.843073246e-11
-2.814786688e-09
-1.853453126e-11
-2.796112537e-09
-1.863638174e-11
-2.777334492e-09
-1.873626501e-11
-2.758455525e-09
-1.883415515e-11
-2.739478881e-09
-1.893001913e-11
-2.72040801e-09
-1.902381694e-11
-2.701246496e-09
-1.911550165e-11
-2.681997966e-09
-1.920502035e-11
-2.662666012e-09
-1.929231491e-11
-2.643254112e-09
-1.937732291e-11
-2.623765568e-09
-1.945997889e-11
-2.604203468e-09
-1.954021561e-11
-2.584570657e-09
-1.961796478e-11
-2.564869744e-09
-1.969315832e-11
-2.545103125e-09
-1.976572925e-11
-2.525273019e-09
-1.983561209e-11
-2.505381526e-09
-1.990274352e-11
-2.485430688e-09
-1.99670629e-11
-2.465422553e-09
-2.002851175e-11
-2.445359239e-09
-2.008703435e-11
-2.425242978e-09
-2.014257737e-11
-2.405076164e-09
-2.019508939e-11
-2.384861373e-09
-2.024452103e-11
-2.364601368e-09
-2.029082452e-11
-2.344299097e-09
-2.033395346e-11
-2.323957667e-09
-2.037386296e-11
-2.303580314e-09
-2.041050934e-11
-2.283170361e-09
-2.044385047e-11
-2.262731178e-09
-2.047384599e-11
-2.242266138e-09
-2.050045756e-11
-2.221778584e-09
-2.052364948e-11
-2.201271795e-09
-2.054338898e-11
-2.18074897e-09
-2.055964672e-11
-2.160213215e-09
-2.057239744e-11
-2.139667547e-09
-2.058162009e-11
-2.119114898e-09
-2.058729815e-11
-2.098558139e-09
-2.058941978e-11
-2.0780001e-09
-2.058797752e-11
-2.057443598e-09
-2.058296825e-11
-2.036891466e-09
-2.057439224e-11
-2.016346581e-09
-2.056225289e-11
-1.995811894e-09
-2.054655561e-11
-1.975290452e-09
-2.052730673e-11
-1.954785422e-09
-2.050451224e-11
-1.93430011e-09
-2.047817684e-11
-1.913837978e-09
-2.04483028e-11
-1.893402656e-09
-2.041488848e-11
-1.872997955e-09
-2.037792744e-11
-1.852627873e-09
-2.033740781e-11
-1.832296604e-09
-2.029331143e-11
-1.812008536e-09
-2.024561336e-11
-1.791768252e-09
-2.019428206e-11
-1.771580522e-09
-2.013927896e-11
-1.751450287e-09
-2.008055946e-11
-1.731382639e-09
-2.001807289e-11
-1.71138279e-09
-1.995176368e-11
-1.691456038e-09
-1.988157208e-11
-1.671607713e-09
-1.980743549e-11
-1.651843131e-09
-1.972928938e-11
-1.632167536e-09
-1.964706873e-11
-1.612586036e-09
-1.956070896e-11
-1.593103549e-09
-1.947014728e-11
-1.573724748e-09
-1.937532397e-11
-1.554454015e-09
-1.927618284e-11
-1.535295413e-09
-1.917267263e-11
-1.516252669e-09
-1.906474752e-11
-1.497329174e-09
-1.895236768e-11
-1.478528011e-09
-1.883549988e-11
-1.459851997e-09
-1.871411756e-11
-1.441303745e-09
-1.858820121e-11
-1.422885746e-09
-1.845773828e-11
-1.404600462e-09
-1.832272314e-11
-1.386450427e-09
-1.818315687e-11
-1.36843835e-09
-1.803904692e-11
-1.350567214e-09
-1.789040681e-11
-1.332840363e-09
-1.773725582e-11
-1.31526157e-09
-1.757961821e-11
-1.297835088e-09
-1.741752296e-11
-1.280565666e-09
-1.725100318e-11
-1.263458538e-09
-1.708009551e-11
-1.246519388e-09
-1.690483952e-11
-1.229754274e-09
-1.672527727e-11
-1.213169538e-09
-1.654145245e-11
-1.196771686e-09
-1.635341046e-11
-1.180567261e-09
-1.616119734e-11
-1.164562705e-09
-1.596486008e-11
-1.148764225e-09
-1.576444691e-11
-1.133177667e-09
-1.556000788e-11
-1.117808408e-09
-1.535159304e-11
-1.102661282e-09
-1.513925143e-11
-1.087740524e-09
-1.492303145e-11
-1.073049757e-09
-1.470298142e-11
-1.058592007e-09
-1.447914989e-11
-1.044369753e-09
-1.425158542e-11
-1.030385009e-09
-1.402033688e-11
-1.016639425e-09
-1.378545301e-11
-1.00313441e-09
-1.354698236e-11
-9.898712627e-10
-1.330497317e-11
-9.768513046e-10
-1.305947259e-11
-9.640760049e-10
-1.281052641e-11
-9.515470915e-10
-1.255817804e-11
-9.392666412e-10
-1.230246771e-11
-9.272371442e-10
-1.204343106e-11
-9.154615413e-10
-1.17810978e-11
-9.03943232e-10
-1.151548985e-11
-8.926860544e-10
-1.124662001e-11
-8.81694242e-10
-1.097448998e-11
-8.709723523e-10
-1.069909652e-11
-8.605251864e-10
-1.042042461e-11
-8.5035771e-10
-1.013843834e-11
-8.404749696e-10
-9.853082486e-12
-8.308820149e-10
-9.564281807e-12
-8.215838324e-10
-9.271939685e-12
-8.125852983e-10
-8.975934885e-12
-8.03891152e-10
-8.676119131e-12
-7.95505995e-10
-8.372312725e-12
-7.874343152e-10
-8.064300241e-12
-7.796805395e-10
-7.751823268e-12
-7.72249092e-10
-7.434591464e-12
-7.651444795e-10
-7.112271333e-12
-7.583714181e-10
-6.784455294e-12
-7.51934972e-10
-6.450656515e-12
-7.458407074e-10
-6.110296131e-12
-7.400948686e-10
-5.762679886e-12
-7.347045876e-10
-5.406959184e-12
-7.296781498e-10
-5.042068191e-12
-7.250252131e-10
-4.666760823e-12
-7.207571023e-10
-4.279525169e-12
-7.168871962e-10
-3.878480173e-12
-7.134313498e-10
-3.46133045e-12
-7.104077152e-10
-3.025958895e-12
-7.078349175e-10
-2.572062985e-12
-7.057313893e-10
-2.099990857e-12
-7.041110268e-10
-1.614413693e-12
-7.028518502e-10
-1.251318916e-12
-7.02177839e-10
-6.648316178e-13
-3.083949009e-13
-1.781282045e-09
-2.313269322e-11
-1.769899944e-09
-2.05020558e-11
-1.759552754e-09
-1.737387412e-11
-1.750095823e-09
-1.483572471e-11
-1.74160934e-09
-1.287658676e-11
-1.734086346e-09
-1.135606071e-11
-1.727806333e-09
-1.000553792e-11
-1.721738331e-09
-8.506003353e-12
-1.713146393e-09
-6.327383734e-12
-1.706314422e-09
-6.965224373e-12
-1.703082819e-09
-7.483798076e-12
-1.69463821e-09
-5.932495155e-12
-1.688396995e-09
-6.588597929e-12
-1.685557632e-09
-7.701191984e-12
-1.681204162e-09
-7.165019611e-12
-1.674771536e-09
-6.927662442e-12
-1.670572016e-09
-7.284720405e-12
-1.665069039e-09
-6.429779105e-12
-1.659095217e-09
-6.184941092e-12
-1.652549889e-09
-6.617473748e-12
-1.650449317e-09
-8.357570367e-12
-1.647026428e-09
-8.458025881e-12
-1.642641462e-09
-7.751442557e-12
-1.635291027e-09
-6.358053052e-12
-1.630038635e-09
-6.664779421e-12
-1.625675984e-09
-6.702214856e-12
-1.619124119e-09
-6.0101664e-12
-1.613298303e-09
-6.43839876e-12
-1.607788232e-09
-7.383662474e-12
-1.603089956e-09
-8.424772314e-12
-1.599507306e-09
-9.566435188e-12
-1.596391727e-09
-9.959074519e-12
-1.591562336e-09
-8.989378153e-12
-1.586732715e-09
-8.153618469e-12
-1.579759524e-09
-7.44448879e-12
-1.573124038e-09
-6.992532127e-12
-1.567061475e-09
-6.878308246e-12
-1.561107464e-09
-6.571751093e-12
-1.554409937e-09
-5.954428231e-12
-1.549480265e-09
-5.322041078e-12
-1.53670434e-09
-3.72482037e-12
-1.530898671e-09
-6.791080629e-12
-1.532334484e-09
-9.451329871e-12
-1.530354382e-09
-8.421832452e-12
-1.52670749e-09
-7.96257529e-12
-1.518730643e-09
-6.490626697e-12
-1.515344714e-09
-4.751903903e-12
-1.505359151e-09
-4.21706011e-12
-1.500919691e-09
-6.898813235e-12
-1.49896309e-09
-7.596341898e-12
-1.493532502e-09
-7.434109172e-12
-1.491687996e-09
-8.510025034e-12
-1.485615739e-09
-7.322535262e-12
-1.482574985e-09
-8.348504634e-12
-1.476413868e-09
-6.99065334e-12
-1.475804113e-09
-6.426389479e-12
-1.471189386e-09
-4.427873581e-12
-1.464688202e-09
-2.874758728e-12
-1.463324562e-09
-2.599272752e-12
-1.459408232e-09
-2.405829622e-12
-1.452820044e-09
4.473225259e-13
-1.440105735e-09
9.465195915e-13
-1.434132609e-09
-3.792729363e-12
-1.438923105e-09
-1.094844997e-11
-1.436131114e-09
-8.646190187e-12
-1.431464126e-09
-7.975544286e-12
-1.426714485e-09
-6.555798859e-12
-1.423810755e-09
-5.82533918e-12
-1.422587146e-09
-6.00995207e-12
-1.419605185e-09
-5.268188102e-12
-1.418053823e-09
-5.367250563e-12
-1.413337864e-09
-4.023230201e-12
-1.408970122e-09
-4.326379359e-12
-1.402819848e-09
-4.085694763e-12
-1.403523361e-09
-4.724359734e-12
-1.399258362e-09
-3.652588451e-12
-1.394771505e-09
-2.289003295e-12
-1.389329099e-09
-2.977590865e-12
-1.382917156e-09
-4.305682947e-12
-1.38690842e-09
-7.031004033e-12
-1.385747482e-09
-7.204007633e-12
-1.385008026e-09
-6.54983493e-12
-1.38446164e-09
-4.296342056e-12
-1.382344362e-09
-4.061042293e-12
-1.382287455e-09
-4.518953935e-12
-1.377553131e-09
-4.190132269e-12
-1.377701267e-09
-5.682285952e-12
-1.380559301e-09
-6.254586767e-12
-1.378064836e-09
-1.629392994e-12
-1.372547308e-09
-9.981781098e-13
-1.368266004e-09
-1.046609243e-12
-1.36827246e-09
-1.946185625e-12
-1.372221497e-09
-5.083129075e-12
-1.366911698e-09
-2.487596527e-12
-1.366133208e-09
-9.705934474e-13
-1.363754376e-09
2.859010864e-13
-1.361979421e-09
-2.062332418e-14
-1.368869516e-09
-3.61864234e-12
-1.371273213e-09
-4.467099025e-13
-1.370833088e-09
2.068930557e-12
-1.36991721e-09
3.659847911e-12
-1.368158495e-09
5.756694694e-12
-1.367057504e-09
3.70200726e-12
-1.367430905e-09
2.175405693e-12
-1.37329157e-09
-6.598603771e-13
-1.376494708e-09
-7.873502519e-13
-1.373314192e-09
6.572741675e-13
-1.377456122e-09
-2.048075927e-12
-1.38306034e-09
-3.941979996e-12
-1.389944894e-09
-2.706107295e-12
-1.394877858e-09
-1.262509078e-12
-1.395015046e-09
2.724365852e-12
-1.399058785e-09
4.388757845e-12
-1.396556226e-09
8.041304228e-12
-1.396563859e-09
9.265245224e-12
-1.397317928e-09
8.041153457e-12
-1.406856969e-09
4.799522507e-12
-1.405774656e-09
5.680843395e-12
-1.412421843e-09
2.39746579e-12
-1.420784861e-09
4.647443624e-13
-1.430702531e-09
1.202477277e-13
-1.440568425e-09
7.509437451e-13
-1.449126375e-09
3.751833919e-12
-1.453577019e-09
8.30380296e-12
-1.450328964e-09
1.147647545e-11
-1.457209684e-09
8.533014971e-12
-1.464818439e-09
6.617967168e-12
-1.473552696e-09
6.420936752e-12
-1.485967735e-09
6.776446772e-12
-1.496189179e-09
9.725264823e-12
-1.505986506e-09
1.361177295e-11
-1.509212694e-09
1.825923825e-11
-1.519832767e-09
1.821217782e-11
-1.527322849e-09
1.957722479e-11
-1.537491084e-09
1.852063572e-11
-1.548907444e-09
1.782190773e-11
-1.5607189e-09
1.759198515e-11
-1.572846155e-09
1.771742946e-11
-1.585203924e-09
1.811397373e-11
-1.597619125e-09
1.87315539e-11
-1.610100183e-09
1.942923263e-11
-1.623567574e-09
2.029058656e-11
-1.637730554e-09
2.125252185e-11
-1.653914858e-09
2.276143421e-11
-1.668360295e-09
2.618191464e-11
-1.677427925e-09
2.802066477e-11
-1.699312865e-09
2.533176125e-11
-1.721602849e-09
2.473708486e-11
-1.741758389e-09
2.5900459e-11
-1.760943003e-09
2.809858621e-11
-1.779303902e-09
3.044177056e-11
-1.79645556e-09
3.220370866e-11
-1.818304014e-09
3.349551152e-11
-1.838199675e-09
3.568879147e-11
-1.859031193e-09
3.675928186e-11
-1.883723234e-09
3.634664724e-11
-1.913377988e-09
3.670808099e-11
-1.942765206e-09
3.942398501e-11
-1.969772956e-09
4.250459954e-11
-1.998153573e-09
4.436773967e-11
-2.026592306e-09
4.584428034e-11
-2.058448259e-09
4.659511164e-11
-2.090713793e-09
4.796953634e-11
-2.123044837e-09
5.054114208e-11
-2.156457994e-09
5.295410672e-11
-2.191528421e-09
5.487094989e-11
-2.228272136e-09
5.666735962e-11
-2.266256331e-09
5.859932253e-11
-2.305253941e-09
6.074180087e-11
-2.345255323e-09
6.302448359e-11
-2.386393887e-09
6.534411874e-11
-2.428882451e-09
6.762323672e-11
-2.473011738e-09
6.978680577e-11
-2.519397408e-09
7.187425239e-11
-2.568614564e-09
7.421320065e-11
-2.618897618e-09
7.724242988e-11
-2.670449602e-09
8.107363621e-11
-2.723949182e-09
8.493237027e-11
-2.779535893e-09
8.882702375e-11
-2.837562037e-09
9.280660293e-11
-2.898401293e-09
9.700798001e-11
-2.962312571e-09
1.018426885e-10
-3.029560544e-09
1.070408423e-10
-3.100055813e-09
1.122973831e-10
-3.173733531e-09
1.179855139e-10
-3.250977423e-09
1.241219288e-10
-3.332119024e-09
1.306597009e-10
-3.41743937e-09
1.377668704e-10
-3.507203639e-09
1.4560321e-10
-3.601730508e-09
1.542102729e-10
-3.701465497e-09
1.635858625e-10
-3.806960609e-09
1.736999205e-10
-3.918705827e-09
1.845628943e-10
-4.03727409e-09
1.962560292e-10
-4.163100905e-09
2.088224339e-10
-4.296599097e-09
2.225026949e-10
-4.438727718e-09
2.375235148e-10
-4.590248063e-09
2.54066189e-10
-4.751815373e-09
2.72198868e-10
-4.924494442e-09
2.920547352e-10
-5.109569902e-09
3.140188698e-10
-5.308210982e-09
3.383495489e-10
-5.521497524e-09
3.656333102e-10
-5.75110677e-09
3.964412913e-10
-5.999073313e-09
4.316415784e-10
-6.268197393e-09
4.719360197e-10
-6.56185897e-09
5.179642943e-10
-6.882975105e-09
5.701273719e-10
-7.234597797e-09
6.293819904e-10
-7.620846818e-09
6.97282046e-10
-8.046352316e-09
7.750682817e-10
-8.515960984e-09
8.642860672e-10
-9.034712709e-09
9.662769582e-10
-9.607445469e-09
1.08126246e-09
-1.023747162e-08
1.2068756e-09
-1.092559391e-08
1.336033168e-09
-1.165960881e-08
1.44911319e-09
-1.240993958e-08
1.505397691e-09
-1.323404008e-08
1.469845639e-09
-1.437180573e-08
1.417112502e-09
-1.560675298e-08
1.562470366e-09
-1.686709387e-08
1.739509616e-09
-1.812578017e-08
1.603281273e-09
-1.915503456e-08
1.339269335e-09
-2.005461612e-08
9.904209146e-10
-2.078450103e-08
6.551167714e-10
-2.133764779e-08
3.596803969e-10
-2.174418114e-08
1.422932731e-10
-2.200020039e-08
-7.360900928e-11
-2.207736645e-08
-3.036976903e-10
-2.194504917e-08
-5.295358493e-10
-2.166826071e-08
-6.815483893e-10
-2.13163065e-08
-7.495824846e-10
-2.092946626e-08
-7.645773117e-10
-2.052313289e-08
-7.544310295e-10
-2.01118719e-08
-7.275093499e-10
-1.970708571e-08
-6.891646007e-10
-1.931866478e-08
-6.431940613e-10
-1.89496777e-08
-5.977336886e-10
-1.860136436e-08
-5.545294094e-10
-1.827364709e-08
-5.145230912e-10
-1.796510377e-08
-4.782070871e-10
-1.767489547e-08
-4.447792564e-10
-1.740203366e-08
-4.142704288e-10
-1.714533308e-08
-3.865476876e-10
-1.690384801e-08
-3.610652965e-10
-1.667665496e-08
-3.376190541e-10
-1.64627887e-08
-3.161135148e-10
-1.626134593e-08
-2.963475278e-10
-1.607148181e-08
-2.781517741e-10
-1.589237542e-08
-2.614179492e-10
-1.572326041e-08
-2.460137313e-10
-1.556344163e-08
-2.317946861e-10
-1.541227617e-08
-2.186513402e-10
-1.526917436e-08
-2.064800707e-10
-1.513360078e-08
-1.951802783e-10
-1.500507135e-08
-1.846579391e-10
-1.488313863e-08
-1.74840907e-10
-1.476738965e-08
-1.656631636e-10
-1.465744247e-08
-1.570669411e-10
-1.455294542e-08
-1.489991904e-10
-1.44535713e-08
-1.41418553e-10
-1.43590147e-08
-1.342909008e-10
-1.426899002e-08
-1.275881605e-10
-1.418323174e-08
-1.212843497e-10
-1.410149249e-08
-1.153575113e-10
-1.402354157e-08
-1.097876493e-10
-1.394916283e-08
-1.045567591e-10
-1.387815371e-08
-9.964711841e-11
-1.381032563e-08