/*--------------------------------*- C++ -*----------------------------------*\
| =========                 |                                                 |
| \\      /  F ield         | OpenFOAM: The Open Source CFD Toolbox           |
|  \\    /   O peration     | Version:  v2006                                 |
|   \\  /    A nd           | Website:  www.openfoam.com                      |
|    \\/     M anipulation  |                                                 |
\*---------------------------------------------------------------------------*/
FoamFile
{
    version     2.0;
    format      ascii;
    class       surfaceScalarField;
    location    "0.075";
    object      phi_0;
}
// * * * * * * * * * * * * * * * * * * * * * * * * * * * * * * * * * * * * * //

dimensions      [1 0 -1 0 0 0 0];
oriented        oriented;


internalField   nonuniform List<scalar> 
143280
(
-7.858639463e-10
-9.560565432e-12
-7.780563426e-10
-7.475633519e-12
-7.714038565e-10
-5.994868318e-12
-7.661625988e-10
-4.791180284e-12
-7.617766976e-10
-3.981112245e-12
-7.582212711e-10
-3.222605914e-12
-7.554370306e-10
-2.497398231e-12
-7.555499988e-10
-1.189857772e-12
-7.435411577e-10
2.25343164e-12
-7.433663747e-10
6.288009958e-13
-7.382893068e-10
7.236590389e-13
-7.337806859e-10
9.963563855e-13
-7.347937366e-10
-2.704841815e-12
-7.36804225e-10
-2.665067725e-12
-7.326106574e-10
-7.198972802e-14
-7.268699768e-10
1.622490532e-12
-7.249789169e-10
-1.564549629e-12
-7.190543529e-10
-2.818594198e-12
-7.214170455e-10
-4.961085656e-12
-7.224263465e-10
-4.338265148e-12
-7.169656364e-10
-3.567123961e-12
-7.195520917e-10
-3.524353967e-12
-7.168715835e-10
-1.246379966e-12
-7.051392713e-10
3.306817741e-12
-7.107679123e-10
-2.122331629e-12
-7.085395325e-10
-2.451985404e-13
-6.96654437e-10
3.510010068e-12
-6.992722642e-10
-1.073584702e-12
-6.980838883e-10
-2.143055762e-12
-6.93076307e-10
-2.942081373e-12
-6.958714773e-10
-6.427500659e-12
-6.97975197e-10
-5.757155809e-12
-6.960268613e-10
-2.743274793e-12
-6.872532143e-10
-6.508222281e-13
-6.843932754e-10
-6.579969658e-13
-6.824310521e-10
-1.403202405e-12
-6.806818987e-10
-1.794919565e-12
-6.805418714e-10
-1.821432185e-12
-6.839747068e-10
-2.410276827e-13
-6.646761293e-10
8.031270798e-12
-6.551935023e-10
3.236623448e-12
-6.669809738e-10
-7.180036498e-12
-6.461868941e-10
-4.026088462e-12
-6.720661013e-10
-1.798134538e-11
-6.72358365e-10
-1.162935777e-11
-6.780482511e-10
-5.38151809e-12
-6.382397771e-10
8.909423556e-12
-6.574221098e-10
-2.261073048e-12
-6.51170034e-10
2.206756342e-12
-6.432458726e-10
1.093314697e-12
-6.58206344e-10
-7.312233337e-12
-6.397836845e-10
4.257345502e-13
-6.50870089e-10
-6.423361408e-12
-6.31828444e-10
1.17719066e-12
-6.4476665e-10
-6.123009952e-12
-6.285054426e-10
6.765011047e-13
-6.404999206e-10
-7.274945039e-12
-6.532429116e-10
-4.002834561e-12
-6.220207205e-10
1.077510572e-11
-6.184304362e-10
6.18246947e-12
-6.419282145e-10
-5.120192774e-12
-6.241142995e-10
3.614920388e-12
-6.287648592e-10
-4.293334636e-12
-6.337308569e-10
-6.000151905e-12
-6.147401931e-10
5.906158654e-12
-5.986174977e-10
4.303686528e-12
-6.028959095e-10
-8.426687879e-12
-6.20007705e-10
-1.520585991e-11
-6.175551108e-10
-1.121987949e-11
-6.241115069e-10
-7.845689379e-12
-6.15890751e-10
1.868735674e-12
-6.10411791e-10
5.354719512e-12
-6.017018745e-10
3.917759941e-12
-6.118299576e-10
-4.140683113e-12
-5.886212109e-10
5.698719663e-13
-6.103756816e-10
-1.235277242e-11
-6.178248095e-10
-8.452021502e-12
-5.956318217e-10
5.310113917e-12
-5.983541236e-10
-2.921738796e-12
-6.043775864e-10
-4.028971553e-12
-5.917703366e-10
4.438365197e-12
-5.77745525e-10
3.481269767e-12
-5.838351359e-10
-8.788473244e-12
-6.091691623e-10
-1.456240421e-11
-5.855456528e-10
-1.809189316e-12
-6.144837368e-10
-1.1783702e-11
-5.935181771e-10
1.6711916e-12
-6.041556732e-10
-2.536271884e-12
-5.821974878e-10
6.567507544e-12
-5.930964891e-10
-2.679454924e-12
-6.007875292e-10
-3.615445096e-12
-5.796518852e-10
5.976866938e-12
-5.822682082e-10
-3.610852109e-12
-6.041581827e-10
-7.431472056e-12
-5.902402044e-10
5.655507527e-12
-5.832241685e-10
7.708941903e-12
-5.693600761e-10
8.167145149e-12
-5.790830212e-10
-3.739471621e-12
-5.811092e-10
-7.743424973e-12
-6.009920661e-10
-1.062745943e-11
-6.069248539e-10
-2.981640975e-12
-5.945088944e-10
1.068512957e-11
-5.927957808e-10
1.024835919e-11
-5.83276251e-10
1.135627176e-11
-5.907023639e-10
3.431666152e-12
-6.059780805e-10
1.442368872e-12
-5.888450894e-10
1.032688712e-11
-5.957835882e-10
3.003141027e-12
-5.989291355e-10
1.597333682e-12
-6.006546406e-10
4.910686901e-13
-6.077455131e-10
3.300311029e-12
-5.899193447e-10
1.218527267e-11
-6.025066781e-10
5.219272241e-12
-5.951098887e-10
1.225627753e-11
-5.868428501e-10
8.940430507e-12
-6.147462909e-10
-4.87893396e-12
-6.070736921e-10
-9.49197891e-13
-6.224846233e-10
-3.409618667e-12
-6.142720155e-10
2.933572519e-12
-6.046637428e-10
2.94450235e-12
-6.206405581e-10
-4.749714829e-12
-6.380464935e-10
-4.092373382e-12
-6.34687326e-10
5.103960247e-12
-6.421529324e-10
9.231915693e-12
-6.237181464e-10
1.983570171e-11
-6.251047823e-10
9.159324626e-12
-6.367054412e-10
1.867606609e-12
-6.446074472e-10
1.642195789e-12
-6.316218096e-10
6.031126327e-12
-6.43013019e-10
3.847722424e-13
-6.513187722e-10
1.48312247e-12
-6.650030338e-10
8.646691172e-13
-6.844340438e-10
4.391694508e-12
-6.588135183e-10
1.870498616e-11
-6.726712495e-10
7.917827924e-12
-6.804730492e-10
5.735707488e-12
-6.874244165e-10
5.314102205e-12
-6.945474888e-10
5.31843378e-12
-7.018386375e-10
5.59296689e-12
-7.088961782e-10
6.118452193e-12
-7.15104341e-10
6.797386423e-12
-7.202920595e-10
7.236186413e-12
-7.306551955e-10
8.966794714e-12
-7.280712447e-10
1.611046373e-11
-7.116077876e-10
1.802608088e-11
-7.495954551e-10
-1.718155836e-12
-7.70817892e-10
-2.066653827e-13
-7.778718673e-10
3.257503097e-12
-7.861256162e-10
7.261604044e-12
-7.951873168e-10
9.71857678e-12
-8.05618843e-10
1.217553419e-11
-8.106277941e-10
1.605365194e-11
-8.201911148e-10
1.546935281e-11
-8.314287065e-10
1.477083236e-11
-8.469309039e-10
1.425194009e-11
-8.561588521e-10
1.632521795e-11
-8.782039158e-10
1.262233604e-11
-8.794743404e-10
1.657230236e-11
-9.162402737e-10
8.323110306e-12
-9.166826538e-10
1.855794754e-11
-9.433661862e-10
1.361378306e-11
-9.453822361e-10
1.925751696e-11
-9.748729476e-10
1.245783499e-11
-9.86738578e-10
1.796143336e-11
-1.004775836e-09
1.886100785e-11
-1.025038969e-09
1.935233151e-11
-1.04589476e-09
1.992254206e-11
-1.067097827e-09
2.077085773e-11
-1.088799716e-09
2.173836723e-11
-1.111198353e-09
2.27415317e-11
-1.134397057e-09
2.374915243e-11
-1.15837057e-09
2.474542107e-11
-1.182928307e-09
2.563809273e-11
-1.207911624e-09
2.601808445e-11
-1.240972818e-09
2.533629833e-11
-1.265165887e-09
2.977953344e-11
-1.295580503e-09
3.00364408e-11
-1.326900393e-09
3.135663757e-11
-1.360133414e-09
3.306438471e-11
-1.395165695e-09
3.464641774e-11
-1.431856566e-09
3.614104147e-11
-1.47052537e-09
3.804168409e-11
-1.511171897e-09
4.00473345e-11
-1.553815681e-09
4.217349936e-11
-1.598837997e-09
4.474454615e-11
-1.646220812e-09
4.731913179e-11
-1.695997136e-09
4.990852632e-11
-1.748463161e-09
5.274666827e-11
-1.804121183e-09
5.602996917e-11
-1.863479772e-09
5.976492855e-11
-1.926920999e-09
6.383515172e-11
-1.99468132e-09
6.8109578e-11
-2.067052247e-09
7.266032695e-11
-2.144298854e-09
7.748286279e-11
-2.226852498e-09
8.275072225e-11
-2.315404026e-09
8.873791171e-11
-2.410327819e-09
9.512866191e-11
-2.512387197e-09
1.023107839e-10
-2.622554299e-09
1.104621713e-10
-2.741554621e-09
1.192937998e-10
-2.870291424e-09
1.289321141e-10
-3.010051653e-09
1.396880957e-10
-3.162871196e-09
1.5216415e-10
-3.331373618e-09
1.665139464e-10
-3.509733204e-09
1.850559807e-10
-3.714303225e-09
2.025347428e-10
-3.939229226e-09
2.241700985e-10
-4.1885213e-09
2.490523572e-10
-4.466393597e-09
2.778406308e-10
-4.777448784e-09
3.11084832e-10
-5.127007126e-09
3.495706507e-10
-5.521695037e-09
3.946545166e-10
-5.969269803e-09
4.474921467e-10
-6.477888502e-09
5.085046296e-10
-7.054851483e-09
5.768398542e-10
-7.702881029e-09
6.479166104e-10
-8.418085908e-09
7.151158722e-10
-9.173216967e-09
7.550961704e-10
-9.818992007e-09
6.457709778e-10
-1.009838087e-08
2.793238106e-10
-1.042595877e-08
3.273925866e-10
-1.090425119e-08
4.7875654e-10
-1.12479112e-08
3.44211632e-10
-1.155691761e-08
3.095617618e-10
-1.164680519e-08
9.038059964e-11
-1.157129331e-08
-7.512140221e-11
-1.137728281e-08
-1.9368694e-10
-1.111249424e-08
-2.645015398e-10
-1.07824733e-08
-3.298086e-10
-1.040124352e-08
-3.809969805e-10
-1.000374134e-08
-3.972933836e-10
-9.598689085e-09
-4.048336701e-10
-9.200699757e-09
-3.977364444e-10
-8.822507412e-09
-3.778821124e-10
-8.473838266e-09
-3.483002147e-10
-8.156889167e-09
-3.165253759e-10
-7.871694972e-09
-2.847312466e-10
-7.616013528e-09
-2.552003372e-10
-7.386306435e-09
-2.292329643e-10
-7.179124787e-09
-2.067393217e-10
-6.991402274e-09
-1.873390105e-10
-6.820910244e-09
-1.701787196e-10
-6.66563342e-09
-1.55042907e-10
-6.523664098e-09
-1.418178427e-10
-6.393410901e-09
-1.301805621e-10
-6.273577261e-09
-1.198318335e-10
-6.163040032e-09
-1.105958151e-10
-6.060807957e-09
-1.023400319e-10
-5.966026966e-09
-9.492816658e-11
-5.877954452e-09
-8.825055263e-11
-5.795934566e-09
-8.222254082e-11
-5.71939224e-09
-7.676520367e-11
-5.647828279e-09
-7.18037801e-11
-5.580802027e-09
-6.72798052e-11
-5.517922745e-09
-6.314233499e-11
-5.45884367e-09
-5.934546635e-11
-5.403256879e-09
-5.584797491e-11
-5.350885538e-09
-5.261653903e-11
-5.301480513e-09
-4.96220209e-11
-5.254817297e-09
-4.683968975e-11
-5.210694657e-09
-4.424781791e-11
-5.168931867e-09
-4.182906664e-11
-5.129367098e-09
-3.95690072e-11
-5.091855566e-09
-3.745575846e-11
-5.0562682e-09
-3.5478719e-11
-5.022489272e-09
-3.362887878e-11
-4.990414187e-09
-3.189805836e-11
-4.959947016e-09
-3.027882223e-11
-4.930997869e-09
-2.876456804e-11
-4.903480214e-09
-2.734977955e-11
-4.877310788e-09
-2.602784622e-11
-4.852409423e-09
-2.479166747e-11
-4.828698037e-09
-2.36350441e-11
-4.806100496e-09
-2.255231097e-11
-4.784542524e-09
-2.153868633e-11
-4.763952224e-09
-2.058991787e-11
-4.744260614e-09
-1.970239425e-11
-4.725402514e-09
-1.887275298e-11
-4.707317378e-09
-1.809784302e-11
-4.689948915e-09
-1.73756093e-11
-4.673245488e-09
-1.670402931e-11
-4.657161526e-09
-1.607972242e-11
-4.641658902e-09
-1.54976054e-11
-4.626707367e-09
-1.495148104e-11
-4.612283794e-09
-1.443496694e-11
-4.598381159e-09
-1.393159334e-11
-4.585023998e-09
-1.340831395e-11
-4.572224471e-09
-1.287503352e-11
-4.559944801e-09
-1.237851082e-11
-4.548126494e-09
-1.193597517e-11
-4.536719756e-09
-1.153536522e-11
-4.525685405e-09
-1.116340418e-11
-4.514985108e-09
-1.08175499e-11
-4.504583067e-09
-1.04949419e-11
-4.494446832e-09
-1.01934085e-11
-4.484548013e-09
-9.91151915e-12
-4.474863394e-09
-9.647958988e-12
-4.465375443e-09
-9.401735611e-12
-4.456072439e-09
-9.172053838e-12
-4.44694823e-09
-8.95810351e-12
-4.438001454e-09
-8.759049693e-12
-4.429234232e-09
-8.574077334e-12
-4.42065065e-09
-8.402282625e-12
-4.412255102e-09
-8.24265555e-12
-4.404050659e-09
-8.094116111e-12
-4.396037637e-09
-7.955556539e-12
-4.388212567e-09
-7.825846582e-12
-4.380567645e-09
-7.703861068e-12
-4.3730907e-09
-7.588532508e-12
-4.365765642e-09
-7.478905862e-12
-4.358573357e-09
-7.374173121e-12
-4.351492931e-09
-7.273689914e-12
-4.344503071e-09
-7.17699056e-12
-4.337583549e-09
-7.083795809e-12
-4.330716544e-09
-6.994002583e-12
-4.323887752e-09
-6.907652179e-12
-4.317087172e-09
-6.824889921e-12
-4.310309491e-09
-6.745925182e-12
-4.303554037e-09
-6.670995613e-12
-4.296824336e-09
-6.600330586e-12
-4.290127298e-09
-6.534116358e-12
-4.283472151e-09
-6.47246733e-12
-4.276869211e-09
-6.415408567e-12
-4.270328611e-09
-6.362870665e-12
-4.263859111e-09
-6.314693893e-12
-4.257467101e-09
-6.27064062e-12
-4.251155881e-09
-6.230413903e-12
-4.244925278e-09
-6.193681555e-12
-4.238771608e-09
-6.160103461e-12
-4.23268798e-09
-6.129358289e-12
-4.226664878e-09
-6.101166842e-12
-4.220690948e-09
-6.075309995e-12
-4.214753899e-09
-6.051639831e-12
-4.208841421e-09
-6.030082541e-12
-4.202942019e-09
-6.010635327e-12
-4.197045702e-09
-5.993357454e-12
-4.191144465e-09
-5.978356116e-12
-4.185232545e-09
-5.965769639e-12
-4.179306456e-09
-5.955748343e-12
-4.173364817e-09
-5.948437191e-12
-4.167408022e-09
-5.943960101e-12
-4.161437797e-09
-5.942407828e-12
-4.155456706e-09
-5.943829935e-12
-4.149467632e-09
-5.948231371e-12
-4.143473303e-09
-5.955573012e-12
-4.137475865e-09
-5.965776474e-12
-4.131476545e-09
-5.978731857e-12
-4.125475401e-09
-5.99430749e-12
-4.119471166e-09
-6.012360617e-12
-4.113461196e-09
-6.032748498e-12
-4.107441503e-09
-6.055338317e-12
-4.101406878e-09
-6.080016354e-12
-4.095351093e-09
-6.106695025e-12
-4.08926718e-09
-6.135318428e-12
-4.083147757e-09
-6.165865296e-12
-4.076985408e-09
-6.19835002e-12
-4.070773071e-09
-6.232822257e-12
-4.064504432e-09
-6.269363853e-12
-4.058174272e-09
-6.308084629e-12
-4.051778765e-09
-6.349117018e-12
-4.045315671e-09
-6.392608784e-12
-4.038784423e-09
-6.438715484e-12
-4.032186089e-09
-6.487591612e-12
-4.025523189e-09
-6.539381918e-12
-4.018799405e-09
-6.594212162e-12
-4.012019167e-09
-6.652180955e-12
-4.005187178e-09
-6.713351972e-12
-3.99830789e-09
-6.77774755e-12
-3.991384989e-09
-6.845344343e-12
-3.98442093e-09
-6.916070684e-12
-3.977416552e-09
-6.989807194e-12
-3.970370821e-09
-7.066388904e-12
-3.963280718e-09
-7.145610805e-12
-3.956141271e-09
-7.227235744e-12
-3.948945754e-09
-7.311004288e-12
-3.941686008e-09
-7.396646254e-12
-3.934352879e-09
-7.483893289e-12
-3.926936723e-09
-7.57249201e-12
-3.919427946e-09
-7.662216162e-12
-3.911817528e-09
-7.752877997e-12
-3.904097492e-09
-7.84433754e-12
-3.896261285e-09
-7.936509223e-12
-3.888304042e-09
-8.029365865e-12
-3.880222718e-09
-8.122938854e-12
-3.872016076e-09
-8.217315782e-12
-3.863684552e-09
-8.312634243e-12
-3.855230001e-09
-8.409073326e-12
-3.846655359e-09
-8.506842667e-12
-3.837964244e-09
-8.6061701e-12
-3.829160542e-09
-8.707288333e-12
-3.820248001e-09
-8.81042178e-12
-3.811229876e-09
-8.915774035e-12
-3.80210863e-09
-9.023517103e-12
-3.792885744e-09
-9.133782389e-12
-3.783561603e-09
-9.246654305e-12
-3.774135491e-09
-9.3621671e-12
-3.764605674e-09
-9.48030397e-12
-3.754969553e-09
-9.600999355e-12
-3.745223871e-09
-9.724143585e-12
-3.735364953e-09
-9.849589946e-12
-3.725388945e-09
-9.977162797e-12
-3.715292041e-09
-1.0106667e-11
-3.70507067e-09
-1.023789778e-11
-3.694721632e-09
-1.037064994e-11
-3.684242176e-09
-1.050472669e-11
-3.67363002e-09
-1.063994689e-11
-3.662883317e-09
-1.077615092e-11
-3.652000573e-09
-1.091320448e-11
-3.64098054e-09
-1.105100076e-11
-3.629822096e-09
-1.11894607e-11
-3.618524128e-09
-1.132853145e-11
-3.607085434e-09
-1.146818351e-11
-3.595504658e-09
-1.160840692e-11
-3.583780269e-09
-1.174920663e-11
-3.571910569e-09
-1.189059745e-11
-3.559893762e-09
-1.20325991e-11
-3.547728035e-09
-1.21752315e-11
-3.53541168e-09
-1.231851075e-11
-3.522943213e-09
-1.246244557e-11
-3.510321498e-09
-1.26070349e-11
-3.497545843e-09
-1.275226594e-11
-3.484616075e-09
-1.289811346e-11
-3.471532574e-09
-1.30445394e-11
-3.458296259e-09
-1.319149363e-11
-3.444908538e-09
-1.33389146e-11
-3.431371215e-09
-1.348673078e-11
-3.417686364e-09
-1.363486222e-11
-3.40385619e-09
-1.378322174e-11
-3.38988287e-09
-1.393171702e-11
-3.375768412e-09
-1.40802514e-11
-3.361514525e-09
-1.422872523e-11
-3.347122521e-09
-1.437703723e-11
-3.33259325e-09
-1.452508466e-11
-3.317927086e-09
-1.467276442e-11
-3.303123941e-09
-1.481997333e-11
-3.288183336e-09
-1.496660842e-11
-3.273104486e-09
-1.511256715e-11
-3.257886427e-09
-1.525774825e-11
-3.242528138e-09
-1.540205132e-11
-3.227028684e-09
-1.554537789e-11
-3.211387325e-09
-1.568763174e-11
-3.195603629e-09
-1.582871955e-11
-3.179677534e-09
-1.596855202e-11
-3.163609394e-09
-1.61070449e-11
-3.147399978e-09
-1.624411983e-11
-3.131050444e-09
-1.637970483e-11
-3.114562279e-09
-1.651373523e-11
-3.097937219e-09
-1.664615425e-11
-3.081177159e-09
-1.677691394e-11
-3.064284058e-09
-1.690597545e-11
-3.047259852e-09
-1.703330907e-11
-3.030106385e-09
-1.715889398e-11
-3.012825362e-09
-1.728271759e-11
-2.995418328e-09
-1.740477451e-11
-2.977886682e-09
-1.752506554e-11
-2.96023171e-09
-1.764359565e-11
-2.942454649e-09
-1.776037261e-11
-2.924556763e-09
-1.787540497e-11
-2.906539428e-09
-1.798870003e-11
-2.888404216e-09
-1.810026194e-11
-2.87015297e-09
-1.821009005e-11
-2.851787863e-09
-1.831817729e-11
-2.833311426e-09
-1.842450887e-11
-2.814726557e-09
-1.852906141e-11
-2.796036495e-09
-1.863180225e-11
-2.777244767e-09
-1.873268958e-11
-2.758355114e-09
-1.883167238e-11
-2.739371402e-09
-1.892869126e-11
-2.720297513e-09
-1.902367944e-11
-2.701137248e-09
-1.911656362e-11
-2.681894231e-09
-1.920726568e-11
-2.662571829e-09
-1.929570402e-11
-2.643173092e-09
-1.938179501e-11
-2.623700726e-09
-1.946545458e-11
-2.604157084e-09
-1.954659969e-11
-2.584544193e-09
-1.962514919e-11
-2.564863804e-09
-1.970102504e-11
-2.545117457e-09
-1.977415318e-11
-2.525306569e-09
-1.984446366e-11
-2.505432526e-09
-1.991189124e-11
-2.485496771e-09
-1.997637561e-11
-2.465500892e-09
-2.003786069e-11
-2.445446695e-09
-2.009629498e-11
-2.425336257e-09
-2.015163103e-11
-2.405171963e-09
-2.020382479e-11
-2.384956516e-09
-2.02528356e-11
-2.364692932e-09
-2.029862555e-11
-2.344384512e-09
-2.034115921e-11
-2.324034797e-09
-2.038040354e-11
-2.303647514e-09
-2.041632756e-11
-2.283226514e-09
-2.04489024e-11
-2.262775707e-09
-2.047810147e-11
-2.242299e-09
-2.050390043e-11
-2.22180024e-09
-2.052627757e-11
-2.201283166e-09
-2.05452139e-11
-2.180751377e-09
-2.056069331e-11
-2.160208302e-09
-2.057270295e-11
-2.139657189e-09
-2.058123311e-11
-2.119101112e-09
-2.058627721e-11
-2.098542974e-09
-2.05878318e-11
-2.077985534e-09
-2.058589596e-11
-2.057431433e-09
-2.058047122e-11
-2.03688323e-09
-2.057156044e-11
-2.016343447e-09
-2.055916761e-11
-1.995814604e-09
-2.054329678e-11
-1.975299274e-09
-2.052395104e-11
-1.954800125e-09
-2.050113153e-11
-1.934319968e-09
-2.047483671e-11
-1.9138618e-09
-2.044506145e-11
-1.893428848e-09
-2.041179594e-11
-1.873024603e-09
-2.037502509e-11
-1.852652852e-09
-2.033472817e-11
-1.832317697e-09
-2.029087829e-11
-1.812023568e-09
-2.024344218e-11
-1.791775222e-09
-2.019238048e-11
-1.771577727e-09
-2.013764764e-11
-1.751436432e-09
-2.00791929e-11
-1.731356928e-09
-2.001696036e-11
-1.711344985e-09
-1.99508902e-11
-1.691406484e-09
-1.988091933e-11
-1.671547338e-09
-1.980698267e-11
-1.651773405e-09
-1.972901409e-11
-1.632090396e-09
-1.964694765e-11
-1.612503791e-09
-1.956071849e-11
-1.59301876e-09
-1.947026416e-11
-1.573640095e-09
-1.937552569e-11
-1.55437216e-09
-1.927644815e-11
-1.535218865e-09
-1.917298187e-11
-1.516183658e-09
-1.906508295e-11
-1.497269555e-09
-1.895271378e-11
-1.478479182e-09
-1.883584359e-11
-1.45981485e-09
-1.871444849e-11
-1.441278652e-09
-1.858851181e-11
-1.422872572e-09
-1.845802394e-11
-1.404598611e-09
-1.832298216e-11
-1.386458909e-09
-1.818339049e-11
-1.368455871e-09
-1.803925911e-11
-1.350592276e-09
-1.789060399e-11
-1.332871372e-09
-1.773744657e-11
-1.315296939e-09
-1.757981274e-11
-1.297873329e-09
-1.74177326e-11
-1.280605469e-09
-1.725123976e-11
-1.263498831e-09
-1.708037065e-11
-1.246559367e-09
-1.690516401e-11
-1.229793414e-09
-1.672566035e-11
-1.21320758e-09
-1.654190121e-11
-1.196808602e-09
-1.63539293e-11
-1.180603201e-09
-1.616178755e-11
-1.164597936e-09
-1.596551954e-11
-1.148799061e-09
-1.576516998e-11
-1.133212402e-09
-1.556078544e-11
-1.117843258e-09
-1.535241271e-11
-1.102696332e-09
-1.514009795e-11
-1.087775699e-09
-1.492388725e-11
-1.073084803e-09
-1.470382723e-11
-1.058626497e-09
-1.447996555e-11
-1.044403111e-09
-1.425235066e-11
-1.030416543e-09
-1.402103218e-11
-1.01666838e-09
-1.378606037e-11
-1.003160026e-09
-1.354748609e-11
-9.898928337e-10
-1.330536049e-11
-9.76868238e-10
-1.305973415e-11
-9.640878713e-10
-1.281065663e-11
-9.515536635e-10
-1.255817529e-11
-9.39267918e-10
-1.230233433e-11
-9.272333594e-10
-1.204317315e-11
-9.154531533e-10
-1.178072491e-11
-9.039308976e-10
-1.151501448e-11
-8.926705893e-10
-1.124605701e-11
-8.816765687e-10
-1.097385592e-11
-8.709534414e-10
-1.069840891e-11
-8.605059947e-10
-1.041970122e-11
-8.503391206e-10
-1.013769647e-11
-8.404577375e-10
-9.852338315e-12
-8.308667224e-10
-9.563549861e-12
-8.215708579e-10
-9.27123236e-12
-8.12574799e-10
-8.97526211e-12
-8.038830632e-10
-8.675488183e-12
-7.955000444e-10
-8.371728148e-12
-7.874300524e-10
-8.063763915e-12
-7.796773764e-10
-7.751334569e-12
-7.72246353e-10
-7.434147529e-12
-7.651414572e-10
-7.11186742e-12
-7.583674299e-10
-6.784085182e-12
-7.519294147e-10
-6.450312936e-12
-7.458331056e-10
-6.109971222e-12
-7.400849131e-10
-5.762365608e-12
-7.346921627e-10
-5.406647751e-12
-7.296633462e-10
-5.041752417e-12
-7.250083266e-10
-4.666434419e-12
-7.207386181e-10
-4.279182985e-12
-7.1686776e-10
-3.878118361e-12
-7.134117282e-10
-3.460946571e-12
-7.103887469e-10
-3.025551923e-12
-7.078174601e-10
-2.5716333e-12
-7.057162638e-10
-2.099540422e-12
-7.040989649e-10
-1.613945448e-12
-7.028434444e-10
-1.250839583e-12
-7.021735178e-10
-6.643351982e-13
-3.078744697e-13
-1.781758756e-09
-2.311926501e-11
-1.770036046e-09
-2.029735763e-11
-1.759782932e-09
-1.727374394e-11
-1.750517901e-09
-1.483054538e-11
-1.742074409e-09
-1.289668793e-11
-1.734349369e-09
-1.137545746e-11
-1.727743841e-09
-1.006332808e-11
-1.721551893e-09
-8.63978672e-12
-1.713237819e-09
-6.40642192e-12
-1.706460385e-09
-6.6383064e-12
-1.700073813e-09
-6.535847701e-12
-1.694398425e-09
-6.840450015e-12
-1.689957502e-09
-7.519325341e-12
-1.685777539e-09
-7.527828761e-12
-1.681544004e-09
-7.049597035e-12
-1.67578272e-09
-6.804709172e-12
-1.669807717e-09
-6.759757061e-12
-1.66361153e-09
-6.956885286e-12
-1.659840874e-09
-8.082553094e-12
-1.655941699e-09
-8.210639806e-12
-1.650746825e-09
-7.552580914e-12
-1.647018731e-09
-7.356483735e-12
-1.641607209e-09
-6.230284416e-12
-1.634255221e-09
-5.214708462e-12
-1.630965198e-09
-6.163087702e-12
-1.625140625e-09
-5.473014364e-12
-1.617628255e-09
-5.091469691e-12
-1.613440031e-09
-6.50745976e-12
-1.609120083e-09
-7.498568635e-12
-1.604070165e-09
-7.938659326e-12
-1.599950901e-09
-8.702428577e-12
-1.596621763e-09
-8.68912634e-12
-1.591432475e-09
-7.090313263e-12
-1.584385894e-09
-5.788987308e-12
-1.577995674e-09
-6.207572409e-12
-1.572050166e-09
-6.576415474e-12
-1.566259539e-09
-6.913502602e-12
-1.561243425e-09
-6.972647786e-12
-1.556736912e-09
-6.208692399e-12
-1.546185037e-09
-4.434201472e-12
-1.539022864e-09
-6.510864867e-12
-1.534078109e-09
-9.231095512e-12
-1.527252946e-09
-1.044847895e-11
-1.531322518e-09
-1.295164951e-11
-1.52758832e-09
-1.129425668e-11
-1.52247232e-09
-7.784268692e-12
-1.508950633e-09
-4.275840295e-12
-1.507851237e-09
-5.678212766e-12
-1.50365897e-09
-8.036231889e-12
-1.499794527e-09
-7.809976216e-12
-1.497643147e-09
-8.687318417e-12
-1.490370656e-09
-7.433559185e-12
-1.486141142e-09
-7.278100504e-12
-1.47789204e-09
-7.034321726e-12
-1.474172664e-09
-7.813211822e-12
-1.469334656e-09
-6.985108256e-12
-1.469502865e-09
-7.840049405e-12
-1.469172013e-09
-5.630770397e-12
-1.457435161e-09
-3.761714965e-12
-1.454068772e-09
-4.586751116e-12
-1.456867737e-09
-6.438606215e-12
-1.452004039e-09
-5.568150844e-12
-1.446748255e-09
-4.669540871e-12
-1.442384476e-09
-2.447889771e-12
-1.432058074e-09
-2.214211049e-12
-1.42362673e-09
-4.091910933e-12
-1.420943839e-09
-7.637085551e-12
-1.423921581e-09
-1.020003844e-11
-1.422026446e-09
-9.415589155e-12
-1.420262279e-09
-7.868663112e-12
-1.41724876e-09
-6.141733161e-12
-1.413756996e-09
-4.882347374e-12
-1.409129097e-09
-4.571695305e-12
-1.405285963e-09
-4.868639495e-12
-1.398910832e-09
-4.637333398e-12
-1.401083341e-09
-7.547575004e-12
-1.401501279e-09
-5.967143586e-12
-1.394444713e-09
-3.82714291e-12
-1.389925018e-09
-3.463082525e-12
-1.38818263e-09
-2.543594676e-12
-1.382587026e-09
-3.648643818e-12
-1.376947953e-09
-4.771229909e-12
-1.376917318e-09
-6.604063981e-12
-1.383091902e-09
-9.310515333e-12
-1.380177266e-09
-7.599437728e-12
-1.384597158e-09
-7.447247318e-12
-1.379625857e-09
-3.490304643e-12
-1.378600374e-09
-4.561080524e-13
-1.372736354e-09
-6.752282802e-13
-1.373078281e-09
-2.1090211e-13
-1.373940738e-09
-2.069206667e-13
-1.368897753e-09
1.26278191e-12
-1.367093289e-09
2.263556905e-13
-1.370196101e-09
-9.186269852e-13
-1.366681663e-09
1.542108076e-12
-1.363077971e-09
1.379758656e-12
-1.358868664e-09
4.091670701e-13
-1.360632456e-09
-7.811207909e-13
-1.364665138e-09
-2.447368001e-12
-1.37156447e-09
-4.150665646e-12
-1.374600037e-09
8.595861728e-13
-1.372450886e-09
2.948999394e-12
-1.373120522e-09
4.363835852e-12
-1.372783221e-09
6.641019859e-12
-1.374128834e-09
6.076457119e-12
-1.379657628e-09
5.087639597e-12
-1.380275391e-09
5.484010018e-12
-1.381661077e-09
6.419408493e-12
-1.383107079e-09
6.327920048e-12
-1.386445061e-09
7.469202936e-12
-1.388106427e-09
8.276975031e-12
-1.386550372e-09
1.021354793e-11
-1.389082221e-09
9.211264878e-12
-1.391642925e-09
7.405100314e-12
-1.396197203e-09
5.812394222e-12
-1.406789229e-09
4.546062795e-12
-1.408873645e-09
6.552260873e-12
-1.416878014e-09
6.96288097e-12
-1.418380999e-09
9.586384798e-12
-1.419859623e-09
9.884030613e-12
-1.430165057e-09
7.615033392e-12
-1.440923277e-09
7.857767912e-12
-1.445260827e-09
1.212896446e-11
-1.451849642e-09
1.54897858e-11
-1.454453202e-09
1.801897696e-11
-1.458138273e-09
1.75069198e-11
-1.465536384e-09
1.544261509e-11
-1.47256472e-09
1.601274557e-11
-1.474970058e-09
1.714776805e-11
-1.485699842e-09
1.43625633e-11
-1.496879445e-09
1.308268307e-11
-1.510918137e-09
1.226570856e-11
-1.524204052e-09
1.390083901e-11
-1.528089271e-09
1.776336762e-11
-1.538942885e-09
1.659016532e-11
-1.55050535e-09
1.609488515e-11
-1.562463478e-09
1.61708312e-11
-1.574901168e-09
1.656504759e-11
-1.587643959e-09
1.725437876e-11
-1.600345026e-09
1.825259404e-11
-1.612577165e-09
1.944168372e-11
-1.624621706e-09
2.077314557e-11
-1.636248838e-09
2.182458635e-11
-1.646743345e-09
2.266705943e-11
-1.657569063e-09
2.207132634e-11
-1.683030237e-09
1.68247208e-11
-1.705192229e-09
1.84994029e-11
-1.724961015e-09
2.160929813e-11
-1.742828845e-09
2.506281821e-11
-1.761024582e-09
2.844009228e-11
-1.779641387e-09
3.161417038e-11
-1.797011593e-09
3.450735361e-11
-1.815132325e-09
3.71864683e-11
-1.83705289e-09
3.761572784e-11
-1.861757324e-09
3.770751615e-11
-1.886590685e-09
3.831897588e-11
-1.913139936e-09
3.933842869e-11
-1.939404289e-09
4.065433138e-11
-1.97136504e-09
4.050653733e-11
-1.999091254e-09
4.343538539e-11
-2.029032991e-09
4.536907141e-11
-2.057481379e-09
4.813754703e-11
-2.088869233e-09
4.930508949e-11
-2.120615985e-09
5.158320042e-11
-2.154923881e-09
5.323812395e-11
-2.190921431e-09
5.473092154e-11
-2.228052342e-09
5.64835419e-11
-2.266066368e-09
5.851478327e-11
-2.305072648e-09
6.075006212e-11
-2.345250736e-09
6.310331901e-11
-2.386727835e-09
6.552457872e-11
-2.429563823e-09
6.799293076e-11
-2.473795801e-09
7.044443247e-11
-2.519863621e-09
7.282764205e-11
-2.568766594e-09
7.530896756e-11
-2.61809537e-09
7.846542597e-11
-2.669692069e-09
8.181138726e-11
-2.723558396e-09
8.523015684e-11
-2.77951385e-09
8.886270531e-11
-2.83786239e-09
9.270604406e-11
-2.898960928e-09
9.685855439e-11
-2.963044834e-09
1.017092448e-10
-3.030355329e-09
1.069696349e-10
-3.100796157e-09
1.123135535e-10
-3.174318749e-09
1.180919106e-10
-3.25134087e-09
1.243028439e-10
-3.332234894e-09
1.308878253e-10
-3.417319995e-09
1.380110004e-10
-3.506888958e-09
1.458350961e-10
-3.601275726e-09
1.544086145e-10
-3.70093052e-09
1.637378017e-10
-3.806402831e-09
1.738003494e-10
-3.918176147e-09
1.846132255e-10
-4.036814488e-09
1.962630088e-10
-4.162741306e-09
2.087973356e-10
-4.296352184e-09
2.224605547e-10
-4.438581309e-09
2.374811456e-10
-4.590159111e-09
2.540377456e-10
-4.751711368e-09
2.721882276e-10
-4.924288472e-09
2.92045846e-10
-5.109195788e-09
3.139676066e-10
-5.307690559e-09
3.381848283e-10
-5.521052099e-09
3.652884335e-10
-5.751129831e-09
3.959636505e-10
-5.998966367e-09
4.31310279e-10
-6.268544577e-09
4.714576621e-10
-6.562284434e-09
5.17608698e-10
-6.883277527e-09
5.699398238e-10
-7.234758058e-09
6.293021896e-10
-7.620918176e-09
6.972468783e-10
-8.046399673e-09
7.750385644e-10
-8.516034084e-09
8.642459113e-10
-9.034838089e-09
9.662258411e-10
-9.607628518e-09
1.081207171e-09
-1.023770364e-08
1.206824382e-09
-1.092585978e-08
1.335992494e-09
-1.165989242e-08
1.449087047e-09
-1.241022723e-08
1.505388295e-09
-1.323432191e-08
1.469853551e-09
-1.437207612e-08
1.417136897e-09
-1.560700565e-08
1.562507671e-09
-1.686736821e-08
1.739550161e-09
-1.812603377e-08
1.603342524e-09
-1.915527354e-08
1.339345774e-09
-2.00548367e-08
9.905122742e-10
-2.078469603e-08
6.552231109e-10
-2.133781355e-08
3.597975441e-10
-2.174431767e-08
1.424162555e-10
-2.20002998e-08
-7.348659291e-11
-2.207742493e-08
-3.03571146e-10
-2.194505661e-08
-5.294116282e-10
-2.166820425e-08
-6.814291703e-10
-2.131617152e-08
-7.494728514e-10
-2.092924043e-08
-7.644829094e-10
-2.052281009e-08
-7.543578781e-10
-2.011145505e-08
-7.274633906e-10
-1.970658847e-08
-6.891506504e-10
-1.931811058e-08
-6.432149315e-10
-1.894909757e-08
-5.9778929e-10
-1.860079283e-08
-5.546170199e-10
-1.82731177e-08
-5.146377022e-10
-1.796464506e-08
-4.783420128e-10
-1.767452822e-08
-4.449268207e-10
-1.740176966e-08
-4.144228842e-10
-1.714517523e-08
-3.866979854e-10
-1.690379177e-08
-3.612076098e-10
-1.667669049e-08
-3.377490376e-10
-1.646290331e-08
-3.162283376e-10
-1.626152631e-08
-2.964457122e-10
-1.607171575e-08
-2.78232915e-10
-1.589265281e-08
-2.614823807e-10
-1.572357336e-08
-2.460622082e-10
-1.556378388e-08
-2.318281234e-10
-1.541264193e-08
-2.186706356e-10
-1.526955687e-08
-2.064860183e-10
-1.513399094e-08
-1.951735675e-10
-1.50054569e-08
-1.846392163e-10
-1.488350411e-08
-1.748108737e-10
-1.47677172e-08
-1.656226768e-10
-1.465771354e-08
-1.570170912e-10
-1.455314307e-08
-1.489413389e-10
-1.445368265e-08
-1.413543216e-10
-1.435903305e-08
-1.342221159e-10
-1.426891629e-08
-1.275167633e-10
-1.418307482e-08
-1.212122896e-10
-1.410126845e-08
-1.152866419e-10
-1.402327194e-08
-1.097196411e-10
-1.394887206e-08
-1.044930417e-10
-1.387786643e-08
-9.958885407e-11
-1.381006394e-08
-9.4988096e-11
-1.374528549e-08
-9.066882836e-11