/*--------------------------------*- C++ -*----------------------------------*\
| =========                 |                                                 |
| \\      /  F ield         | OpenFOAM: The Open Source CFD Toolbox           |
|  \\    /   O peration     | Version:  v2006                                 |
|   \\  /    A nd           | Website:  www.openfoam.com                      |
|    \\/     M anipulation  |                                                 |
\*---------------------------------------------------------------------------*/
FoamFile
{
    version     2.0;
    format      ascii;
    class       volScalarField;
    location    "0.075";
    object      rho;
}
// * * * * * * * * * * * * * * * * * * * * * * * * * * * * * * * * * * * * * //

dimensions      [1 -3 0 0 0 0 0];


internalField   nonuniform List<scalar> 
72000
(
0.8721220736
0.8721221749
0.8721188336
0.8720977058
0.8720632753
0.8720095466
0.871977433
0.8722286705
0.8720110817
0.8717407454
0.8716806988
0.8716542964
0.8715966978
0.8715248024
0.8714386438
0.8713702113
0.8712916594
0.8711993561
0.8711253782
0.8710382823
0.8709651581
0.8708797487
0.8708054028
0.8707179321
0.8706427152
0.870564692
0.8704957595
0.8704501791
0.8704186487
0.8703779158
0.8701728984
0.8701716718
0.8701294878
0.8701042252
0.8700964425
0.8700720782
0.8700198386
0.8698245672
0.8689603998
0.8688220809
0.8687166533
0.8685694875
0.8684050251
0.8682248277
0.8680991119
0.8679525346
0.8677847035
0.8676656095
0.8675112301
0.8674027271
0.8672493304
0.8671441866
0.866993049
0.8668942476
0.8667582199
0.8665988957
0.8664749158
0.8663166454
0.8662057656
0.8660630486
0.8658838903
0.8657483638
0.8655774524
0.8654518725
0.8652774973
0.865151409
0.8649872716
0.8647945405
0.8646406038
0.8644463417
0.8642970228
0.8641103099
0.8639589197
0.8637724888
0.8635602976
0.8633858497
0.8631720253
0.8630092983
0.8628054976
0.8625758645
0.862384109
0.8621678687
0.8619115111
0.8617065064
0.8614594807
0.8612528734
0.8610106538
0.8607337631
0.8604959546
0.8602109042
0.8599663202
0.8596792013
0.85943097
0.8591282389
0.858863765
0.8585482031
0.8582742752
0.8579509695
0.8576540733
0.8573205244
0.857014491
0.8566678331
0.8563565158
0.8559995294
0.8556886267
0.8553321356
0.8549395663
0.854596587
0.8542141773
0.8537963023
0.8534249408
0.8530118548
0.8525701888
0.8521619552
0.8517078682
0.8512873529
0.8508249056
0.8503847722
0.849905048
0.8494557066
0.8489577011
0.8484931144
0.8479796631
0.847426184
0.8469021274
0.8463317604
0.8457864943
0.8451745634
0.8445688851
0.8439738586
0.8433736789
0.8427583659
0.8421462403
0.8415098194
0.8408821436
0.8401757024
0.8394101154
0.8385966431
0.8377332812
0.836804989
0.8357691368
0.8344936293
0.832512861
0.8318646774
0.8310699767
0.8302677822
0.8293824579
0.8284649588
0.8272505959
0.8258122417
0.8241078589
0.8227577845
0.8219985903
0.8212033672
0.820224893
0.8189500723
0.817957345
0.8168730256
0.8157825493
0.8146206158
0.813441766
0.812184777
0.8108896045
0.8094802518
0.808391068
0.8077941699
0.8066417808
0.805246356
0.8037020541
0.8020813382
0.8004001917
0.7986601138
0.7968561618
0.7949724385
0.7929597626
0.7908099845
0.7885526506
0.7863434208
0.7843500847
0.7826839036
0.7805353728
0.7779882001
0.7759140446
0.7732609628
0.7709117669
0.7687682231
0.7661962743
0.7632924618
0.7600160409
0.7568616694
0.7537000972
0.7506113982
0.7470786864
0.74342211
0.7394864133
0.7356895521
0.7317630967
0.72733638
0.722898625
0.7183312218
0.7137228893
0.7087928087
0.703600786
0.6984628034
0.692974692
0.6871268762
0.6811381208
0.6750829656
0.6689269842
0.6628532662
0.6568865958
0.6510832357
0.6456308905
0.640815943
0.6367804024
0.6337031904
0.6316508354
0.6313095567
0.6323891841
0.6219232372
0.5673168755
0.6785136045
0.7142219429
0.7813007016
0.8240071305
0.8648318027
0.9030038076
0.9378718756
0.9685026308
0.9932127581
1.013404742
1.027875654
1.037527707
1.045186819
1.051776091
1.056924107
1.061336399
1.065203948
1.068628936
1.071664036
1.074107278
1.0761679
1.078022031
1.079616439
1.080962928
1.082098167
1.08305817
1.083873811
1.084570196
1.085167672
1.085682635
1.086128346
1.086515559
1.086853134
1.087148372
1.087407264
1.087634829
1.087835291
1.088012226
1.088168675
1.088307226
1.088430105
1.088539228
1.088636257
1.088722635
1.088799633
1.088868386
1.088930035
1.08898517
1.089033943
1.089076082
1.089114021
1.089148122
1.089178724
1.089206096
1.08923045
1.089251808
1.089269511
1.089283686
1.089295675
1.089306146
1.08931541
1.089323657
1.089331012
1.08933758
1.089343443
1.089348679
1.089353354
1.089357533
1.089361281
1.089361598
1.089361792
1.089361976
1.089362153
1.089362324
1.089362492
1.089362657
1.089362821
1.089362986
1.08936315
1.089363315
1.08936348
1.089363643
1.089363803
1.08936396
1.089364111
1.089364256
1.089364393
1.089364522
1.089364645
1.08936476
1.08936487
1.089364977
1.089365081
1.089365187
1.089365294
1.089365406
1.089365523
1.089365647
1.089365778
1.089365915
1.089366058
1.089366206
1.089366358
1.089366511
1.089366664
1.089366816
1.089366966
1.089367111
1.089367252
1.089367388
1.08936752
1.089367647
1.089367771
1.089367892
1.089368011
1.08936813
1.089368248
1.089368366
1.089368486
1.089368607
1.089368729
1.089368852
1.089368976
1.089369101
1.089369225
1.089369349
1.089369473
1.089369596
1.089369717
1.089369838
1.089369957
1.089370076
1.089370194
1.089370312
1.089370431
1.089370551
1.089370673
1.089370797
1.089370923
1.089371052
1.089371185
1.08937132
1.089371459
1.089371599
1.089371742
1.089371886
1.08937203
1.089372174
1.089372316
1.089372456
1.089372594
1.089372729
1.08937286
1.089372988
1.089373113
1.089373234
1.089373354
1.089373471
1.089373588
1.089373704
1.089373821
1.089373939
1.089374058
1.08937418
1.089374304
1.08937443
1.089374559
1.089374689
1.089374821
1.089374954
1.089375087
1.08937522
1.089375352
1.089375484
1.089375614
1.089375743
1.089375869
1.089375995
1.089376119
1.089376241
1.089376362
1.089376482
1.089376602
1.089376721
1.089376839
1.089376957
1.089377075
1.089377193
1.089377311
1.089377428
1.089377545
1.089377662
1.089377778
1.089377894
1.08937801
1.089378126
1.089378241
1.089378356
1.089378471
1.089378587
1.089378703
1.089378819
1.089378935
1.089379052
1.089379169
1.089379287
1.089379404
1.089379522
1.089379639
1.089379756
1.089379872
1.089379987
1.089380101
1.089380215
1.089380327
1.089380438
1.089380548
1.089380657
1.089380765
1.089380872
1.089380978
1.089381084
1.089381188
1.089381292
1.089381396
1.089381498
1.0893816
1.089381701
1.089381801
1.0893819
1.089381998
1.089382096
1.089382193
1.089382289
1.089382384
1.089382479
1.089382574
1.089382669
1.089382763
1.089382858
1.089382954
1.08938305
1.089383146
1.089383243
1.089383341
1.089383439
1.089383537
1.089383635
1.089383733
1.08938383
1.089383927
1.089384022
1.089384116
1.089384209
1.0893843
1.08938439
1.089384478
1.089384564
1.089384648
1.08938473
1.089384812
1.089384891
1.08938497
1.089385049
1.089385126
1.089385203
1.08938528
1.089385358
1.089385435
1.089385513
1.089385591
1.089385669
1.089385749
1.089385828
1.089385908
1.089385989
1.08938607
1.089386151
1.089386232
1.089386313
1.089386394
1.089386475
1.089386556
1.089386637
1.089386717
1.089386797
1.089386877
1.089386957
1.089387038
1.089387118
1.089387199
1.089387281
1.089387364
1.089387448
1.089387533
1.089387619
1.089387708
1.089387798
1.08938789
1.089387985
1.089388081
1.089388179
1.089388279
1.089388381
1.089388485
1.089388591
1.089388699
1.089388808
1.089388918
1.08938903
1.089389144
1.08938926
1.089389377
1.089389496
1.089389618
1.089389741
1.089389868
1.089389998
1.089390131
1.089390268
1.089390409
1.089390555
1.089390705
1.089390861
1.089391022
1.08939119
1.089391363
1.089391543
1.089391731
1.089391925
1.089392127
1.089392336
1.089392555
1.089392781
1.089393018
1.089393263
1.08939352
1.089393787
1.089394066
1.089394357
1.089394662
1.089394981
1.089395315
1.089395665
1.089396032
1.089396418
1.089396823
1.08939725
1.089397698
1.089398171
1.08939867
1.089399196
1.089399752
1.08940034
1.089400963
1.089401625
1.089402328
1.089403076
1.089403874
1.089404728
1.089405643
1.089406627
1.089407687
1.089408834
1.08941008
1.089411439
1.089412929
1.089414572
1.089416396
1.089418438
1.089420744
1.08942338
1.089426434
1.089430039
1.089434392
1.089439816
1.089446875
1.08943589
1.089415003
0.7259225139
0.7259473679
0.7259850251
0.7260148141
0.7260275642
0.7260225626
0.7260260761
0.726020442
0.7259216226
0.7257214501
0.7255614013
0.725465431
0.7253740764
0.7252752746
0.7251677163
0.7250621741
0.7249462591
0.7248204221
0.7246960505
0.7245637066
0.7244324374
0.7242929881
0.7241540507
0.7240051455
0.7238542319
0.7236953758
0.7235300161
0.7233501667
0.72312591
0.7228263567
0.7224615181
0.722210779
0.7219839117
0.721763842
0.7215182392
0.7212137976
0.7208355417
0.720367187
0.7198184338
0.7194488531
0.7191584404
0.718889871
0.7186272202
0.7183698234
0.7181459121
0.7179161594
0.7176775877
0.7174612204
0.7172358788
0.7170280015
0.7168074947
0.7166030917
0.7163863951
0.7161857545
0.7159668479
0.7157300446
0.7155095216
0.7152765913
0.7150595613
0.7148238293
0.7145685071
0.7143279512
0.7140732407
0.7138322003
0.7135764398
0.7133350107
0.713072078
0.7127891947
0.7125201656
0.71223574
0.7119642484
0.7116768533
0.711402959
0.7111071028
0.7107905377
0.7104884433
0.7101717808
0.7098690222
0.7095453055
0.7092017983
0.7088734972
0.7085245899
0.7081547652
0.7077983015
0.7074254945
0.707064889
0.7066805256
0.7062724401
0.7058746093
0.7054571268
0.7050474325
0.704616065
0.7041911915
0.7037432051
0.7033008404
0.7028345536
0.7023736532
0.7018888324
0.7014088306
0.7009044268
0.7004047585
0.699882327
0.6993683685
0.6988313488
0.6983015191
0.6977453873
0.6971641491
0.6965928408
0.6959973875
0.6953779128
0.6947683486
0.694133021
0.6934708946
0.6928161349
0.6921374528
0.691462173
0.6907603451
0.6900604198
0.6893330754
0.6886069294
0.6878532714
0.6870996713
0.6863114167
0.6854888693
0.6846638836
0.6838058295
0.6829399265
0.6820344854
0.6811199387
0.6801983656
0.6792655946
0.6783182797
0.6773537643
0.6763688649
0.6753574698
0.6743062917
0.6732121726
0.6720754569
0.67089365
0.6696604992
0.6683644311
0.6669902734
0.6655532571
0.6642633499
0.6629780664
0.6616885041
0.6603353148
0.6589353411
0.6574505365
0.6558686166
0.6541724814
0.65235728
0.6506672223
0.6489905606
0.6472059323
0.6455478188
0.6440505008
0.6425117569
0.6409479943
0.6393423881
0.6377103097
0.6360321244
0.6343336626
0.6326114677
0.6309188213
0.6292428548
0.6274706982
0.6256037102
0.62365777
0.6216459591
0.6195738082
0.6174416858
0.6152464795
0.612982659
0.6106692469
0.6083022705
0.6058686703
0.6033797541
0.6008045761
0.5981199713
0.5952988163
0.5923457197
0.589481704
0.5865113531
0.583490957
0.5803978857
0.577199563
0.5738820852
0.5704360872
0.5668907239
0.5632441645
0.5594720754
0.5555308924
0.5514021385
0.5472844671
0.5430840024
0.5387315233
0.5342020648
0.5295046081
0.5246302214
0.5196861004
0.5145569939
0.5092316341
0.5037216214
0.4980914537
0.4918848522
0.4855271273
0.4790755576
0.4724936475
0.4658001985
0.4590808631
0.4523550805
0.4457004686
0.4392359409
0.4330897247
0.4273195981
0.4220798556
0.4168937307
0.4122449158
0.4145647726
0.4378180079
0.5006059763
0.5523943047
0.5947935148
0.6366228012
0.6874419862
0.7337331891
0.7838284489
0.8306272456
0.8731470439
0.9073119481
0.935258238
0.9594000976
0.9804068349
0.9975516774
1.011762681
1.02345765
1.03314571
1.041277833
1.0481243
1.053937362
1.05885629
1.063016038
1.066537481
1.069524949
1.07206973
1.074246741
1.076117755
1.077732497
1.079131551
1.08034798
1.081409016
1.082337133
1.083151013
1.083866399
1.084496588
1.085052743
1.085544404
1.085979684
1.086365569
1.086708089
1.087012453
1.087283187
1.08752423
1.087739022
1.087930568
1.08810148
1.088254019
1.088389794
1.088510143
1.088616997
1.088713338
1.088799846
1.08887741
1.088946744
1.089008499
1.08906298
1.08911037
1.08915115
1.089186586
1.08921779
1.089245472
1.089270119
1.089292095
1.089311696
1.089329172
1.089344745
1.089358619
1.089363013
1.089363425
1.089363805
1.089364158
1.089364485
1.089364791
1.089365079
1.089365352
1.089365612
1.089365863
1.089366105
1.089366341
1.08936657
1.089366793
1.089367009
1.089367218
1.089367419
1.08936761
1.089367792
1.089367963
1.089368124
1.089368274
1.089368416
1.089368551
1.08936868
1.089368806
1.089368931
1.089369057
1.089369185
1.089369319
1.089369457
1.089369602
1.089369752
1.089369908
1.089370068
1.089370231
1.089370395
1.089370559
1.089370721
1.089370879
1.089371034
1.089371184
1.089371329
1.08937147
1.089371605
1.089371738
1.089371867
1.089371994
1.08937212
1.089372246
1.089372373
1.0893725
1.089372628
1.089372758
1.089372888
1.089373019
1.089373151
1.089373283
1.089373414
1.089373544
1.089373674
1.089373803
1.08937393
1.089374057
1.089374182
1.089374308
1.089374433
1.089374558
1.089374685
1.089374814
1.089374944
1.089375077
1.089375213
1.089375353
1.089375495
1.089375639
1.089375787
1.089375936
1.089376086
1.089376236
1.089376386
1.089376535
1.089376682
1.089376826
1.089376967
1.089377105
1.089377239
1.08937737
1.089377498
1.089377624
1.089377748
1.089377871
1.089377994
1.089378117
1.089378241
1.089378368
1.089378496
1.089378626
1.089378759
1.089378894
1.08937903
1.089379168
1.089379307
1.089379447
1.089379586
1.089379724
1.089379862
1.089379998
1.089380132
1.089380265
1.089380396
1.089380526
1.089380654
1.089380781
1.089380907
1.089381032
1.089381157
1.089381281
1.089381405
1.089381528
1.089381652
1.089381775
1.089381898
1.089382021
1.089382143
1.089382265
1.089382387
1.089382508
1.089382629
1.08938275
1.08938287
1.089382991
1.089383112
1.089383233
1.089383354
1.089383476
1.089383598
1.08938372
1.089383842
1.089383965
1.089384087
1.08938421
1.089384331
1.089384452
1.089384572
1.089384692
1.08938481
1.089384927
1.089385043
1.089385158
1.089385272
1.089385385
1.089385497
1.089385608
1.089385718
1.089385827
1.089385936
1.089386044
1.089386151
1.089386258
1.089386363
1.089386468
1.089386572
1.089386675
1.089386778
1.089386879
1.08938698
1.08938708
1.08938718
1.089387279
1.089387379
1.089387478
1.089387578
1.089387678
1.089387778
1.089387879
1.089387981
1.089388083
1.089388186
1.089388289
1.089388392
1.089388494
1.089388597
1.089388698
1.089388799
1.089388898
1.089388996
1.089389092
1.089389187
1.08938928
1.089389371
1.08938946
1.089389548
1.089389635
1.089389721
1.089389805
1.089389889
1.089389973
1.089390056
1.089390139
1.089390223
1.089390306
1.08939039
1.089390475
1.089390561
1.089390647
1.089390733
1.089390821
1.089390908
1.089390997
1.089391085
1.089391174
1.089391264
1.089391353
1.089391442
1.089391532
1.089391621
1.089391711
1.0893918
1.08939189
1.08939198
1.08939207
1.089392161
1.089392253
1.089392346
1.08939244
1.089392536
1.089392633
1.089392733
1.089392834
1.089392938
1.089393044
1.089393152
1.089393263
1.089393377
1.089393493
1.089393611
1.089393732
1.089393856
1.089393981
1.089394109
1.089394239
1.089394372
1.089394507
1.089394644
1.089394784
1.089394927
1.089395073
1.089395222
1.089395375
1.089395532
1.089395694
1.08939586
1.089396032
1.08939621
1.089396394
1.089396585
1.089396783
1.089396988
1.089397201
1.089397423
1.089397653
1.089397892
1.089398141
1.0893984
1.089398669
1.08939895
1.089399242
1.089399546
1.089399864
1.089400195
1.089400542
1.089400904
1.089401282
1.089401678
1.089402094
1.089402529
1.089402986
1.089403466
1.089403971
1.089404501
1.08940506
1.089405648
1.089406269
1.089406924
1.089407616
1.089408349
1.089409124
1.089409947
1.089410821
1.089411751
1.089412742
1.089413801
1.089414934
1.08941615
1.089417458
1.08941887
1.089420398
1.089422059
1.089423871
1.089425858
1.089428048
1.089430477
1.089433191
1.089436248
1.089439727
1.089443733
1.089448411
1.089453898
1.089460581
1.089469008
1.089479456
0.6327895727
0.6328032583
0.6328218593
0.6328347237
0.6328349452
0.6328202615
0.6327933151
0.6327470519
0.632657347
0.6325250678
0.6323913549
0.6322705028
0.6321518997
0.6320296815
0.6319022114
0.6317711615
0.6316334488
0.6314891325
0.6313411349
0.6311879038
0.6310312182
0.6308689732
0.6307024959
0.6305290942
0.6303494992
0.6301611067
0.6299622801
0.6297473869
0.6295064866
0.6292346044
0.6289455941
0.6286786046
0.6284210157
0.6281612585
0.6278838942
0.6275753064
0.6272298624
0.6268507727
0.6264615244
0.6261219197
0.625821181
0.6255408427
0.6252714053
0.6250109858
0.6247651149
0.6245216974
0.6242783616
0.6240413055
0.6238043985
0.6235721482
0.6233379418
0.6231071227
0.6228734036
0.6226410208
0.6224012861
0.6221542785
0.6219083167
0.6216585036
0.6214091797
0.621151559
0.6208854677
0.620619346
0.6203483554
0.6200780521
0.6198025259
0.6195260128
0.6192395764
0.6189437668
0.6186468257
0.6183439702
0.6180408392
0.6177314033
0.6174201143
0.6170982541
0.6167662916
0.6164328261
0.616093051
0.6157513682
0.6153989968
0.615036229
0.6146703217
0.6142933793
0.6139056085
0.61351513
0.6131167889
0.6127147577
0.6123000013
0.6118724354
0.6114469857
0.6110120773
0.6105726476
0.6101224477
0.6096664908
0.6091986944
0.6087243541
0.6082376958
0.6077441722
0.6072379689
0.6067245962
0.6061982662
0.6056643408
0.605116679
0.6045608079
0.6039917613
0.6034148146
0.6028215641
0.6022127055
0.6015956886
0.6009633529
0.6003157386
0.5996597722
0.5989875003
0.598298765
0.5976014654
0.5968899631
0.5961690137
0.5954324523
0.5946851264
0.5939208296
0.5931446849
0.5923503803
0.5915415575
0.5907094322
0.5898536654
0.588981264
0.5880866048
0.5871739802
0.586237845
0.5852856943
0.5843194219
0.5833380876
0.5823397243
0.5813226375
0.5802842924
0.579221777
0.5781291735
0.5770038445
0.5758448062
0.5746608602
0.5734471676
0.5721951912
0.5709061805
0.5695937707
0.5682933023
0.5669823665
0.5656501309
0.5642781326
0.5628647854
0.5614030234
0.5598858317
0.5583122454
0.5566945508
0.5550699441
0.5534185004
0.5517186612
0.5499680162
0.5481879763
0.5463760583
0.5445344726
0.542901615
0.5412656286
0.539597466
0.5379028367
0.5361828075
0.534443992
0.5326780382
0.530861052
0.5289875908
0.5270581524
0.5250749356
0.5230388136
0.5209489469
0.5188029985
0.5165980435
0.514351217
0.5120424165
0.5096725517
0.5072403347
0.5047354328
0.5021449009
0.4994530422
0.496649499
0.493719524
0.4907205417
0.487774395
0.4847513818
0.4816345505
0.4784163396
0.4750947425
0.47167718
0.4681789519
0.4645616673
0.4608094078
0.4569101215
0.4529787634
0.4490077898
0.444904604
0.4406573111
0.4362653041
0.4317646782
0.4271802338
0.4224437688
0.417596829
0.4126037409
0.4075112306
0.4020139927
0.3963203918
0.3905302264
0.3846450394
0.3787114673
0.3727189534
0.366759792
0.3608406719
0.355071293
0.3494827959
0.3441576556
0.3391707906
0.335186575
0.3348221317
0.3430638517
0.3659116153
0.4063698958
0.4401022537
0.4755341053
0.5145475549
0.5612343226
0.6114256944
0.6625665612
0.7047635881
0.7556574905
0.8014420117
0.8449571286
0.8831772463
0.9158118775
0.943140832
0.9658961925
0.9848658048
1.000585072
1.013610163
1.024451809
1.033518661
1.041137802
1.047570961
1.053028084
1.057677294
1.061657849
1.065079949
1.068034988
1.070596187
1.072823888
1.07476742
1.076467865
1.077959353
1.079270494
1.080425439
1.081444593
1.082345452
1.083142917
1.083849832
1.084477218
1.085034631
1.085530336
1.085971541
1.086364525
1.086714774
1.087027071
1.087305581
1.087553902
1.087775159
1.087972377
1.088148838
1.088307236
1.088449072
1.088575889
1.088688956
1.08878941
1.088878185
1.088956205
1.089024645
1.089084994
1.089138529
1.089186185
1.089228681
1.089266595
1.089300415
1.089330564
1.089357421
1.089366112
1.089366785
1.089367401
1.089367965
1.089368483
1.08936896
1.089369402
1.089369812
1.089370196
1.089370557
1.089370899
1.089371224
1.089371534
1.089371831
1.089372116
1.089372388
1.089372649
1.089372896
1.08937313
1.089373351
1.089373558
1.089373752
1.089373934
1.089374105
1.089374266
1.08937442
1.089374569
1.089374715
1.089374861
1.089375009
1.08937516
1.089375315
1.089375475
1.089375641
1.08937581
1.089375983
1.089376159
1.089376335
1.089376511
1.089376684
1.089376854
1.08937702
1.089377181
1.089377336
1.089377487
1.089377633
1.089377775
1.089377915
1.089378052
1.089378188
1.089378324
1.08937846
1.089378596
1.089378734
1.089378873
1.089379012
1.089379153
1.089379294
1.089379435
1.089379575
1.089379715
1.089379853
1.089379991
1.089380128
1.089380263
1.089380398
1.089380532
1.089380667
1.089380802
1.089380937
1.089381075
1.089381214
1.089381356
1.089381501
1.089381649
1.0893818
1.089381953
1.089382109
1.089382267
1.089382426
1.089382585
1.089382743
1.0893829
1.089383056
1.089383208
1.089383358
1.089383504
1.089383647
1.089383787
1.089383923
1.089384058
1.089384191
1.089384323
1.089384455
1.089384587
1.089384721
1.089384856
1.089384993
1.089385133
1.089385274
1.089385418
1.089385564
1.08938571
1.089385858
1.089386006
1.089386154
1.0893863
1.089386446
1.08938659
1.089386733
1.089386874
1.089387013
1.089387151
1.089387287
1.089387423
1.089387557
1.08938769
1.089387823
1.089387955
1.089388087
1.089388219
1.089388351
1.089388482
1.089388613
1.089388744
1.089388874
1.089389004
1.089389133
1.089389262
1.089389391
1.089389519
1.089389647
1.089389776
1.089389904
1.089390032
1.089390161
1.08939029
1.089390419
1.089390548
1.089390678
1.089390807
1.089390937
1.089391066
1.089391195
1.089391323
1.08939145
1.089391576
1.089391701
1.089391825
1.089391947
1.089392069
1.089392189
1.089392309
1.089392427
1.089392545
1.089392662
1.089392777
1.089392893
1.089393007
1.089393121
1.089393234
1.089393346
1.089393457
1.089393567
1.089393677
1.089393785
1.089393893
1.089394
1.089394106
1.089394212
1.089394317
1.089394423
1.089394528
1.089394634
1.08939474
1.089394846
1.089394953
1.08939506
1.089395168
1.089395276
1.089395385
1.089395494
1.089395602
1.08939571
1.089395817
1.089395923
1.089396028
1.089396132
1.089396234
1.089396334
1.089396433
1.08939653
1.089396626
1.08939672
1.089396812
1.089396904
1.089396995
1.089397085
1.089397175
1.089397265
1.089397354
1.089397444
1.089397535
1.089397626
1.089397717
1.08939781
1.089397903
1.089397997
1.089398092
1.089398187
1.089398283
1.08939838
1.089398477
1.089398574
1.089398672
1.08939877
1.089398868
1.089398966
1.089399065
1.089399164
1.089399263
1.089399363
1.089399464
1.089399565
1.089399668
1.089399772
1.089399877
1.089399985
1.089400094
1.089400206
1.08940032
1.089400438
1.089400557
1.08940068
1.089400806
1.089400935
1.089401067
1.089401202
1.08940134
1.089401481
1.089401625
1.089401772
1.089401922
1.089402075
1.089402231
1.089402391
1.089402554
1.089402721
1.089402891
1.089403067
1.089403247
1.089403432
1.089403623
1.08940382
1.089404024
1.089404235
1.089404453
1.08940468
1.089404916
1.08940516
1.089405414
1.089405678
1.089405953
1.089406238
1.089406536
1.089406845
1.089407167
1.089407503
1.089407853
1.089408217
1.089408598
1.089408995
1.08940941
1.089409844
1.089410298
1.089410773
1.089411271
1.089411793
1.089412341
1.089412915
1.089413519
1.089414154
1.089414821
1.089415524
1.089416264
1.089417044
1.089417867
1.089418737
1.089419657
1.08942063
1.089421661
1.089422756
1.089423919
1.089425157
1.089426477
1.089427887
1.089429396
1.089431015
1.089432754
1.089434629
1.089436655
1.089438851
1.089440963
1.089443232
1.089445757
1.089448585
1.089451779
1.089455412
1.089459577
1.089464372
1.08946988
1.08947608
1.089482619
0.5678686214
0.5678722962
0.5678746393
0.5678697314
0.567853122
0.5678223179
0.5677761082
0.5677114944
0.5676230381
0.5675126326
0.5673920571
0.5672683452
0.56714129
0.5670097672
0.5668733379
0.5667322415
0.5665857561
0.5664339771
0.5662777599
0.5661170374
0.5659521363
0.5657824492
0.5656079124
0.5654275563
0.5652409005
0.5650465952
0.5648432993
0.5646287954
0.5644001324
0.5641574777
0.563906994
0.5636582746
0.5634096847
0.563156593
0.5628929671
0.5626145316
0.5623224787
0.5620195407
0.5617166848
0.5614295417
0.5611586005
0.5608989773
0.5606468055
0.5604004324
0.5603513941
0.5602780186
0.5601803833
0.5600636007
0.5599297042
0.5597819228
0.5596209636
0.5594493182
0.5592669909
0.5590754481
0.5588735408
0.5586621141
0.558443807
0.5582184229
0.5579868864
0.5577474717
0.5575005145
0.5572483296
0.5569906098
0.5567285951
0.5564611399
0.5561886004
0.5559088251
0.5556220591
0.5553304155
0.5550334459
0.5547322472
0.5544255525
0.5541137082
0.5537945636
0.5534682104
0.5531366455
0.5527991016
0.5524559735
0.5521049969
0.5517459964
0.5513803042
0.5510061937
0.5506237147
0.5502347043
0.5498382005
0.5494344487
0.5490211451
0.5485981513
0.5481675216
0.5477280353
0.5472803196
0.5468228517
0.5463561834
0.5458794262
0.545393643
0.5448967676
0.5443895636
0.5438708322
0.5433413557
0.5427998953
0.5422471625
0.5416817637
0.5411045231
0.5405143808
0.5399116193
0.5392946756
0.5386638725
0.538020778
0.5373639494
0.5366933168
0.5360100964
0.5353124471
0.534600253
0.5338753879
0.5331369748
0.5323852192
0.5316182526
0.5308363252
0.5300377377
0.5292228587
0.5283899181
0.5275387476
0.5266669099
0.5257741526
0.5248621967
0.5239304573
0.5229801231
0.5220109335
0.5210254802
0.5200253707
0.5190113823
0.5179854166
0.5169804946
0.5159556799
0.5149136056
0.5138462748
0.512752269
0.5116306571
0.5105415744
0.5094430964
0.5083264476
0.5071805586
0.5059874537
0.5047266405
0.5033946513
0.5019966153
0.5005367939
0.4990298007
0.4976176555
0.4961663144
0.4946768679
0.4931546192
0.4916071306
0.4900332265
0.4884371216
0.4868079194
0.4851493351
0.4834608049
0.4817429223
0.4799946944
0.4782196398
0.4764197645
0.4747208708
0.4730534154
0.4713576899
0.4696295431
0.4678613042
0.466064395
0.4642226274
0.4623350901
0.4604011967
0.4584197817
0.4563888836
0.4543059023
0.4521676406
0.4499743288
0.4477372421
0.4454520398
0.4431019933
0.440679623
0.4381760995
0.43558308
0.4328920474
0.4301049673
0.427210786
0.4243545367
0.4214341334
0.4184292362
0.4153384663
0.4121802826
0.4089225331
0.4055582347
0.4020776635
0.3984942872
0.3948435452
0.3911628502
0.3873734529
0.3834789666
0.3794494314
0.3753242557
0.3711465881
0.3668440281
0.3624428299
0.3579319879
0.3533702825
0.3486172323
0.3435643787
0.3384188989
0.3332126917
0.3279614556
0.3227002783
0.3174543755
0.3122957361
0.307229818
0.3023790061
0.29777906
0.29368633
0.2911060243
0.2918147421
0.2985717268
0.3143411664
0.3360616934
0.3577279632
0.3848321214
0.4177174609
0.4576609727
0.5022621579
0.5522528547
0.6032780278
0.6491196087
0.6910851937
0.7420090605
0.7920268829
0.8363318446
0.8746126709
0.9071381958
0.9346173488
0.9575727058
0.9767470426
0.9927988721
1.00625541
1.017583874
1.027161562
1.035294313
1.042226267
1.048164927
1.053269778
1.057677696
1.06149685
1.064817357
1.067712855
1.070244847
1.072464501
1.07441452
1.076131337
1.077645461
1.078983119
1.08016656
1.081215055
1.082145053
1.082970867
1.083704838
1.084357739
1.084938922
1.085456585
1.085917886
1.08632912
1.086695838
1.087023017
1.087315213
1.087576513
1.087810194
1.088018904
1.088205082
1.088370857
1.088518175
1.088648822
1.088764549
1.088867146
1.088958348
1.089039615
1.089112128
1.089176865
1.089234657
1.08928623
1.089332218
1.089370142
1.089371157
1.089372083
1.089372926
1.089373696
1.089374401
1.089375046
1.08937564
1.089376189
1.089376698
1.089377173
1.089377617
1.089378034
1.089378428
1.089378801
1.089379155
1.08937949
1.089379808
1.089380108
1.08938039
1.089380654
1.089380902
1.089381133
1.089381349
1.089381552
1.089381743
1.089381924
1.089382099
1.089382269
1.089382438
1.089382607
1.089382777
1.089382951
1.089383129
1.08938331
1.089383495
1.089383683
1.089383872
1.089384062
1.089384251
1.089384437
1.089384619
1.089384797
1.089384969
1.089385137
1.089385299
1.089385457
1.089385611
1.089385761
1.08938591
1.089386057
1.089386204
1.089386351
1.089386499
1.089386647
1.089386797
1.089386947
1.089387098
1.089387249
1.089387401
1.089387551
1.089387702
1.089387851
1.089387999
1.089388146
1.089388292
1.089388438
1.089388583
1.089388728
1.089388873
1.08938902
1.089389168
1.089389318
1.08938947
1.089389625
1.089389784
1.089389944
1.089390108
1.089390274
1.089390442
1.08939061
1.089390779
1.089390948
1.089391115
1.08939128
1.089391442
1.089391602
1.089391758
1.089391911
1.089392061
1.089392209
1.089392354
1.089392497
1.08939264
1.089392783
1.089392926
1.08939307
1.089393217
1.089393365
1.089393515
1.089393668
1.089393822
1.089393979
1.089394136
1.089394294
1.089394452
1.08939461
1.089394767
1.089394923
1.089395077
1.08939523
1.08939538
1.08939553
1.089395677
1.089395823
1.089395968
1.089396112
1.089396255
1.089396397
1.089396539
1.089396681
1.089396823
1.089396964
1.089397105
1.089397246
1.089397387
1.089397527
1.089397666
1.089397805
1.089397943
1.089398081
1.089398219
1.089398356
1.089398493
1.08939863
1.089398767
1.089398905
1.089399042
1.08939918
1.089399318
1.089399456
1.089399594
1.089399732
1.089399869
1.089400006
1.089400142
1.089400277
1.089400411
1.089400544
1.089400676
1.089400806
1.089400935
1.089401064
1.089401191
1.089401317
1.089401442
1.089401566
1.08940169
1.089401812
1.089401934
1.089402055
1.089402176
1.089402295
1.089402413
1.089402531
1.089402647
1.089402763
1.089402878
1.089402991
1.089403104
1.089403217
1.089403329
1.089403441
1.089403552
1.089403664
1.089403776
1.089403889
1.089404002
1.089404115
1.089404229
1.089404343
1.089404457
1.089404571
1.089404685
1.089404799
1.089404912
1.089405023
1.089405134
1.089405243
1.089405351
1.089405457
1.089405561
1.089405664
1.089405765
1.089405865
1.089405963
1.08940606
1.089406157
1.089406253
1.089406349
1.089406444
1.08940654
1.089406636
1.089406732
1.089406829
1.089406927
1.089407026
1.089407125
1.089407226
1.089407327
1.089407429
1.089407531
1.089407635
1.089407738
1.089407843
1.089407948
1.089408053
1.089408158
1.089408264
1.08940837
1.089408477
1.089408585
1.089408693
1.089408802
1.089408912
1.089409023
1.089409136
1.089409251
1.089409369
1.089409488
1.08940961
1.089409735
1.089409864
1.089409995
1.08941013
1.089410268
1.08941041
1.089410555
1.089410704
1.089410856
1.089411012
1.089411172
1.089411335
1.089411501
1.089411672
1.089411846
1.089412024
1.089412207
1.089412394
1.089412586
1.089412783
1.089412986
1.089413196
1.089413412
1.089413635
1.089413866
1.089414105
1.089414354
1.089414611
1.089414879
1.089415157
1.089415446
1.089415746
1.089416059
1.089416384
1.089416723
1.089417075
1.089417443
1.089417825
1.089418224
1.089418639
1.089419073
1.089419525
1.089419998
1.089420492
1.089421008
1.089421548
1.089422113
1.089422705
1.089423325
1.089423975
1.089424657
1.089425372
1.089426124
1.089426913
1.089427742