/*--------------------------------*- C++ -*----------------------------------*\
| =========                 |                                                 |
| \\      /  F ield         | OpenFOAM: The Open Source CFD Toolbox           |
|  \\    /   O peration     | Version:  v2006                                 |
|   \\  /    A nd           | Website:  www.openfoam.com                      |
|    \\/     M anipulation  |                                                 |
\*---------------------------------------------------------------------------*/
FoamFile
{
    version     2.0;
    format      ascii;
    class       volScalarField;
    location    "0.075";
    object      rho_0;
}
// * * * * * * * * * * * * * * * * * * * * * * * * * * * * * * * * * * * * * //

dimensions      [1 -3 0 0 0 0 0];


internalField   nonuniform List<scalar> 
72000
(
0.8721220122
0.8721220206
0.8721189321
0.8720978118
0.8720633537
0.8720095713
0.8719774356
0.8722284133
0.8720139145
0.8717408908
0.8716785038
0.8716564712
0.8715979185
0.8715230137
0.8714379728
0.8713700633
0.8712907084
0.8712013006
0.8711270719
0.8710401747
0.8709642625
0.8708787965
0.8708047928
0.8707185657
0.8706419591
0.8705640466
0.8704964065
0.8704499127
0.8704187173
0.8703780033
0.8701732399
0.870170423
0.8701289769
0.8701043671
0.8700968658
0.870072272
0.8700198169
0.8698244278
0.8689604955
0.8688188792
0.8687221595
0.868571571
0.8684014855
0.8682264045
0.8681019556
0.8679564871
0.8677839101
0.8676689751
0.8675080044
0.8673991419
0.8672512598
0.8671410619
0.8669955833
0.8668914877
0.8667608437
0.8665961528
0.8664778618
0.8663201044
0.8662042538
0.8660605601
0.8658866265
0.8657551997
0.8655809474
0.8654461531
0.8652754209
0.8651494406
0.8649905367
0.8647971513
0.8646437713
0.8644492086
0.8642940342
0.8641076251
0.8639560877
0.8637752943
0.8635575753
0.8633882268
0.8631755868
0.8630084694
0.8628097223
0.8625709792
0.8623817124
0.8621651719
0.8619138861
0.8617083747
0.8614568726
0.8612549675
0.8610081046
0.8607288924
0.8604950067
0.8602149002
0.8599703007
0.8596779554
0.8594263142
0.8591310533
0.8588611716
0.858545942
0.8582727089
0.8579459257
0.8576575585
0.8573235824
0.8570181911
0.8566665516
0.8563543888
0.8559975155
0.8556840918
0.8553282808
0.8549395974
0.8545931804
0.854210961
0.8537930274
0.8534215525
0.8530113021
0.852566287
0.8521614331
0.8517068786
0.8512910009
0.8508215482
0.8503903692
0.8499033736
0.8494539115
0.8489543828
0.8484896943
0.8479775921
0.8474248838
0.8469046348
0.84633018
0.8457843658
0.8451727036
0.8445675387
0.843972224
0.8433721026
0.8427648806
0.842144404
0.8415119757
0.8408815871
0.8401753241
0.8394098204
0.8385963734
0.8377330351
0.8368047972
0.835768969
0.8344932672
0.8325119417
0.8318613494
0.8310683416
0.8302737579
0.8293784764
0.8284640424
0.8272501133
0.8258121742
0.8241081489
0.8227597592
0.8219970366
0.8212038268
0.8202253247
0.8189474149
0.8179538993
0.8168711987
0.8157842619
0.8146192055
0.8134440669
0.8121827596
0.8108905588
0.8094807121
0.8083914247
0.8077942764
0.8066417496
0.8052463111
0.8037020619
0.8020814111
0.8004003092
0.7986602363
0.7968562211
0.7949723075
0.7929586453
0.7908085588
0.7885525392
0.7863433725
0.7843500534
0.7826838614
0.7805353098
0.7779881176
0.7759139509
0.7732608706
0.7709116886
0.7687681682
0.7661962476
0.7632924627
0.7600160654
0.756861711
0.7537001489
0.7506114541
0.7470787424
0.7434221657
0.7394864682
0.7356896074
0.7317631518
0.7273364327
0.722898668
0.7183312427
0.713722873
0.708792741
0.7036006659
0.6984626895
0.6929743034
0.6871267528
0.681137983
0.6750828708
0.6689269303
0.66285324
0.6568865841
0.6510832294
0.6456308834
0.6408159331
0.6367803902
0.6337031775
0.6316508237
0.6313095525
0.6323891828
0.6219232217
0.567316827
0.6785137033
0.7142220434
0.7813008056
0.8240072186
0.8648318699
0.9030038611
0.9378719215
0.9685026619
0.9932127928
1.013404771
1.027875683
1.037527742
1.045186864
1.051776146
1.056924175
1.061336477
1.065204034
1.068629025
1.071664125
1.074107361
1.076167975
1.078022094
1.079616487
1.080962962
1.082098187
1.083058177
1.083873806
1.08457018
1.085167648
1.085682604
1.086128309
1.086515518
1.086853089
1.087148325
1.087407214
1.087634778
1.087835241
1.08801218
1.088168633
1.088307192
1.08843008
1.088539214
1.088636254
1.088722643
1.08879965
1.08886841
1.088930064
1.088985201
1.089033974
1.089076111
1.089114045
1.089148141
1.089178738
1.089206104
1.089230454
1.089251808
1.089269509
1.089283684
1.089295673
1.089306145
1.08931541
1.089323657
1.089331013
1.089337579
1.089343441
1.089348673
1.089353344
1.08935752
1.089361264
1.089361578
1.08936177
1.089361955
1.089362134
1.08936231
1.089362484
1.089362657
1.089362831
1.089363003
1.089363176
1.089363347
1.089363515
1.089363679
1.089363837
1.089363988
1.089364131
1.089364266
1.089364392
1.089364511
1.089364624
1.089364731
1.089364836
1.08936494
1.089365046
1.089365155
1.089365269
1.089365389
1.089365516
1.089365649
1.08936579
1.089365935
1.089366084
1.089366236
1.089366389
1.089366541
1.089366691
1.089366838
1.089366981
1.089367119
1.089367253
1.089367382
1.089367509
1.089367632
1.089367754
1.089367874
1.089367995
1.089368115
1.089368237
1.089368359
1.089368483
1.089368608
1.089368733
1.089368858
1.089368984
1.089369108
1.089369232
1.089369355
1.089369476
1.089369596
1.089369714
1.089369832
1.089369949
1.089370066
1.089370183
1.089370301
1.089370421
1.089370543
1.089370667
1.089370795
1.089370926
1.089371059
1.089371196
1.089371336
1.089371477
1.089371621
1.089371764
1.089371908
1.089372051
1.089372191
1.08937233
1.089372465
1.089372597
1.089372725
1.089372851
1.089372973
1.089373093
1.089373211
1.089373328
1.089373444
1.089373561
1.08937368
1.0893738
1.089373922
1.089374047
1.089374174
1.089374303
1.089374435
1.089374568
1.089374702
1.089374837
1.089374972
1.089375106
1.089375239
1.08937537
1.0893755
1.089375628
1.089375754
1.089375878
1.089376001
1.089376122
1.089376242
1.089376361
1.08937648
1.089376598
1.089376716
1.089376834
1.089376952
1.089377069
1.089377187
1.089377304
1.089377422
1.089377539
1.089377656
1.089377773
1.08937789
1.089378006
1.089378123
1.089378239
1.089378356
1.089378473
1.08937859
1.089378707
1.089378825
1.089378942
1.08937906
1.089379178
1.089379296
1.089379413
1.08937953
1.089379646
1.089379761
1.089379876
1.089379989
1.089380102
1.089380213
1.089380324
1.089380433
1.089380542
1.08938065
1.089380758
1.089380864
1.089380971
1.089381077
1.089381182
1.089381286
1.08938139
1.089381494
1.089381596
1.089381698
1.089381799
1.089381899
1.089381998
1.089382096
1.089382193
1.08938229
1.089382386
1.089382481
1.089382577
1.089382672
1.089382768
1.089382864
1.08938296
1.089383057
1.089383155
1.089383252
1.08938335
1.089383448
1.089383546
1.089383644
1.089383741
1.089383838
1.089383933
1.089384027
1.08938412
1.089384211
1.089384301
1.089384389
1.089384475
1.08938456
1.089384643
1.089384725
1.089384806
1.089384885
1.089384964
1.089385042
1.08938512
1.089385197
1.089385274
1.089385351
1.089385429
1.089385507
1.089385585
1.089385663
1.089385742
1.089385822
1.089385902
1.089385983
1.089386063
1.089386145
1.089386226
1.089386308
1.089386389
1.089386471
1.089386553
1.089386634
1.089386716
1.089386797
1.089386879
1.08938696
1.089387042
1.089387124
1.089387206
1.089387289
1.089387373
1.089387457
1.089387543
1.08938763
1.089387718
1.089387808
1.0893879
1.089387993
1.089388088
1.089388185
1.089388284
1.089388384
1.089388486
1.08938859
1.089388695
1.089388803
1.089388912
1.089389023
1.089389136
1.089389251
1.089389368
1.089389488
1.08938961
1.089389735
1.089389864
1.089389995
1.08939013
1.089390269
1.089390412
1.08939056
1.089390712
1.089390869
1.089391031
1.089391198
1.089391372
1.089391551
1.089391737
1.08939193
1.08939213
1.089392338
1.089392554
1.089392779
1.089393014
1.089393258
1.089393513
1.08939378
1.089394058
1.08939435
1.089394655
1.089394975
1.08939531
1.089395661
1.08939603
1.089396417
1.089396824
1.089397252
1.089397702
1.089398175
1.089398675
1.089399201
1.089399757
1.089400345
1.089400968
1.089401629
1.089402331
1.089403078
1.089403876
1.089404728
1.089405643
1.089406625
1.089407685
1.089408832
1.089410077
1.089411436
1.089412926
1.089414569
1.089416394
1.089418436
1.089420742
1.089423379
1.089426434
1.089430039
1.089434393
1.089439816
1.089446876
1.089435891
1.089415004
0.7259222414
0.7259471236
0.7259848326
0.7260146793
0.7260274687
0.726022444
0.7260258383
0.7260201717
0.7259215829
0.7257213956
0.7255612663
0.7254653248
0.7253739739
0.7252751398
0.7251675318
0.7250621591
0.7249463968
0.7248206029
0.7246961506
0.7245638257
0.724432529
0.7242930396
0.7241541456
0.7240053202
0.7238542706
0.7236953639
0.7235300534
0.7233501414
0.7231259225
0.7228264298
0.722461546
0.7222108622
0.7219841843
0.7217641809
0.7215185549
0.7212140145
0.7208356408
0.7203671853
0.7198184372
0.7194490296
0.7191583452
0.7188896838
0.7186270611
0.718369624
0.718146182
0.717916779
0.7176783693
0.7174613778
0.7172356012
0.7170275337
0.7168070377
0.7166029808
0.7163863556
0.7161858833
0.7159668007
0.715730034
0.715509433
0.7152766223
0.7150596929
0.714823673
0.7145682464
0.7143281664
0.7140736145
0.7138325155
0.7135769198
0.7133354333
0.7130723202
0.7127893047
0.7125202652
0.7122355949
0.7119638809
0.711676465
0.7114026409
0.7111069304
0.7107905356
0.7104883843
0.7101719894
0.709869643
0.7095457257
0.7092020044
0.7088733478
0.708524229
0.7081542071
0.7077976626
0.7074251869
0.7070644045
0.7066804076
0.7062726206
0.7058750607
0.7054573301
0.7050476537
0.7046164812
0.704191539
0.7037431403
0.7033006165
0.7028343311
0.7023735896
0.7018886748
0.7014086059
0.7009041766
0.700404526
0.6998821939
0.6993679027
0.6988309702
0.6983014203
0.6977455264
0.6971646046
0.6965933305
0.6959980075
0.6953785027
0.6947688724
0.6941333524
0.6934710361
0.6928161088
0.6921372489
0.6914619366
0.6907608036
0.690061163
0.6893343239
0.6886080345
0.6878537472
0.6870999754
0.6863121062
0.6854897323
0.6846648837
0.6838066873
0.682940657
0.6820352916
0.6811208314
0.6801988879
0.6792658879
0.6783180798
0.6773533713
0.6763685037
0.6753570833
0.674305999
0.6732119455
0.6720752576
0.670893474
0.6696603614
0.6683643113
0.666990051
0.6655527174
0.6642625006
0.6629772108
0.6616873945
0.6603345632
0.6589347806
0.6574502541
0.6558685879
0.6541726669
0.6523576167
0.6506678195
0.6489910337
0.6472061053
0.6455478348
0.6440503073
0.6425113252
0.6409473795
0.6393422731
0.6377101893
0.6360324379
0.6343338783
0.6326118094
0.6309190362
0.6292429206
0.6274706833
0.6256036862
0.6236577769
0.6216460055
0.6195738828
0.6174417668
0.6152465358
0.6129826469
0.6106691975
0.6083022851
0.6058686179
0.6033797264
0.6008045515
0.5981199378
0.5952987699
0.5923456622
0.5894816407
0.586511292
0.5834909057
0.58039785
0.5771995455
0.5738820856
0.5704361026
0.5668907502
0.5632441973
0.5594721108
0.5555309279
0.5514021729
0.5472845015
0.5430840365
0.538731557
0.5342020963
0.5295046328
0.5246302324
0.5196860893
0.5145569521
0.5092315585
0.5037215224
0.4980913871
0.4918847463
0.4855270395
0.4790754977
0.4724936112
0.4658001781
0.4590808511
0.4523550715
0.4457004595
0.4392359304
0.4330897133
0.4273195873
0.4220798464
0.4168937234
0.4122449131
0.4145647834
0.4378180443
0.5006060624
0.552394393
0.5947936187
0.636622909
0.6874420765
0.733733255
0.7838285238
0.8306273052
0.8731470949
0.907311988
0.9352582776
0.9594001432
0.9804068856
0.9975517357
1.011762749
1.023457725
1.033145793
1.041277919
1.048124385
1.053937443
1.058856363
1.063016099
1.066537529
1.069524983
1.07206975
1.074246748
1.07611775
1.077732483
1.079131528
1.080347951
1.081408981
1.082337092
1.083150969
1.083866352
1.084496539
1.085052693
1.085544355
1.085979638
1.086365528
1.086708055
1.087012428
1.087283173
1.087524228
1.087739029
1.087930585
1.088101504
1.088254048
1.088389825
1.088510174
1.088617025
1.088713361
1.088799864
1.088877423
1.088946751
1.089008502
1.08906298
1.089110368
1.089151147
1.089186583
1.089217789
1.089245471
1.08927012
1.089292096
1.089311695
1.08932917
1.089344739
1.08935861
1.089363
1.089363408
1.089363786
1.089364136
1.089364464
1.089364772
1.089365065
1.089365344
1.089365613
1.089365872
1.089366123
1.089366366
1.089366601
1.089366828
1.089367045
1.089367251
1.089367447
1.08936763
1.089367802
1.089367962
1.089368113
1.089368254
1.089368388
1.089368517
1.089368644
1.089368771
1.089368899
1.089369031
1.089369169
1.089369311
1.08936946
1.089369614
1.089369772
1.089369934
1.089370098
1.089370262
1.089370425
1.089370585
1.089370742
1.089370894
1.089371042
1.089371185
1.089371324
1.089371458
1.08937159
1.08937172
1.089371849
1.089371978
1.089372106
1.089372236
1.089372366
1.089372497
1.089372629
1.089372762
1.089372894
1.089373027
1.089373159
1.08937329
1.089373419
1.089373548
1.089373674
1.0893738
1.089373925
1.089374049
1.089374172
1.089374297
1.089374422
1.089374548
1.089374677
1.089374808
1.089374943
1.08937508
1.08937522
1.089375364
1.08937551
1.089375658
1.089375807
1.089375958
1.089376108
1.089376257
1.089376404
1.089376548
1.08937669
1.089376828
1.089376963
1.089377095
1.089377224
1.08937735
1.089377475
1.089377598
1.089377721
1.089377845
1.08937797
1.089378096
1.089378225
1.089378356
1.08937849
1.089378626
1.089378764
1.089378903
1.089379044
1.089379185
1.089379325
1.089379465
1.089379604
1.089379742
1.089379878
1.089380011
1.089380143
1.089380274
1.089380402
1.089380529
1.089380655
1.08938078
1.089380904
1.089381028
1.089381152
1.089381276
1.089381399
1.089381523
1.089381646
1.089381769
1.089381892
1.089382015
1.089382138
1.08938226
1.089382382
1.089382504
1.089382626
1.089382748
1.08938287
1.089382992
1.089383114
1.089383237
1.08938336
1.089383483
1.089383605
1.089383728
1.089383851
1.089383973
1.089384095
1.089384216
1.089384337
1.089384456
1.089384575
1.089384692
1.089384808
1.089384924
1.089385038
1.089385152
1.089385265
1.089385377
1.089385489
1.0893856
1.089385711
1.089385821
1.08938593
1.089386039
1.089386147
1.089386254
1.089386361
1.089386466
1.089386571
1.089386675
1.089386777
1.089386879
1.089386981
1.089387081
1.089387182
1.089387282
1.089387382
1.089387483
1.089387583
1.089387684
1.089387786
1.089387888
1.08938799
1.089388093
1.089388196
1.089388298
1.089388401
1.089388503
1.089388604
1.089388704
1.089388804
1.089388901
1.089388998
1.089389092
1.089389186
1.089389277
1.089389367
1.089389456
1.089389543
1.089389629
1.089389715
1.089389799
1.089389883
1.089389966
1.08939005
1.089390133
1.089390217
1.0893903
1.089390385
1.089390469
1.089390555
1.089390641
1.089390727
1.089390814
1.089390902
1.08939099
1.089391079
1.089391169
1.089391258
1.089391348
1.089391438
1.089391528
1.089391619
1.089391709
1.0893918
1.089391891
1.089391983
1.089392074
1.089392167
1.08939226
1.089392354
1.089392449
1.089392546
1.089392643
1.089392743
1.089392845
1.089392948
1.089393053
1.089393161
1.089393271
1.089393383
1.089393497
1.089393614
1.089393733
1.089393854
1.089393978
1.089394104
1.089394233
1.089394364
1.089394498
1.089394635
1.089394775
1.089394919
1.089395065
1.089395216
1.089395371
1.08939553
1.089395693
1.089395862
1.089396036
1.089396215
1.089396401
1.089396593
1.089396791
1.089396997
1.08939721
1.08939743
1.08939766
1.089397897
1.089398144
1.089398401
1.089398669
1.089398947
1.089399238
1.089399541
1.089399857
1.089400188
1.089400534
1.089400896
1.089401275
1.089401672
1.089402089
1.089402525
1.089402984
1.089403466
1.089403972
1.089404504
1.089405063
1.089405653
1.089406274
1.08940693
1.089407622
1.089408354
1.089409129
1.089409951
1.089410824
1.089411753
1.089412744
1.089413801
1.089414933
1.089416149
1.089417456
1.089418867
1.089420395
1.089422056
1.089423868
1.089425855
1.089428045
1.089430475
1.089433189
1.089436247
1.089439727
1.089443733
1.089448412
1.089453899
1.089460583
1.089469009
1.089479457
0.6327894297
0.6328031274
0.6328217442
0.6328346284
0.6328348625
0.6328201657
0.6327931685
0.6327468666
0.6326572105
0.6325249588
0.632391231
0.6322703752
0.6321517768
0.6320295389
0.6319020566
0.6317710791
0.6316334725
0.6314892081
0.6313411916
0.6311879423
0.6310312338
0.6308689623
0.630702485
0.63052908
0.6303494572
0.6301610547
0.6299622222
0.6297473184
0.62950644
0.6292346014
0.6289456238
0.6286786733
0.6284211642
0.6281614545
0.6278840904
0.6275754684
0.627229971
0.6268508221
0.62646154
0.6261219326
0.6258211775
0.6255408655
0.6252714315
0.6250110532
0.624765316
0.6245219414
0.6242785006
0.6240412215
0.6238041124
0.6235718159
0.623337729
0.6231070609
0.6228734586
0.6226410913
0.6224013019
0.6221541924
0.6219081698
0.6216583196
0.6214089124
0.621151237
0.6208852301
0.6206193543
0.6203486286
0.6200784824
0.6198028771
0.61952629
0.6192397993
0.6189439135
0.6186468982
0.6183438944
0.6180405945
0.6177311224
0.6174199411
0.6170982687
0.6167663953
0.6164329763
0.6160932486
0.6157515972
0.6153992241
0.6150363247
0.6146701901
0.6142931412
0.6139053685
0.6135148728
0.6131166021
0.6127146641
0.6123000416
0.6118726367
0.6114471568
0.6110123013
0.6105728904
0.6101227103
0.6096668297
0.6091989265
0.6087243807
0.6082375638
0.6077439962
0.6072378679
0.6067244906
0.6061981107
0.6056641984
0.6051163566
0.6045604082
0.6039914479
0.6034146529
0.6028214412
0.6022126434
0.6015958065
0.6009635805
0.6003160102
0.5996600284
0.5989876657
0.5982988019
0.5976012807
0.5968897196
0.5961689744
0.595432713
0.594685562
0.5939213987
0.5931451916
0.5923506688
0.5915417448
0.5907096827
0.5898539671
0.5889816366
0.588087099
0.5871745504
0.5862384662
0.585286278
0.5843197757
0.5833382001
0.5823395825
0.5813223384
0.5802839668
0.5792214961
0.5781289557
0.5770036708
0.5758446556
0.5746607311
0.5734470695
0.5721951156
0.5709060691
0.5695935201
0.5682928521
0.5669818122
0.5656495409
0.5642776509
0.5628644655
0.5614028733
0.5598858269
0.5583123575
0.5566947554
0.5550701927
0.5534186783
0.5517187005
0.5499679184
0.5481877896
0.5463758158
0.5445342532
0.5429014995
0.5412656419
0.5395975965
0.5379030407
0.5361830045
0.5344441108
0.5326780751
0.5308610443
0.5289875786
0.5270581595
0.5250749674
0.5230388637
0.5209490028
0.5188030449
0.5165980642
0.5143512049
0.5120423942
0.5096725329
0.5072403173
0.5047354111
0.5021448712
0.4994530035
0.4966494531
0.4937194753
0.4907204959
0.4877743571
0.4847513556
0.4816345378
0.47841634
0.4750947539
0.4716771995
0.4681789762
0.4645616937
0.4608094345
0.4569101475
0.4529787893
0.4490078153
0.4449046288
0.440657334
0.4362653221
0.4317646874
0.4271802285
0.4224437445
0.4175967838
0.412603679
0.4075111629
0.4020139248
0.3963203367
0.3905301873
0.3846450142
0.3787114517
0.372718943
0.3667597835
0.360840663
0.3550712829
0.3494827853
0.3441576456
0.3391707808
0.3351865702
0.334822136
0.3430638738
0.3659116574
0.4063699682
0.4401023307
0.4755341886
0.514547636
0.5612344092
0.6114257839
0.6625666279
0.7047636343
0.7556575505
0.801442061
0.8449571794
0.8831772957
0.9158119289
0.9431408878
0.9658962549
0.9848658741
1.000585147
1.013610241
1.024451887
1.033518736
1.04113787
1.047571018
1.05302813
1.057677327
1.061657869
1.065079956
1.068034985
1.070596174
1.072823867
1.074767392
1.076467831
1.077959315
1.079270452
1.080425393
1.081444546
1.082345404
1.08314287
1.083849787
1.084477178
1.085034599
1.085530313
1.085971529
1.086364523
1.086714782
1.087027088
1.087305605
1.08755393
1.087775189
1.087972407
1.088148865
1.088307258
1.088449089
1.0885759
1.088688962
1.088789411
1.088878184
1.088956201
1.089024641
1.08908499
1.089138526
1.089186183
1.089228681
1.089266595
1.089300414
1.089330562
1.089357416
1.089366104
1.089366773
1.089367385
1.089367946
1.089368463
1.089368941
1.089369384
1.089369799
1.089370189
1.089370558
1.089370908
1.089371241
1.089371559
1.089371862
1.08937215
1.089372423
1.089372681
1.089372923
1.08937315
1.089373361
1.089373558
1.089373741
1.089373913
1.089374076
1.089374232
1.089374384
1.089374534
1.089374684
1.089374836
1.089374992
1.089375152
1.089375317
1.089375487
1.08937566
1.089375836
1.089376013
1.08937619
1.089376365
1.089376537
1.089376705
1.089376869
1.089377028
1.089377181
1.089377331
1.089377476
1.089377618
1.089377759
1.089377897
1.089378036
1.089378174
1.089378313
1.089378453
1.089378594
1.089378735
1.089378877
1.089379019
1.08937916
1.089379302
1.089379442
1.08937958
1.089379718
1.089379854
1.089379989
1.089380123
1.089380256
1.089380389
1.089380522
1.089380656
1.089380792
1.089380929
1.08938107
1.089381213
1.089381359
1.089381508
1.08938166
1.089381815
1.089381971
1.089382129
1.089382288
1.089382447
1.089382604
1.08938276
1.089382913
1.089383063
1.08938321
1.089383354
1.089383494
1.089383631
1.089383767
1.0893839
1.089384032
1.089384165
1.089384298
1.089384432
1.089384567
1.089384705
1.089384846
1.089384988
1.089385133
1.08938528
1.089385428
1.089385577
1.089385727
1.089385876
1.089386025
1.089386172
1.089386318
1.089386462
1.089386604
1.089386744
1.089386882
1.089387019
1.089387154
1.089387288
1.089387421
1.089387554
1.089387686
1.089387818
1.08938795
1.089388081
1.089388213
1.089388345
1.089388476
1.089388607
1.089388738
1.089388868
1.089388999
1.089389129
1.089389258
1.089389388
1.089389518
1.089389647
1.089389777
1.089389906
1.089390036
1.089390166
1.089390296
1.089390426
1.089390557
1.089390686
1.089390816
1.089390945
1.089391073
1.0893912
1.089391326
1.089391452
1.089391576
1.089391699
1.089391821
1.089391943
1.089392063
1.089392183
1.089392301
1.08939242
1.089392537
1.089392655
1.089392771
1.089392887
1.089393002
1.089393117
1.089393231
1.089393343
1.089393455
1.089393566
1.089393676
1.089393785
1.089393893
1.089394001
1.089394108
1.089394214
1.08939432
1.089394426
1.089394533
1.089394639
1.089394746
1.089394853
1.089394961
1.089395069
1.089395177
1.089395286
1.089395394
1.089395502
1.08939561
1.089395717
1.089395823
1.089395928
1.089396031
1.089396134
1.089396234
1.089396333
1.089396431
1.089396527
1.089396621
1.089396715
1.089396807
1.089396898
1.089396989
1.089397079
1.089397169
1.089397259
1.089397349
1.089397439
1.089397529
1.08939762
1.089397712
1.089397804
1.089397897
1.089397991
1.089398086
1.089398181
1.089398277
1.089398374
1.089398471
1.089398569
1.089398667
1.089398765
1.089398864
1.089398964
1.089399064
1.089399164
1.089399264
1.089399366
1.089399468
1.08939957
1.089399674
1.089399779
1.089399886
1.089399994
1.089400104
1.089400216
1.089400331
1.089400448
1.089400567
1.089400689
1.089400814
1.089400941
1.089401071
1.089401205
1.089401341
1.08940148
1.089401622
1.089401767
1.089401916
1.089402068
1.089402223
1.089402382
1.089402545
1.089402713
1.089402884
1.089403061
1.089403242
1.08940343
1.089403622
1.089403822
1.089404027
1.08940424
1.08940446
1.089404688
1.089404924
1.089405168
1.089405422
1.089405686
1.089405959
1.089406243
1.089406539
1.089406846
1.089407167
1.089407501
1.089407849
1.089408212
1.089408591
1.089408988
1.089409403
1.089409837
1.089410291
1.089410767
1.089411266
1.089411789
1.089412338
1.089412914
1.08941352
1.089414156
1.089414824
1.089415528
1.089416269
1.089417049
1.089417873
1.089418742
1.089419661
1.089420634
1.089421665
1.089422758
1.089423921
1.089425158
1.089426477
1.089427886
1.089429394
1.089431012
1.089432752
1.089434627
1.089436653
1.089438849
1.089440961
1.08944323
1.089445755
1.089448584
1.089451778
1.089455412
1.089459577
1.089464373
1.089469881
1.089476081
1.08948262
0.5678685583
0.5678722366
0.5678745837
0.5678696806
0.5678530731
0.5678222614
0.5677760314
0.5677113988
0.5676229421
0.5675125377
0.5673919504
0.5672682281
0.5671411719
0.5670096499
0.5668732308
0.5667321717
0.5665857368
0.5664339859
0.5662777633
0.5661170226
0.5659521006
0.5657823932
0.5656078463
0.5654274838
0.5652408221
0.5650465156
0.5648432158
0.5646287087
0.5644000564
0.5641574277
0.5639069763
0.5636582932
0.5634097502
0.5631566971
0.5628930891
0.5626146511
0.5623225812
0.5620196171
0.5617167404
0.5614295933
0.5611586616
0.5608990638
0.5606469069
0.5604005443
0.5603513774
0.5602779837
0.560180278
0.5600634023
0.5599294509
0.5597816949
0.5596208299
0.5594492871
0.5592670295
0.5590754926
0.5588735374
0.5586620277
0.5584436426
0.5582181971
0.5579866165
0.5577472011
0.5575003279
0.5572483018
0.5569907534
0.5567288403
0.5564613789
0.5561887931
0.5559089671
0.5556221456
0.5553304445
0.5550334028
0.5547321389
0.5544254377
0.5541136558
0.5537946054
0.5534683128
0.5531367732
0.5527992345
0.552456102
0.5521051099
0.5517460504
0.5513802727
0.551006107
0.5506236094
0.5502346
0.5498381306
0.549434443
0.5490212126
0.5485982762
0.5481676524
0.5477281793
0.5472804844
0.5468230526
0.5463564118
0.5458796304
0.5453937728
0.5448968104
0.5443895454
0.5438707824
0.5433412625
0.5427997539
0.5422469798
0.5416815122
0.5411042385
0.5405141115
0.5399113821
0.5392944619
0.538663717
0.5380207326
0.5373639999
0.5366934211
0.5360102045
0.5353125106
0.5346002393
0.5338752887
0.5331368672
0.5323852036
0.53161836
0.5308365102
0.5300379599
0.5292230514
0.5283900311
0.5275388038
0.5266669587
0.5257742205
0.5248623241
0.5239306826
0.5229804225
0.5220112555
0.5210257513
0.5200255098
0.5190113697
0.5179852681
0.5169802702
0.5159554474
0.5149134056
0.5138461148
0.5127521381
0.5116305452
0.5105414822
0.5094430308
0.5083264069
0.5071805169
0.5059873632
0.5047264647
0.5033944076
0.5019963474
0.5005365712
0.49902966
0.4976175997
0.4961663291
0.4946769342
0.493154717
0.4916072293
0.490033279
0.4884371022
0.486807836
0.4851492157
0.4834606768
0.4817428193
0.4799946476
0.4782196639
0.4764198512
0.4747209902
0.473053523
0.4713577543
0.4696295643
0.4678613019
0.4660643908
0.4642226347
0.4623351122
0.4604012297
0.4584198181
0.4563889155
0.4543059224
0.452167646
0.4499743241
0.4477372317
0.4454520243
0.4431019718
0.4406795949
0.4381760652
0.4355830416
0.4328920081
0.430104931
0.4272107563
0.4243545167
0.4214341238
0.4184292367
0.4153384753
0.4121802979
0.4089225522
0.4055582556
0.4020776848
0.3984943081
0.394843566
0.3911628707
0.3873734727
0.3834789848
0.3794494462
0.3753242646
0.3711465878
0.3668440161
0.3624428054
0.3579319533
0.3533702434
0.3486171925
0.3435643452
0.3384188742
0.3332126746
0.327961444
0.3227002692
0.3174543673
0.3122957274
0.3072298082
0.3023789955
0.2977790495
0.2936863211
0.2911060189
0.291814746
0.2985717453
0.3143412005
0.3360617469
0.3577280276
0.3848321913
0.4177175395
0.4576610521
0.502262239
0.5522529218
0.603278094
0.6491196562
0.6910852354
0.7420091134
0.7920269316
0.8363318914
0.8746127193
0.907138248
0.9346174061
0.9575727681
0.9767471084
0.9927989389
1.006255475
1.017583934
1.027161614
1.035294355
1.042226298
1.048164946
1.053269786
1.057677694
1.06149684
1.064817338
1.067712829
1.070244817
1.072464466
1.07441448
1.076131295
1.077645416
1.078983074
1.080166515
1.081215013
1.082145016
1.082970836
1.083704817
1.084357727
1.08493892
1.085456593
1.085917903
1.086329143
1.086695865
1.087023047
1.087315241
1.087576538
1.087810214
1.088018919
1.088205091
1.08837086
1.088518175
1.088648818
1.088764543
1.08886714
1.088958342
1.089039611
1.089112125
1.089176863
1.089234656
1.089286229
1.089332216
1.089370137
1.08937115
1.089372072
1.089372912
1.089373679
1.089374382
1.089375028
1.089375625
1.089376178
1.089376693
1.089377174
1.089377626
1.089378052
1.089378453
1.089378832
1.089379188
1.089379524
1.089379839
1.089380134
1.089380408
1.089380663
1.089380901
1.089381122
1.089381329
1.089381524
1.08938171
1.089381889
1.089382064
1.089382239
1.089382413
1.08938259
1.08938277
1.089382953
1.08938314
1.089383329
1.08938352
1.089383712
1.089383902
1.089384091
1.089384276
1.089384457
1.089384634
1.089384805
1.08938497
1.089385132
1.089385289
1.089385443
1.089385595
1.089385745
1.089385895
1.089386044
1.089386194
1.089386345
1.089386496
1.089386648
1.089386801
1.089386953
1.089387105
1.089387257
1.089387408
1.089387557
1.089387705
1.089387852
1.089387997
1.089388142
1.089388285
1.089388429
1.089388573
1.089388718
1.089388864
1.089389012
1.089389162
1.089389316
1.089389472
1.089389632
1.089389794
1.089389958
1.089390125
1.089390293
1.089390462
1.08939063
1.089390797
1.089390963
1.089391126
1.089391286
1.089391443
1.089391597
1.089391748
1.089391896
1.089392041
1.089392185
1.089392329
1.089392472
1.089392616
1.089392761
1.089392907
1.089393056
1.089393208
1.089393361
1.089393517
1.089393674
1.089393833
1.089393993
1.089394153
1.089394312
1.089394471
1.089394628
1.089394784
1.089394938
1.08939509
1.08939524
1.089395388
1.089395534
1.089395679
1.089395823
1.089395966
1.089396109
1.089396251
1.089396392
1.089396534
1.089396676
1.089396817
1.089396959
1.0893971
1.089397241
1.089397381
1.089397521
1.089397661
1.0893978
1.089397939
1.089398078
1.089398217
1.089398355
1.089398494
1.089398632
1.089398771
1.08939891
1.089399049
1.089399187
1.089399326
1.089399464
1.089399602
1.089399739
1.089399875
1.089400011
1.089400145
1.089400279
1.089400411
1.089400542
1.089400672
1.089400801
1.08940093
1.089401057
1.089401184
1.08940131
1.089401435
1.08940156
1.089401684
1.089401807
1.08940193
1.089402052
1.089402173
1.089402293
1.089402412
1.08940253
1.089402647
1.089402763
1.089402878
1.089402992
1.089403106
1.089403219
1.089403331
1.089403444
1.089403557
1.089403669
1.089403782
1.089403896
1.089404009
1.089404123
1.089404238
1.089404352
1.089404466
1.08940458
1.089404693
1.089404806
1.089404918
1.089405028
1.089405137
1.089405245
1.089405351
1.089405456
1.089405559
1.08940566
1.089405761
1.08940586
1.089405958
1.089406055
1.089406151
1.089406247
1.089406343
1.089406439
1.089406534
1.08940663
1.089406727
1.089406824
1.089406922
1.08940702
1.08940712
1.08940722
1.089407321
1.089407423
1.089407525
1.089407629
1.089407733
1.089407837
1.089407943
1.089408048
1.089408155
1.089408261
1.089408369
1.089408477
1.089408585
1.089408695
1.089408805
1.089408917
1.089409029
1.089409144
1.08940926
1.089409378
1.089409498
1.089409621
1.089409746
1.089409874
1.089410005
1.089410138
1.089410275
1.089410416
1.089410559
1.089410706
1.089410857
1.089411011
1.089411169
1.08941133
1.089411495
1.089411664
1.089411838
1.089412016
1.089412198
1.089412386
1.089412579
1.089412778
1.089412982
1.089413194
1.089413411
1.089413637
1.08941387
1.089414111
1.08941436
1.089414619
1.089414887
1.089415165
1.089415454
1.089415754
1.089416065
1.089416389
1.089416726
1.089417077
1.089417442
1.089417823
1.08941822
1.089418634
1.089419066
1.089419518
1.08941999
1.089420484
1.089421001
1.089421541
1.089422108
1.089422701
1.089423322
1.089423974
1.089424657
1.089425374
1.089426127
1.089426917