/*--------------------------------*- C++ -*----------------------------------*\
| =========                 |                                                 |
| \\      /  F ield         | OpenFOAM: The Open Source CFD Toolbox           |
|  \\    /   O peration     | Version:  v2006                                 |
|   \\  /    A nd           | Website:  www.openfoam.com                      |
|    \\/     M anipulation  |                                                 |
\*---------------------------------------------------------------------------*/
FoamFile
{
    version     2.0;
    format      ascii;
    class       volScalarField;
    location    "0.075";
    object      T;
}
// * * * * * * * * * * * * * * * * * * * * * * * * * * * * * * * * * * * * * //

dimensions      [0 0 0 1 0 0 0];


internalField   nonuniform List<scalar> 
72000
(
392.7401423
392.7379457
392.7355511
392.7424053
392.7569348
392.782706
392.7936382
392.6693996
392.7775004
392.9237629
392.9603247
392.9703159
392.994733
393.0257205
393.0635687
393.0932865
393.1278114
393.1690048
393.2017644
393.2406786
393.2730444
393.3114229
393.3446613
393.3841557
393.4181746
393.4535137
393.484982
393.506331
393.5256987
393.5595423
393.684573
393.689266
393.7117181
393.7269933
393.7379442
393.764422
393.8118845
393.9348139
394.3771948
394.4563303
394.51331
394.5870923
394.6668048
394.7532295
394.813952
394.8833664
394.9613522
395.0185242
395.0902642
395.1412386
395.2122894
395.2609483
395.3308247
395.3766326
395.4396826
395.5122679
395.5699019
395.6423287
395.6931193
395.7589981
395.841162
395.9029245
395.9809562
396.0384973
396.1179578
396.1762228
396.2519683
396.3402435
396.4109119
396.4999951
396.5687098
396.6542059
396.724138
396.8099443
396.9067487
396.9876897
397.0857229
397.1603434
397.254427
397.3598741
397.4485357
397.5482847
397.6667603
397.7619079
397.8753728
397.97169
398.0830894
398.2108913
398.3207662
398.4529963
398.566488
398.6989939
398.8145708
398.9552241
399.0778629
399.2243194
399.3517213
399.5022037
399.6408178
399.7961135
399.9388089
400.0999414
400.2456094
400.4120995
400.5577858
400.7246801
400.9077558
401.0687636
401.2479751
401.4437548
401.618496
401.8126302
402.0204375
402.2128184
402.4267324
402.62558
402.8429202
403.0511226
403.2771851
403.489932
403.726135
403.9467751
404.1902138
404.4528981
404.7020744
404.973695
405.2338962
405.5256529
405.8150047
406.1002283
406.3881344
406.6839393
406.9781447
407.2844384
407.5878168
407.9315917
408.306416
408.7067677
409.1338942
409.5958635
410.1150467
410.7595428
411.7664153
412.0888381
412.4813661
412.8787479
413.3151867
413.7681786
414.3732157
415.0945786
415.9560752
416.649957
417.0281514
417.4254426
417.9220225
418.5783931
419.0837521
419.6367042
420.1949721
420.7903528
421.3972105
422.0454159
422.7166078
423.4483807
424.0060431
424.2956636
424.8869086
425.6106003
426.416154
427.2656691
428.1509916
429.0717613
430.0313332
431.0396004
432.1259678
433.2949089
434.5276179
435.7317357
436.8195659
437.724675
438.9146362
440.3434676
441.5009518
443.0045819
444.3350155
445.548452
447.022251
448.7012187
450.6152683
452.4641955
454.3283989
456.1587633
458.2796129
460.5013153
462.9210489
465.2720062
467.7231812
470.5237226
473.359946
476.3122039
479.325783
482.597013
486.089702
489.5878029
493.3770887
497.4729123
501.7251445
506.0852192
510.5806321
515.0746171
519.5322382
523.8996019
528.0030311
531.5745943
534.4488197
536.4187383
537.3612646
536.6233565
534.3816249
541.5669016
590.4590259
496.8936757
479.2147126
442.5766774
422.5481964
405.0519989
389.9350086
377.1170023
366.5884565
358.7238661
352.6750678
348.5408537
345.8942961
343.7698095
342.0650119
340.792704
339.7098862
338.769451
337.9446235
337.2218389
336.6348653
336.1359921
335.6887375
335.3075411
334.9884611
334.7213867
334.4968387
334.3069402
334.1454173
334.0072629
333.88849
333.7859067
333.6969447
333.6195049
333.5518669
333.4926235
333.4405997
333.3948112
333.3544282
333.3187478
333.2871719
333.2591883
333.2343564
333.212296
333.1926775
333.1752143
333.1596557
333.1457613
333.1333277
333.1223185
333.1126297
333.1038711
333.0959869
333.0889044
333.0825508
333.076851
333.0717348
333.0671924
333.0632587
333.0598621
333.0568803
333.0542415
333.0518963
333.049809
333.0479505
333.0462963
333.0448243
333.043515
333.0423493
333.0413088
333.0412797
333.0412844
333.0412892
333.0412941
333.041299
333.041304
333.041309
333.0413141
333.0413192
333.0413243
333.0413295
333.0413347
333.04134
333.0413453
333.0413507
333.0413561
333.0413616
333.0413671
333.0413727
333.0413783
333.041384
333.0413896
333.0413954
333.0414012
333.041407
333.0414129
333.0414188
333.0414248
333.0414308
333.0414368
333.0414429
333.041449
333.0414552
333.0414614
333.0414676
333.0414739
333.0414802
333.0414865
333.0414929
333.0414993
333.0415057
333.0415122
333.0415187
333.0415252
333.0415317
333.0415383
333.0415449
333.0415515
333.0415582
333.0415648
333.0415715
333.0415782
333.041585
333.0415917
333.0415985
333.0416052
333.041612
333.0416188
333.0416256
333.0416324
333.0416393
333.0416461
333.0416529
333.0416598
333.0416666
333.0416735
333.0416804
333.0416872
333.0416941
333.041701
333.0417079
333.0417147
333.0417216
333.0417285
333.0417353
333.0417422
333.041749
333.0417559
333.0417627
333.0417695
333.0417763
333.0417831
333.0417899
333.0417967
333.0418035
333.0418102
333.041817
333.0418237
333.0418304
333.0418371
333.0418437
333.0418504
333.041857
333.0418636
333.0418702
333.0418767
333.0418833
333.0418898
333.0418962
333.0419027
333.0419091
333.0419155
333.0419219
333.0419282
333.0419345
333.0419408
333.041947
333.0419532
333.0419594
333.0419655
333.0419716
333.0419776
333.0419837
333.0419896
333.0419956
333.0420015
333.0420073
333.0420131
333.0420189
333.0420246
333.0420303
333.042036
333.0420416
333.0420471
333.0420526
333.0420581
333.0420635
333.0420689
333.0420742
333.0420795
333.0420847
333.0420899
333.042095
333.0421001
333.0421051
333.0421101
333.0421151
333.04212
333.0421248
333.0421296
333.0421343
333.042139
333.0421437
333.0421483
333.0421529
333.0421574
333.0421618
333.0421662
333.0421706
333.0421749
333.0421792
333.0421834
333.0421876
333.0421918
333.0421959
333.0421999
333.0422039
333.0422079
333.0422118
333.0422157
333.0422196
333.0422234
333.0422272
333.0422309
333.0422346
333.0422383
333.042242
333.0422456
333.0422491
333.0422527
333.0422562
333.0422597
333.0422632
333.0422667
333.0422701
333.0422735
333.0422769
333.0422803
333.0422837
333.042287
333.0422904
333.0422937
333.0422971
333.0423004
333.0423038
333.0423071
333.0423105
333.0423139
333.0423173
333.0423207
333.0423241
333.0423276
333.042331
333.0423345
333.0423381
333.0423417
333.0423453
333.042349
333.0423527
333.0423565
333.0423603
333.0423642
333.0423682
333.0423723
333.0423764
333.0423807
333.042385
333.0423894
333.042394
333.0423986
333.0424034
333.0424083
333.0424134
333.0424186
333.0424239
333.0424294
333.0424351
333.042441
333.042447
333.0424533
333.0424598
333.0424665
333.0424734
333.0424806
333.042488
333.0424957
333.0425037
333.0425121
333.0425207
333.0425297
333.042539
333.0425487
333.0425588
333.0425692
333.0425802
333.0425915
333.0426033
333.0426157
333.0426285
333.0426419
333.0426558
333.0426704
333.0426855
333.0427013
333.0427178
333.0427351
333.042753
333.0427718
333.0427914
333.0428119
333.0428332
333.0428556
333.0428789
333.0429033
333.0429288
333.0429554
333.0429833
333.0430124
333.0430429
333.0430748
333.0431082
333.0431431
333.0431797
333.043218
333.0432581
333.0433002
333.0433442
333.0433904
333.0434389
333.0434897
333.0435431
333.0435991
333.0436579
333.0437198
333.0437848
333.0438532
333.0439252
333.044001
333.044081
333.0441653
333.0442543
333.0443484
333.0444478
333.0445532
333.0446649
333.0447834
333.0449094
333.0450435
333.0451866
333.0453395
333.0455031
333.0456789
333.045868
333.0460721
333.0462933
333.0465338
333.0467965
333.0470849
333.0474036
333.0477579
333.0481554
333.0486056
333.0491216
333.0497221
333.0504337
333.0512978
333.0523808
333.0537989
333.0619144
333.0755608
471.9218269
471.9045806
471.8783576
471.8575853
471.8487254
471.8522695
471.8494331
471.8515875
471.9210464
472.0622669
472.1734403
472.2384212
472.2989563
472.363774
472.4340647
472.5030069
472.578651
472.6608154
472.7422729
472.8289668
472.9151134
473.0067744
473.098293
473.1965292
473.2964885
473.4020367
473.5126381
473.6341764
473.7877195
473.9951727
474.2493242
474.4224953
474.5783865
474.7304481
474.9020823
475.11712
475.3862341
475.7204346
476.1112155
476.3734093
476.5774219
476.7639319
476.9447088
477.1208751
477.2739302
477.4301757
477.591666
477.7385429
477.8907459
478.031072
478.1794142
478.316976
478.4626363
478.5977078
478.7449095
478.9038884
479.0522315
479.2086791
479.3545767
479.5131982
479.6846906
479.8462191
480.0171868
480.1793453
480.3514324
480.514343
480.6917407
480.88258
481.0642371
481.2564369
481.4402518
481.6347327
481.8202722
482.0206039
482.2350449
482.4402303
482.6552055
482.8610297
483.0812322
483.3150768
483.5390469
483.7771951
484.029817
484.2738509
484.5289606
484.7762555
485.0396894
485.3196625
485.5930377
485.8802402
486.1624778
486.4597695
486.7532124
487.0629194
487.36909
487.6921048
488.0119083
488.3486673
488.6826632
489.034004
489.3825363
489.7473099
490.106872
490.4828283
490.8544819
491.2451428
491.6538033
492.056302
492.4764487
492.9143042
493.3461761
493.7970586
494.2677837
494.7343023
495.2184737
495.7010931
496.2032363
496.7053804
497.2279465
497.7510844
498.295331
498.8407082
499.4121037
500.0097577
500.6106833
501.2370346
501.8709132
502.5352157
503.2081133
503.8885118
504.5790588
505.2824097
506.0005833
506.7362456
507.4947993
508.2868401
509.1152637
509.9801667
510.8839105
511.8320244
512.8344383
513.9039418
515.0283089
516.033027
517.0337122
518.039814
519.0979723
520.1971307
521.3696162
522.6264497
523.9827192
525.4430617
526.8038515
528.160106
529.6137064
530.9729788
532.2031089
533.472359
534.7681718
536.1047324
537.4699248
538.8804537
540.3149312
541.7753935
543.2132204
544.6393911
546.1592064
547.7720803
549.4647207
551.2265421
553.0536908
554.9470294
556.9107929
558.9517936
561.0550097
563.224288
565.4702138
567.7805636
570.1863294
572.7126976
575.3967184
578.2366467
581.0178236
583.9329011
586.9227838
590.0130676
593.2449175
596.6360713
600.2003929
603.9071784
607.763759
611.8020264
616.0810623
620.6293205
625.236291
630.0019392
635.0118592
640.3085699
645.8892514
651.7764899
657.854639
664.2756322
671.0656464
678.2239082
685.6886672
694.0688608
702.8463269
711.9487533
721.4424987
731.3042899
741.4066039
751.7089989
762.0595553
772.2143876
781.8706147
790.8189604
798.6352973
806.0774744
812.2373934
805.3739926
764.0111455
676.1511207
620.5120962
581.0588079
546.5746352
509.2545062
479.4589447
450.9272022
427.2434182
407.8885155
393.7069067
382.7932096
373.8781745
366.5526467
360.7759273
356.1295137
352.3874978
349.3426782
346.8373166
344.7658282
343.0351991
341.592066
340.3872821
339.378289
338.5297221
337.8120316
337.2016395
336.6796043
336.2309257
335.8435457
335.5077483
335.2156142
334.9606603
334.7375329
334.5417518
334.3695574
334.2178024
334.0838093
333.9653128
333.8603674
333.7673
333.684669
333.6112249
333.5458828
333.4876972
333.4358425
333.3896004
333.3483401
333.3115803
333.2789349
333.2498735
333.2236859
333.2001614
333.1790484
333.1601297
333.1432006
333.1281318
333.1148417
333.1032522
333.0931223
333.0841836
333.0762521
333.0691937
333.0629058
333.0573039
333.0523154
333.0478765
333.0439276
333.0427679
333.0427745
333.0427811
333.0427878
333.0427943
333.0428009
333.0428073
333.0428137
333.0428201
333.0428265
333.0428329
333.0428392
333.0428456
333.042852
333.0428583
333.0428647
333.0428712
333.0428776
333.0428841
333.0428906
333.0428971
333.0429036
333.0429102
333.0429168
333.0429235
333.0429302
333.0429369
333.0429437
333.0429505
333.0429574
333.0429643
333.0429712
333.0429782
333.0429852
333.0429923
333.0429993
333.0430065
333.0430136
333.0430208
333.0430281
333.0430354
333.0430427
333.04305
333.0430574
333.0430648
333.0430722
333.0430797
333.0430872
333.0430947
333.0431022
333.0431098
333.0431174
333.043125
333.0431327
333.0431403
333.043148
333.0431557
333.0431634
333.0431711
333.0431789
333.0431866
333.0431944
333.0432022
333.04321
333.0432178
333.0432256
333.0432334
333.0432412
333.043249
333.0432568
333.0432647
333.0432725
333.0432803
333.0432882
333.043296
333.0433038
333.0433116
333.0433194
333.0433272
333.043335
333.0433428
333.0433506
333.0433584
333.0433661
333.0433739
333.0433816
333.0433893
333.043397
333.0434047
333.0434123
333.04342
333.0434276
333.0434352
333.0434428
333.0434503
333.0434578
333.0434653
333.0434728
333.0434803
333.0434877
333.0434951
333.0435024
333.0435097
333.043517
333.0435243
333.0435315
333.0435387
333.0435459
333.043553
333.04356
333.0435671
333.0435741
333.043581
333.0435879
333.0435948
333.0436016
333.0436084
333.0436151
333.0436218
333.0436284
333.043635
333.0436416
333.0436481
333.0436545
333.0436609
333.0436672
333.0436735
333.0436798
333.043686
333.0436921
333.0436982
333.0437042
333.0437102
333.0437161
333.0437219
333.0437278
333.0437335
333.0437392
333.0437449
333.0437504
333.043756
333.0437615
333.0437669
333.0437723
333.0437776
333.0437828
333.043788
333.0437932
333.0437983
333.0438033
333.0438083
333.0438133
333.0438182
333.043823
333.0438278
333.0438325
333.0438372
333.0438419
333.0438464
333.043851
333.0438555
333.0438599
333.0438643
333.0438687
333.043873
333.0438773
333.0438815
333.0438857
333.0438899
333.043894
333.0438981
333.0439022
333.0439062
333.0439102
333.0439142
333.0439182
333.0439221
333.043926
333.0439299
333.0439337
333.0439376
333.0439414
333.0439453
333.0439491
333.0439529
333.0439568
333.0439606
333.0439644
333.0439683
333.0439721
333.043976
333.0439799
333.0439838
333.0439877
333.0439917
333.0439957
333.0439997
333.0440038
333.044008
333.0440122
333.0440164
333.0440207
333.0440251
333.0440296
333.0440341
333.0440387
333.0440435
333.0440483
333.0440532
333.0440583
333.0440634
333.0440687
333.0440742
333.0440798
333.0440855
333.0440914
333.0440975
333.0441038
333.0441103
333.0441169
333.0441238
333.044131
333.0441383
333.0441459
333.0441538
333.044162
333.0441705
333.0441793
333.0441884
333.0441978
333.0442076
333.0442178
333.0442284
333.0442394
333.0442509
333.0442628
333.0442752
333.0442881
333.0443016
333.0443156
333.0443302
333.0443454
333.0443612
333.0443778
333.044395
333.044413
333.0444317
333.0444513
333.0444717
333.0444931
333.0445153
333.0445386
333.0445629
333.0445882
333.0446147
333.0446425
333.0446714
333.0447017
333.0447333
333.0447665
333.0448011
333.0448373
333.0448753
333.0449149
333.0449565
333.045
333.0450456
333.0450934
333.0451434
333.0451959
333.0452509
333.0453086
333.0453692
333.0454328
333.0454996
333.0455698
333.0456436
333.0457213
333.045803
333.045889
333.0459797
333.0460754
333.0461763
333.046283
333.0463957
333.0465151
333.0466416
333.0467758
333.0469184
333.0470702
333.0472319
333.0474047
333.0475895
333.0477877
333.0480009
333.0482307
333.0484794
333.0487493
333.0490436
333.049366
333.0497211
333.0501147
333.0505541
333.0510489
333.0516119
333.0522601
333.0530175
333.0539175
333.0550083
333.0563596
333.0580638
333.0601985
541.4187398
541.406518
541.3898542
541.3782949
541.3780646
541.3911712
541.4150636
541.4561837
541.5369177
541.6563422
541.7761308
541.8831025
541.9870083
542.0933946
542.203957
542.3174398
542.4365707
542.5614207
542.6895922
542.8224068
542.9583874
543.0994035
543.2443604
543.3956494
543.552774
543.7181447
543.8935133
544.0842056
544.2994428
544.5438735
544.8046264
545.0451031
545.2770903
545.5118323
545.7639797
546.0463421
546.3641355
546.7140361
547.0734372
547.3857669
547.6606256
547.9151608
548.1584951
548.3927748
548.613432
548.8313061
549.0486335
549.2601174
549.4711013
549.6776943
549.885784
550.0908371
550.2984297
550.5049235
550.7179356
550.9374124
551.1560716
551.3781861
551.5999894
551.8291851
552.0658966
552.3026925
552.5438948
552.7847582
553.0306404
553.2776859
553.5337619
553.7984125
554.0643401
554.335848
554.607927
554.8858403
555.1656003
555.4550334
555.7538551
556.0544481
556.3610337
556.6696954
556.988294
557.3166905
557.6484356
557.990586
558.3430038
558.698417
559.0613889
559.4281675
559.806937
560.1978911
560.5876463
560.9865187
561.3901583
561.8042636
562.2242768
562.6558377
563.0941307
563.5444773
564.0018673
564.4716528
564.9489764
565.4391855
565.9372867
566.4490815
566.9693441
567.5028
568.0447113
568.6029937
569.1769913
569.7597929
570.3583194
570.97269
571.5964761
572.2372246
572.8951534
573.5628073
574.2454609
574.9386716
575.6485118
576.3705898
577.1108747
577.8646574
578.6381702
579.4279627
580.2426827
581.0829097
581.9419297
582.8253825
583.729419
584.6596985
585.6091041
586.5760342
587.5614623
588.5675526
589.5962692
590.650618
591.7341899
592.8536121
594.0121452
595.2113083
596.442613
597.7115438
599.0274158
600.3890743
601.7810632
603.1625692
604.5583882
605.9814433
607.4525908
608.9752101
610.5586118
612.2116464
613.9363143
615.7193121
617.5180689
619.3564795
621.2607083
623.2346146
625.2535029
627.3211974
629.4362223
631.3212551
633.2202979
635.1677008
637.1571884
639.187425
641.2501751
643.3566383
645.5391444
647.8061833
650.1585969
652.5951518
655.1163362
657.724919
660.4257598
663.2246865
666.1015295
669.0835192
672.1703603
675.3648423
678.6834519
682.1478652
685.7858677
689.616062
693.6621043
697.8519976
702.0206988
706.3481972
710.8658694
715.5910272
720.5326755
725.6849703
731.0314166
736.6399779
742.5476722
748.7857038
755.1839081
761.7549252
768.6592004
775.9319147
783.5888478
791.5833825
799.8908448
808.6439299
817.7806284
827.4000368
837.4172076
848.4571341
860.1580185
872.3448162
885.025543
898.1052242
911.6110982
925.3085807
939.1511916
952.7997274
966.0837709
978.6698478
990.2629678
998.9832143
997.5315515
973.2477873
916.4991906
833.4264206
776.3291956
723.9048107
673.6722142
621.6013457
573.7699834
531.98533
501.8931533
469.9676341
444.5743674
423.0204193
405.7675026
392.1042279
381.335528
372.798684
365.9824415
360.5364175
356.1605056
352.6113625
349.7076895
347.3125611
345.3215849
343.654996
342.2508002
341.0598868
340.0442257
339.1732288
338.4227931
337.7734437
337.209468
336.7179714
336.2883579
335.911839
335.5810651
335.2898724
335.0330218
334.8060751
334.6052313
334.4272452
334.2693177
334.1290383
334.0043117
333.8933188
333.7944735
333.7063942
333.6278779
333.5578837
333.4955056
333.4398882
333.390126
333.3454736
333.3054785
333.269691
333.2377329
333.2092674
333.1840183
333.1617326
333.1421144
333.1247877
333.1094108
333.095725
333.0835271
333.0726519
333.0629587
333.054325
333.0466415
333.0443016
333.0443108
333.0443199
333.0443287
333.0443373
333.0443457
333.0443539
333.044362
333.0443699
333.0443777
333.0443855
333.0443931
333.0444007
333.0444083
333.0444158
333.0444233
333.0444308
333.0444383
333.0444457
333.0444532
333.0444607
333.0444682
333.0444757
333.0444833
333.0444909
333.0444984
333.0445061
333.0445137
333.0445214
333.0445292
333.0445369
333.0445447
333.0445526
333.0445605
333.0445684
333.0445764
333.0445844
333.0445924
333.0446005
333.0446087
333.0446168
333.044625
333.0446333
333.0446416
333.0446499
333.0446582
333.0446666
333.044675
333.0446835
333.044692
333.0447005
333.044709
333.0447176
333.0447262
333.0447348
333.0447434
333.0447521
333.0447608
333.0447695
333.0447782
333.0447869
333.0447957
333.0448044
333.0448132
333.044822
333.0448308
333.0448396
333.0448485
333.0448573
333.0448661
333.044875
333.0448838
333.0448926
333.0449015
333.0449103
333.0449192
333.044928
333.0449369
333.0449457
333.0449545
333.0449633
333.0449721
333.0449809
333.0449897
333.0449985
333.0450073
333.045016
333.0450247
333.0450335
333.0450421
333.0450508
333.0450595
333.0450681
333.0450767
333.0450853
333.0450938
333.0451024
333.0451109
333.0451193
333.0451278
333.0451362
333.0451446
333.0451529
333.0451612
333.0451695
333.0451777
333.0451859
333.0451941
333.0452022
333.0452103
333.0452183
333.0452263
333.0452342
333.0452421
333.0452499
333.0452577
333.0452655
333.0452732
333.0452808
333.0452884
333.045296
333.0453034
333.0453109
333.0453183
333.0453256
333.0453328
333.0453401
333.0453472
333.0453543
333.0453613
333.0453683
333.0453752
333.0453821
333.0453889
333.0453956
333.0454023
333.0454089
333.0454154
333.0454219
333.0454283
333.0454347
333.045441
333.0454472
333.0454534
333.0454595
333.0454656
333.0454715
333.0454775
333.0454833
333.0454891
333.0454949
333.0455006
333.0455062
333.0455118
333.0455173
333.0455227
333.0455281
333.0455334
333.0455387
333.0455439
333.0455491
333.0455542
333.0455592
333.0455642
333.0455692
333.0455741
333.045579
333.0455838
333.0455886
333.0455933
333.045598
333.0456026
333.0456072
333.0456118
333.0456163
333.0456208
333.0456253
333.0456298
333.0456342
333.0456386
333.0456429
333.0456473
333.0456517
333.045656
333.0456603
333.0456646
333.0456689
333.0456733
333.0456776
333.0456819
333.0456862
333.0456906
333.045695
333.0456993
333.0457038
333.0457082
333.0457127
333.0457173
333.0457218
333.0457265
333.0457312
333.0457359
333.0457407
333.0457456
333.0457506
333.0457557
333.0457609
333.0457662
333.0457715
333.045777
333.0457827
333.0457884
333.0457943
333.0458004
333.0458066
333.045813
333.0458196
333.0458264
333.0458334
333.0458406
333.045848
333.0458556
333.0458636
333.0458717
333.0458802
333.045889
333.0458981
333.0459075
333.0459172
333.0459274
333.0459379
333.0459488
333.0459601
333.0459719
333.0459841
333.0459969
333.0460101
333.0460239
333.0460382
333.0460532
333.0460688
333.046085
333.0461019
333.0461195
333.0461379
333.046157
333.046177
333.0461979
333.0462196
333.0462424
333.0462661
333.0462909
333.0463167
333.0463437
333.046372
333.0464015
333.0464323
333.0464645
333.0464982
333.0465334
333.0465703
333.0466088
333.0466491
333.0466913
333.0467355
333.0467817
333.0468301
333.0468808
333.0469339
333.0469896
333.0470479
333.0471091
333.0471733
333.0472406
333.0473113
333.0473855
333.0474634
333.0475454
333.0476315
333.0477222
333.0478176
333.0479181
333.0480241
333.0481358
333.0482538
333.0483785
333.0485104
333.04865
333.048798
333.048955
333.049122
333.0492996
333.0494891
333.0496914
333.0499079
333.0501402
333.05039
333.0506593
333.0509507
333.0512669
333.0516115
333.0519887
333.0524024
333.0528598
333.053369
333.0539398
333.0545844
333.0553182
333.0561595
333.0571285
333.0582418
333.0594952
333.060817
603.3558034
603.3517351
603.3490817
603.3543497
603.3724597
603.4061651
603.4567836
603.5277473
603.6252461
603.7470864
603.8796421
604.0148372
604.1529342
604.2953299
604.4426761
604.5948596
604.7527524
604.9163576
605.0848535
605.2583626
605.4365931
605.6202611
605.8095034
606.0054474
606.2087348
606.4209888
606.6438986
606.8801342
607.1331168
607.4026777
607.6816913
607.9590085
608.2365894
608.5200232
608.8164795
609.1310216
609.4623259
609.8068693
610.1513976
610.4771545
610.7832089
611.0751496
611.3576029
611.6327173
611.6980436
611.788256
611.9034546
612.0383167
612.1908127
612.3576108
612.5381319
612.7298453
612.9328823
613.1457549
613.3697878
613.6041222
613.8459251
614.0954453
614.3517098
614.6166277
614.8898521
615.1688891
615.4541443
615.7443652
616.0408925
616.3433207
616.6540127
616.9727285
617.2971665
617.627858
617.9635972
618.3057592
618.6539581
619.010628
619.3757462
619.7471416
620.1256731
620.5109164
620.9054247
621.3094739
621.7216333
622.143864
622.5761469
623.0164432
623.4658244
623.9240234
624.393682
624.8750385
625.3658474
625.8674837
626.3793033
626.9030786
627.4382345
627.9857921
628.5445716
629.1170787
629.7024818
630.302226
630.9155407
631.5439264
632.1865948
632.8452315
633.5189197
634.2090146
634.9153201
635.6398035
636.3821857
637.1407589
637.9174079
638.7123937
639.5244134
640.3557435
641.2066171
642.074887
642.9616725
643.8668614
644.7928921
645.7396775
646.7094324
647.7019327
648.7195594
649.7627436
650.8347042
651.9360172
653.0648132
654.2220979
655.4067787
656.6195252
657.8574493
659.1188666
660.403073
661.7080419
662.9932345
664.309446
665.6537419
667.0370792
668.461886
669.929926
671.365441
672.8213833
674.3089596
675.8421196
677.4433218
679.1384022
680.9335178
682.8242187
684.8072562
686.8655234
688.8113516
690.8229504
692.8997205
695.0347831
697.2177347
699.4513921
701.731038
704.0731433
706.472963
708.932301
711.4513984
714.0327807
716.6723407
719.3679349
721.9284089
724.4570432
727.045078
729.7005045
732.4376221
735.2404483
738.1360943
741.1279074
744.2188149
747.4128112
750.7153388
754.1330584
757.673735
761.3393989
765.1131249
769.004298
773.0448255
777.2523021
781.6477618
786.2513452
791.0838745
796.1485199
801.4724332
806.8028858
812.3263377
818.0872341
824.0959098
830.323131
836.8418518
843.6778263
850.8644027
858.3864155
866.1856634
874.1928393
882.5834967
891.364731
900.6235052
910.2923378
920.2869233
930.7909249
941.7614313
953.2593425
965.1314505
977.787022
991.5266412
1005.859449
1020.709883
1036.035224
1051.724609
1067.681009
1083.620573
1099.460293
1114.683457
1129.087481
1141.71962
1148.815687
1143.918112
1118.298211
1066.26963
1003.572109
948.6320401
887.9283842
823.8195817
757.116599
694.2496834
634.9495326
584.016347
544.7427076
513.2772975
479.7859419
450.9570177
428.184016
410.2849297
396.2225268
385.0878736
376.2710459
369.2253086
363.5396466
358.9171424
355.1244254
351.9862865
349.3701722
347.1744541
345.3182551
343.7406704
342.3917975
341.2329637
340.2328591
339.3663625
338.6129077
337.9556588
337.3807543
336.8765407
336.4333566
336.0429945
335.6985504
335.3940992
335.1246175
334.8857673
334.6738272
334.485569
334.3182017
334.1692898
334.0367142
333.9186178
333.8133698
333.7195158
333.6357362
333.5608493
333.4938975
333.4340984
333.380738
333.3331935
333.2909009
333.2533501
333.2200506
333.1905088
333.1642442
333.1408452
333.1199752
333.1013527
333.0847374
333.0699199
333.0567156
333.0458604
333.045873
333.045885
333.0458965
333.0459075
333.0459181
333.0459284
333.0459384
333.0459482
333.0459577
333.045967
333.0459762
333.0459852
333.0459941
333.0460029
333.0460116
333.0460202
333.0460288
333.0460374
333.0460459
333.0460544
333.0460629
333.0460714
333.0460799
333.0460884
333.0460969
333.0461054
333.046114
333.0461225
333.0461312
333.0461398
333.0461485
333.0461572
333.046166
333.0461748
333.0461836
333.0461925
333.0462014
333.0462104
333.0462194
333.0462285
333.0462376
333.0462467
333.0462559
333.0462651
333.0462744
333.0462837
333.046293
333.0463024
333.0463118
333.0463213
333.0463307
333.0463403
333.0463498
333.0463594
333.046369
333.0463786
333.0463883
333.046398
333.0464077
333.0464174
333.0464272
333.0464369
333.0464467
333.0464565
333.0464663
333.0464762
333.046486
333.0464958
333.0465057
333.0465156
333.0465255
333.0465353
333.0465452
333.0465551
333.046565
333.0465749
333.0465848
333.0465947
333.0466045
333.0466144
333.0466243
333.0466341
333.046644
333.0466538
333.0466637
333.0466735
333.0466833
333.046693
333.0467028
333.0467126
333.0467223
333.046732
333.0467416
333.0467513
333.0467609
333.0467705
333.0467801
333.0467896
333.0467991
333.0468086
333.046818
333.0468274
333.0468368
333.0468461
333.0468554
333.0468647
333.0468739
333.046883
333.0468922
333.0469012
333.0469103
333.0469192
333.0469282
333.046937
333.0469459
333.0469546
333.0469633
333.046972
333.0469806
333.0469891
333.0469976
333.0470061
333.0470144
333.0470227
333.047031
333.0470391
333.0470473
333.0470553
333.0470633
333.0470712
333.0470791
333.0470868
333.0470946
333.0471022
333.0471098
333.0471173
333.0471248
333.0471321
333.0471394
333.0471467
333.0471538
333.0471609
333.0471679
333.0471749
333.0471818
333.0471886
333.0471953
333.047202
333.0472086
333.0472151
333.0472216
333.047228
333.0472343
333.0472405
333.0472467
333.0472528
333.0472589
333.0472649
333.0472708
333.0472767
333.0472825
333.0472882
333.0472939
333.0472995
333.047305
333.0473105
333.047316
333.0473214
333.0473267
333.047332
333.0473372
333.0473424
333.0473476
333.0473527
333.0473577
333.0473628
333.0473677
333.0473727
333.0473776
333.0473825
333.0473874
333.0473922
333.047397
333.0474018
333.0474066
333.0474114
333.0474161
333.0474209
333.0474257
333.0474304
333.0474352
333.04744
333.0474448
333.0474496
333.0474545
333.0474594
333.0474643
333.0474692
333.0474743
333.0474793
333.0474844
333.0474896
333.0474949
333.0475002
333.0475057
333.0475112
333.0475168
333.0475225
333.0475284
333.0475344
333.0475405
333.0475467
333.0475531
333.0475597
333.0475664
333.0475733
333.0475805
333.0475878
333.0475953
333.0476031
333.0476112
333.0476194
333.047628
333.0476369
333.047646
333.0476555
333.0476653
333.0476755
333.047686
333.047697
333.0477083
333.0477201
333.0477324
333.0477451
333.0477584
333.0477721
333.0477865
333.0478014
333.0478169
333.0478331
333.0478499
333.0478675
333.0478858
333.0479049
333.0479248
333.0479456
333.0479672
333.0479898
333.0480134
333.048038
333.0480638
333.0480906
333.0481187
333.048148
333.0481786
333.0482106
333.048244
333.048279
333.0483155
333.0483538
333.0483937
333.0484355
333.0484793
333.048525
333.0485729
333.0486231
333.0486756
333.0487305
333.0487881
333.0488485
333.0489117
333.0489779
333.0490474
333.0491203
333.0491967
333.049277
333.0493612
333.0494497
333.0495427
333.0496405
333.0497433
333.0498515
333.0499655
333.0500856
333.0502122
333.0503459
333.050487
333.0506362
333.050794
333.0509612
333.0511385
333.0513267
333.0515268
333.0517399
333.0519662
333.0522078
333.0524664
333.0527438
333.0530422
333.0533639
333.0537116
333.0540886
333.0544986
333.0549459
333.0554355
333.0559729
333.0565639
333.057214
333.0579268
333.0587009
333.0595228
333.0603552
333.0611171
659.6647164
659.6689301
659.6806162
659.7040296
659.7427842
659.7992366
659.8748861
659.9712868
660.0896866
660.2279677
660.3801804
660.5414796
660.7100102
660.8852389
661.0669222
661.2548395
661.4490948
661.649548
661.8557409
662.0671322
662.2838146
662.5063516
662.7350944
662.9707048
663.2139068
663.4657993
663.7275349
663.9985314
664.2815726
664.5757186
664.877589
665.1833899
665.4934143
665.810214
666.1371378
666.4654594
666.4073007
666.3432125
666.2898493
666.2641778
666.2745543
666.3220596
666.4039433
666.5159461
666.6538789
666.8147171
666.9955484
667.1933587
667.4061925
667.632128
667.8701398
668.1189841