/*--------------------------------*- C++ -*----------------------------------*\
| =========                 |                                                 |
| \\      /  F ield         | OpenFOAM: The Open Source CFD Toolbox           |
|  \\    /   O peration     | Version:  v2006                                 |
|   \\  /    A nd           | Website:  www.openfoam.com                      |
|    \\/     M anipulation  |                                                 |
\*---------------------------------------------------------------------------*/
FoamFile
{
    version     2.0;
    format      ascii;
    class       volScalarField;
    location    "0.075";
    object      theta2_0;
}
// * * * * * * * * * * * * * * * * * * * * * * * * * * * * * * * * * * * * * //

dimensions      [0 0 0 0 0 0 0];


internalField   nonuniform List<scalar> 
72000
(
2.286215758
2.285689498
2.284686316
2.283441251
2.281841887
2.280035031
2.277081729
2.271574037
2.270640621
2.272943141
2.273083318
2.272016481
2.271610429
2.271580504
2.271822876
2.271953838
2.272333561
2.272939753
2.273425394
2.274157301
2.274802003
2.275648192
2.276402501
2.277403841
2.278343613
2.279406359
2.280485953
2.281501104
2.282907544
2.285476576
2.291346389
2.292812729
2.29456619
2.296163232
2.297976889
2.300855014
2.305034781
2.311918776
2.327779791
2.332839883
2.336407848
2.340103159
2.343694243
2.347068708
2.349607375
2.352242077
2.35506605
2.357068518
2.359539784
2.361290792
2.363448051
2.365110934
2.367144759
2.368653289
2.37044466
2.372646934
2.374251006
2.376324635
2.377864766
2.379744567
2.381972607
2.383691342
2.385894007
2.38761367
2.389792405
2.391410268
2.393424843
2.39587916
2.397827673
2.400285601
2.402268211
2.404626156
2.40654674
2.40882564
2.41157965
2.413737216
2.416423751
2.418565588
2.421068399
2.424084448
2.426498327
2.429248858
2.432430267
2.435065799
2.438266627
2.440838222
2.443979381
2.447525285
2.450524379
2.454065585
2.45717934
2.460893084
2.464085011
2.467827342
2.471252408
2.475247926
2.47872395
2.482846105
2.486502968
2.490736201
2.494603801
2.499072939
2.503030267
2.507555748
2.511536935
2.516066948
2.521014355
2.525398977
2.530249929
2.535550478
2.540264065
2.545474735
2.551111147
2.556257342
2.562001991
2.567242854
2.573159162
2.578603688
2.584729835
2.590375356
2.596655615
2.602488733
2.608928809
2.615897679
2.622458805
2.629670315
2.636542786
2.644257046
2.651881827
2.659395994
2.666965586
2.674627014
2.682478876
2.690530334
2.698633058
2.707896603
2.71811699
2.729132583
2.740962332
2.753800716
2.768181678
2.785695953
2.811918588
2.820957473
2.831173399
2.840954918
2.851614002
2.86200585
2.875356174
2.890874495
2.909713243
2.937052106
2.94854656
2.960510468
2.977626643
3.002672549
3.020217054
3.039268361
3.058377257
3.078942371
3.099661663
3.121908332
3.144555535
3.168792675
3.183663971
3.185906697
3.201160356
3.221791698
3.245443645
3.270882374
3.297807086
3.326222142
3.356359531
3.388888798
3.42560202
3.466078987
3.50754031
3.543620481
3.576443553
3.603123376
3.643148671
3.693841244
3.731635643
3.783995341
3.827127037
3.864103083
3.91194801
3.967563422
4.03226781
4.090989016
4.148067177
4.202149905
4.268851142
4.344437065
4.42973448
4.509964652
4.590950709
4.685178955
4.778500717
4.874505486
4.972774822
5.084150383
5.20358334
5.320451364
5.446092046
5.57534462
5.705510367
5.840482008
5.981045179
6.125598544
6.272077218
6.416862162
6.554176239
6.674005873
6.767305524
6.821772202
6.832646477
6.782130219
6.690616615
6.914113598
8.850622158
21.75533055
33.63450741
41.07369052
45.78364022
49.03698836
51.48987099
53.43541161
55.02664708
56.44424088
57.53602985
58.23114555
58.66500839
58.94952037
59.13117923
59.25972882
59.3603894
59.4433155
59.51361315
59.5743234
59.62751936
59.67480921
59.71737338
59.75480522
59.78717502
59.81498492
59.83884735
59.85935524
59.87702715
59.89230413
59.90555419
59.91708312
59.92714441
59.93595028
59.94367786
59.95047417
59.95646338
59.96175088
59.96642693
59.97056863
59.97424204
59.97750415
59.98040432
59.98298551
59.98528544
59.98733772
59.9891739
59.99082725
59.99227764
59.99352281
59.99461494
59.99560168
59.99648628
59.9972731
59.99796294
59.99855044
59.99901141
59.99927019
59.99935906
59.99940471
59.99943644
59.99946226
59.99948469
59.99950456
59.99952236
59.99953836
59.99955275
59.9995657
59.99957736
59.99958788
59.99959732
59.99960573
59.99961326
59.99962001
59.99962608
59.99963155
59.99963646
59.99964089
59.99964488
59.99964847
59.99965171
59.99965462
59.99965725
59.99965962
59.99966176
59.99966368
59.99966542
59.99966698
59.99966839
59.99966966
59.99967081
59.99967185
59.99967278
59.99967363
59.99967439
59.99967508
59.9996757
59.99967626
59.99967677
59.99967722
59.99967764
59.99967801
59.99967835
59.99967866
59.99967893
59.99967918
59.99967941
59.99967962
59.9996798
59.99967997
59.99968012
59.99968026
59.99968038
59.9996805
59.9996806
59.99968069
59.99968077
59.99968085
59.99968092
59.99968098
59.99968103
59.99968108
59.99968112
59.99968116
59.9996812
59.99968123
59.99968126
59.99968128
59.9996813
59.99968132
59.99968134
59.99968135
59.99968136
59.99968137
59.99968138
59.99968139
59.99968139
59.99968139
59.9996814
59.9996814
59.9996814
59.99968139
59.99968139
59.99968139
59.99968138
59.99968137
59.99968137
59.99968136
59.99968135
59.99968134
59.99968133
59.99968132
59.99968131
59.9996813
59.99968129
59.99968128
59.99968126
59.99968125
59.99968124
59.99968122
59.99968121
59.99968119
59.99968118
59.99968116
59.99968115
59.99968113
59.99968112
59.9996811
59.99968109
59.99968107
59.99968105
59.99968104
59.99968102
59.99968101
59.99968099
59.99968098
59.99968096
59.99968094
59.99968093
59.99968091
59.9996809
59.99968088
59.99968087
59.99968086
59.99968084
59.99968083
59.99968082
59.9996808
59.99968079
59.99968078
59.99968077
59.99968076
59.99968075
59.99968074
59.99968073
59.99968073
59.99968072
59.99968072
59.99968071
59.99968071
59.9996807
59.9996807
59.9996807
59.9996807
59.9996807
59.9996807
59.99968071
59.99968071
59.99968072
59.99968072
59.99968073
59.99968074
59.99968075
59.99968076
59.99968078
59.99968079
59.99968081
59.99968083
59.99968085
59.99968087
59.99968089
59.99968091
59.99968094
59.99968097
59.999681
59.99968103
59.99968106
59.9996811
59.99968113
59.99968117
59.99968121
59.99968125
59.9996813
59.99968135
59.9996814
59.99968145
59.9996815
59.99968156
59.99968162
59.99968168
59.99968174
59.99968181
59.99968187
59.99968194
59.99968202
59.99968209
59.99968217
59.99968225
59.99968234
59.99968242
59.99968251
59.99968261
59.9996827
59.9996828
59.9996829
59.99968301
59.99968311
59.99968322
59.99968334
59.99968346
59.99968358
59.9996837
59.99968383
59.99968396
59.9996841
59.99968424
59.99968438
59.99968453
59.99968468
59.99968483
59.99968499
59.99968515
59.99968532
59.99968549
59.99968566
59.99968584
59.99968603
59.99968622
59.99968641
59.99968661
59.99968682
59.99968702
59.99968724
59.99968746
59.99968768
59.99968791
59.99968815
59.99968839
59.99968864
59.9996889
59.99968916
59.99968942
59.9996897
59.99968998
59.99969027
59.99969056
59.99969086
59.99969117
59.99969149
59.99969182
59.99969215
59.9996925
59.99969285
59.99969321
59.99969358
59.99969396
59.99969435
59.99969475
59.99969516
59.99969558
59.99969602
59.99969646
59.99969692
59.99969739
59.99969788
59.99969838
59.9996989
59.99969943
59.99969998
59.99970054
59.99970112
59.99970173
59.99970235
59.99970299
59.99970366
59.99970435
59.99970506
59.9997058
59.99970657
59.99970737
59.99970819
59.99970905
59.99970994
59.99971087
59.99971183
59.99971284
59.99971389
59.99971498
59.99971612
59.99971731
59.99971856
59.99971987
59.99972124
59.99972268
59.99972419
59.99972578
59.99972745
59.99972921
59.99973107
59.99973303
59.99973511
59.9997373
59.99973962
59.99974208
59.9997447
59.99974748
59.99975045
59.9997536
59.99975697
59.99976058
59.99976443
59.99976856
59.99977299
59.99977775
59.99978286
59.99978837
59.9997943
59.99980068
59.99980755
59.99981493
59.99982284
59.99983126
59.99984014
59.99984934
59.9998586
59.9998674
59.99987493
59.99988033
59.99988508
59.99990998
4.501526091
4.500555813
4.498885038
4.496944754
4.494919751
4.492840499
4.490124231
4.487166902
4.486753148
4.489443103
4.491343079
4.4918571
4.49234957
4.493093064
4.494120124
4.495228778
4.496637025
4.498331141
4.500098257
4.502099849
4.50416788
4.506474929
4.508861846
4.511531628
4.514353809
4.517467562
4.520896728
4.524884055
4.53017229
4.537487399
4.546490808
4.552786003
4.558487279
4.564165638
4.570688092
4.578908026
4.589160304
4.60163633
4.615777591
4.62568494
4.63343006
4.640271875
4.646640699
4.65263622
4.657785708
4.662866316
4.667962478
4.672540612
4.677175002
4.681401384
4.685789521
4.68982113
4.694036685
4.69791689
4.702108183
4.70660273
4.710777535
4.715160232
4.719229752
4.723642093
4.728403319
4.732874424
4.73759833
4.742066009
4.746808827
4.751285862
4.756164087
4.761415072
4.766404756
4.771686797
4.776729212
4.782067247
4.787149207
4.792643564
4.798530338
4.804156096
4.810053203
4.815691422
4.8217296
4.828146425
4.834286551
4.840820159
4.847756053
4.854448136
4.861446327
4.868222089
4.875444571
4.883124658
4.890613192
4.898479345
4.90619934
4.914333562
4.922350585
4.930817904
4.939176687
4.947998171
4.95672023
4.96590457
4.975005541
4.984582557
4.994072002
5.004044372
5.013912825
5.024233315
5.034420147
5.045133719
5.056344778
5.067366165
5.078872626
5.090865371
5.102674321
5.115005133
5.12787629
5.14061238
5.153824373
5.166971997
5.180648737
5.194308451
5.208519192
5.222726479
5.237507357
5.252299577
5.267804763
5.284029348
5.300324705
5.317308717
5.334483991
5.352493343
5.37072176
5.389142356
5.407830266
5.426867523
5.44631576
5.46626724
5.486887087
5.508500306
5.531192557
5.554955757
5.579835521
5.605964629
5.633582103
5.662968462
5.693701182
5.720844517
5.74757055
5.774098556
5.801720953
5.830078509
5.859999521
5.891809351
5.925967479
5.962715956
5.996920967
6.031402126
6.068369739
6.108048234
6.147532649
6.187991621
6.229207302
6.271604474
6.314815915
6.359223788
6.404043663
6.448847417
6.491118214
6.531509097
6.5757771
6.623811029
6.674945389
6.728731713
6.785003542
6.843796513
6.905310685
6.969887982
7.03780359
7.108621325
7.180999841
7.253258512
7.326425592
7.401892501
7.483810265
7.571712554
7.662171598
7.757364282
7.853697172
7.952431567
8.057373741
8.169012163
8.286756952
8.407784388
8.532621639
8.663024622
8.802895351
8.952956576
9.112168459
9.277758032
9.451231961
9.63519772
9.828581618
10.03268107
10.24932447
10.48153005
10.72855828
10.98941511
11.26544784
11.55693378
11.86449558
12.18978755
12.53321204
12.89403293
13.26789276
13.64914483
14.03054073
14.40810122
14.772228
15.12683444
15.4988767
15.98665249
16.94274873
18.93505872
23.2746636
32.15297963
40.35788833
46.1021666
49.94846276
52.59506047
54.46582023
55.85404526
56.93880345
57.79222968
58.42745387
58.83145891
59.08203178
59.2447337
59.35443506
59.43547273
59.50129078
59.55794042
59.60824335
59.6535468
59.69462461
59.73169541
59.76488019
59.79420121
59.81982151
59.84210354
59.86144758
59.87825752
59.892889
59.9056537
59.91681553
59.92659926
59.93519423
59.94276009
59.94943275
59.95532905
59.96054672
59.96517006
59.96927203
59.97291558
59.97615517
59.97903809
59.98160553
59.98389337
59.98593297
59.98775166
59.98937223
59.99081143
59.99207142
59.99316549
59.99413106
59.99500536
59.99578335
59.99646683
59.99705375
59.99753978
59.99791271
59.99816349
59.99831928
59.99843046
59.99851961
59.99859596
59.99866331
59.99872344
59.99877741
59.99882591
59.99886954
59.99890878
59.99894406
59.99897573
59.99900411
59.99902951
59.99905231
59.99907281
59.99909127
59.99910788
59.99912286
59.99913637
59.99914855
59.99915953
59.99916945
59.9991784
59.99918648
59.99919378
59.99920038
59.99920634
59.99921173
59.99921661
59.99922103
59.99922504
59.99922867
59.99923196
59.99923495
59.99923766
59.99924013
59.99924238
59.99924443
59.9992463
59.99924801
59.99924958
59.99925101
59.99925232
59.99925353
59.99925464
59.99925567
59.99925662
59.99925749
59.99925831
59.99925906
59.99925977
59.99926042
59.99926104
59.99926162
59.99926216
59.99926267
59.99926316
59.99926361
59.99926405
59.99926446
59.99926486
59.99926524
59.9992656
59.99926595
59.99926628
59.9992666
59.99926692
59.99926722
59.99926751
59.9992678
59.99926808
59.99926835
59.99926861
59.99926887
59.99926913
59.99926938
59.99926962
59.99926986
59.9992701
59.99927033
59.99927056
59.99927079
59.99927101
59.99927123
59.99927145
59.99927166
59.99927188
59.99927209
59.9992723
59.9992725
59.99927271
59.99927291
59.99927311
59.99927331
59.99927351
59.99927371
59.9992739
59.99927409
59.99927429
59.99927448
59.99927467
59.99927486
59.99927504
59.99927523
59.99927542
59.9992756
59.99927578
59.99927597
59.99927615
59.99927633
59.99927651
59.99927669
59.99927687
59.99927705
59.99927723
59.9992774
59.99927758
59.99927776
59.99927793
59.99927811
59.99927828
59.99927846
59.99927864
59.99927881
59.99927899
59.99927916
59.99927934
59.99927951
59.99927969
59.99927987
59.99928004
59.99928022
59.9992804
59.99928058
59.99928076
59.99928094
59.99928112
59.9992813
59.99928148
59.99928167
59.99928185
59.99928204
59.99928223
59.99928242
59.99928261
59.9992828
59.99928299
59.99928319
59.99928338
59.99928358
59.99928378
59.99928399
59.99928419
59.9992844
59.99928461
59.99928482
59.99928504
59.99928526
59.99928548
59.9992857
59.99928593
59.99928616
59.99928639
59.99928662
59.99928686
59.99928711
59.99928735
59.9992876
59.99928785
59.99928811
59.99928837
59.99928864
59.99928891
59.99928919
59.99928947
59.99928975
59.99929004
59.99929034
59.99929064
59.99929094
59.99929125
59.99929157
59.99929189
59.99929222
59.99929256
59.9992929
59.99929325
59.9992936
59.99929396
59.99929433
59.99929471
59.99929509
59.99929548
59.99929588
59.99929629
59.99929671
59.99929713
59.99929757
59.99929801
59.99929846
59.99929892
59.9992994
59.99929988
59.99930037
59.99930087
59.99930139
59.99930191
59.99930245
59.999303
59.99930356
59.99930414
59.99930472
59.99930533
59.99930594
59.99930657
59.99930721
59.99930787
59.99930855
59.99930924
59.99930995
59.99931067
59.99931141
59.99931217
59.99931295
59.99931375
59.99931457
59.99931541
59.99931627
59.99931715
59.99931806
59.99931899
59.99931994
59.99932092
59.99932192
59.99932296
59.99932402
59.99932511
59.99932622
59.99932737
59.99932856
59.99932977
59.99933102
59.9993323
59.99933362
59.99933498
59.99933638
59.99933783
59.99933931
59.99934084
59.99934241
59.99934404
59.99934571
59.99934744
59.99934922
59.99935106
59.99935297
59.99935493
59.99935696
59.99935906
59.99936124
59.99936349
59.99936582
59.99936823
59.99937074
59.99937333
59.99937603
59.99937883
59.99938173
59.99938475
59.99938789
59.99939115
59.99939455
59.99939808
59.99940177
59.99940561
59.99940961
59.99941378
59.99941814
59.99942269
59.99942744
59.99943242
59.99943763
59.99944308
59.9994488
59.99945479
59.99946109
59.9994677
59.99947466
59.99948197
59.99948967
59.99949778
59.99950633
59.99951536
59.99952489
59.99953498
59.99954565
59.99955696
59.99956895
59.99958167
59.99959519
59.99960956
59.99962485
59.99964114
59.99965849
59.999677
59.99969674
59.9997178
59.99974026
59.99976419
59.99978962
59.99981655
59.99984492
59.99987452
59.99990491
59.99993532
59.99996442
59.99998976
60.00000788
60.00001375
60.0000039
59.99998786
6.460213153
6.459496192
6.458330627
6.457022105
6.455775551
6.454676293
6.453681012
6.453089935
6.453845702
6.456082162
6.458462195
6.460514673
6.462546891
6.464735371
6.467131856
6.469700342
6.47251622
6.475577738
6.478812621
6.482255821
6.485863857
6.489691469
6.493710946
6.497998363
6.502551736
6.507461892
6.512809126
6.518790288
6.525723449
6.533754084
6.542414429
6.550427671
6.558191336
6.566122572
6.574743868
6.584498684
6.59553855
6.607679778
6.620086638
6.630849759
6.64022348
6.648738701
6.65670512
6.664224292
6.671198993
6.677965789
6.684609634
6.690995464
6.697290614
6.703396836
6.709491545
6.715454476
6.721451426
6.727384787
6.733476712
6.739730172
6.745939993
6.752231364
6.758499079
6.764963811
6.771631386
6.77829138
6.785067608
6.791826146
6.798721851
6.805643676
6.812817367
6.820231183
6.827677399
6.835278992
6.842892836
6.850668577
6.858492349
6.866588096
6.874948634
6.883356047
6.891931448
6.90056292
6.909473485
6.918660297
6.927939142
6.93751062
6.947370554
6.957312018
6.967464722
6.977720936
6.988314338
6.999249181
7.010317385
7.021654388
7.033122837
7.044887412
7.056813506
7.069065295
7.08150272
7.094279217
7.107249306
7.120567231
7.134094018
7.147983695
7.162090601
7.17657967
7.191296073
7.206380964
7.22169773
7.237475936
7.253695836
7.270156287
7.287057045
7.304401604
7.322003063
7.340078996
7.358633345
7.377450901
7.396682123
7.416198133
7.436175076
7.456485531
7.47730092
7.498484707
7.520216763
7.542397982
7.56527806
7.588872773
7.612987235
7.637782287
7.663148803
7.689250225
7.715881614
7.742998587
7.770631224
7.79884624
7.827706754
7.85730828
7.887764668
7.919276677
7.951939806
7.985790882
8.020847229
8.057177093
8.094832168
8.133731703
8.173360667
8.212438503
8.251676467
8.291436371
8.332322561
8.374422688
8.418003297
8.463340418
8.510531795
8.559260656
8.608374761
8.658549212
8.710519642
8.764426757
8.819606094
8.876175281
8.934091685
8.993502391
9.054260347
9.116355648
9.179402809
9.243105736
9.306956415
9.371621706
9.439003371
9.509609239
9.583465313
9.660495418
9.740688526
9.824124283
9.910959806
10.00137821
10.09546384
10.19289548
10.29305313
10.39549559
10.50076531
10.60999908
10.7249306
10.84591002
10.9727256
11.10572242
11.24407936
11.38755367
11.53776441
11.69534904
11.86031281
12.03220421
12.21172293
12.40030413
12.59992207
12.81159901
13.0354041
13.27060009
13.51825607
13.78003116
14.0569815
14.3507745
14.66302738
14.99528869
15.34890309
15.72398202
16.12087411
16.54032189
16.98483633
17.45514908
17.9508463
18.46900921
19.00541513
19.55562076
20.11906852
20.69510593
21.28944503
21.95590925
22.81064568
24.11660076
26.21471335
29.16309847
33.35976846
39.24845198
44.90747691
49.17936177
52.24409055
54.46482128
56.05177422
57.16530407
57.9444545
58.52454539
58.93726239
59.18786361
59.34143697
59.43700171
59.50154714
59.55181881
59.59617149
59.63704014
59.67508476
59.71032398
59.74269629
59.77209155
59.79846081
59.82196838
59.84271886
59.86100399
59.8770725
59.89120782
59.90364712
59.91461089
59.92428429
59.93283226
59.94039539
59.94709572
59.95303915
59.95831638
59.96300743
59.96718059
59.97089564
59.97420479
59.97715387
59.97978309
59.98212757
59.98421791
59.98608068
59.98773868
59.98921101
59.99051347
59.99165976
59.99267013
59.99357126
59.99437743
59.99508779
59.99570532
59.9962307
59.99666513
59.99701053
59.99727533
59.99747994
59.99764786
59.99779208
59.99791917
59.99803254
59.99813418
59.9982255
59.99830759
59.99838139
59.99844772
59.99850727
59.99856074
59.99860873
59.99865184
59.99869061
59.99872552
59.99875697
59.99878531
59.99881087
59.99883394
59.99885475
59.99887355
59.99889052
59.99890586
59.99891972
59.99893227
59.99894361
59.99895389
59.9989632
59.99897164
59.99897931
59.99898627
59.9989926
59.99899836
59.99900361
59.9990084
59.99901277
59.99901677
59.99902044
59.9990238
59.99902689
59.99902974
59.99903237
59.9990348
59.99903705
59.99903914
59.99904109
59.99904291
59.99904461
59.99904621
59.99904771
59.99904913
59.99905047
59.99905174
59.99905295
59.9990541
59.99905521
59.99905627
59.99905729
59.99905827
59.99905921
59.99906013
59.99906102
59.99906189
59.99906273
59.99906356
59.99906437
59.99906516
59.99906593
59.9990667
59.99906745
59.99906819
59.99906892
59.99906964
59.99907035
59.99907106
59.99907176
59.99907245
59.99907314
59.99907382
59.9990745
59.99907517
59.99907584
59.9990765
59.99907717
59.99907782
59.99907848
59.99907913
59.99907978
59.99908043
59.99908107
59.99908171
59.99908235
59.99908299
59.99908363
59.99908426
59.99908489
59.99908552
59.99908615
59.99908677
59.9990874
59.99908802
59.99908864
59.99908926
59.99908988
59.9990905
59.99909111
59.99909173
59.99909234
59.99909295
59.99909356
59.99909417
59.99909478
59.99909538
59.99909599
59.99909659
59.99909719
59.99909779
59.99909839
59.99909899
59.99909959
59.99910018
59.99910078
59.99910137
59.99910196
59.99910255
59.99910314
59.99910373
59.99910432
59.99910491
59.9991055
59.99910609
59.99910667
59.99910726
59.99910784
59.99910843
59.99910901
59.99910959
59.99911018
59.99911076
59.99911134
59.99911192
59.9991125
59.99911309
59.99911367
59.99911425
59.99911483
59.99911542
59.999116
59.99911658
59.99911717
59.99911775
59.99911834
59.99911893
59.99911952
59.99912011
59.9991207
59.99912129
59.99912189
59.99912248
59.99912308
59.99912368
59.99912428
59.99912489
59.9991255
59.99912611
59.99912672
59.99912733
59.99912795
59.99912857
59.9991292
59.99912983
59.99913046
59.9991311
59.99913174
59.99913239
59.99913304
59.9991337
59.99913436
59.99913503
59.9991357
59.99913638
59.99913707
59.99913776
59.99913846
59.99913917
59.99913988
59.9991406
59.99914134
59.99914207
59.99914282
59.99914358
59.99914435
59.99914513
59.99914591
59.99914671
59.99914752
59.99914834
59.99914918
59.99915003
59.99915089
59.99915176
59.99915265
59.99915355
59.99915447
59.9991554
59.99915635
59.99915732
59.99915831
59.99915931
59.99916033
59.99916138
59.99916244
59.99916353
59.99916463
59.99916576
59.99916691
59.99916809
59.9991693
59.99917053
59.99917178
59.99917307
59.99917438
59.99917573
59.99917711
59.99917852
59.99917997
59.99918145
59.99918297
59.99918452
59.99918612
59.99918776
59.99918944
59.99919117
59.99919294
59.99919476
59.99919664
59.99919856
59.99920054
59.99920258
59.99920467
59.99920683
59.99920905
59.99921133
59.99921368
59.99921611
59.99921861
59.99922118
59.99922384
59.99922658
59.99922941
59.99923233
59.99923534
59.99923846
59.99924168
59.99924501
59.99924846
59.99925202
59.99925572
59.99925954
59.9992635
59.99926761
59.99927188
59.9992763
59.99928089
59.99928565
59.99929061
59.99929575
59.9993011
59.99930666
59.99931245
59.99931847
59.99932474
59.99933127
59.99933808
59.99934517
59.99935257
59.99936029
59.99936834
59.99937674
59.99938552
59.9993947
59.9994043
59.99941434
59.99942485
59.99943586
59.9994474
59.99945949
59.99947218
59.9994855
59.99949948
59.99951417
59.9995296
59.99954581
59.99956287
59.99958081
59.9995997
59.99961959
59.99964055
59.99966263
59.99968589
59.9997104
59.99973622
59.99976341
59.99979201
59.99982208
59.99985362
59.99988661
59.999921
59.99995664
59.99999329
60.00003053
60.00006771
60.00010383
60.00013737
60.00016602
60.00018665
60.00019432
60.00018398
60.00015019
60.0000928
60.0000251
8.244606226
8.244196947
8.243583678
8.242989337
8.242589267
8.2424974
8.242794952
8.243660578
8.245386149
8.247974226
8.250974711
8.25411232
8.257392899
8.260862666
8.264544363
8.268436604
8.272565165
8.27692944
8.281504491
8.286293499
8.291288509
8.296512695
8.301974324
8.30771348
8.313759581
8.320175716
8.327031126
8.334426856
8.342480275
8.351177861
8.360259711
8.369325222
8.37844181
8.387814958
8.397701714
8.408279797
8.419496151
8.431184445
8.442845087
8.453795395
8.463968481
8.473532591
8.482644621
8.491391327
8.499809888
8.508026223
8.516096
8.52400393
8.531809519
8.539511263
8.547174829
8.55479235
8.56242746
8.570084688
8.577848005
8.585725682
8.593658163
8.601676564
8.609770718
8.618017978
8.626422905
8.634919817
8.643531411
8.652227808
8.661058649
8.670017457
8.679183542
8.68855495
8.698064115
8.707730977
8.717520815
8.727479052
8.737596479
8.747951079
8.758543127
8.769304979
8.780262989
8.791404005
8.802807037
8.814480759
8.826379737
8.838563401
8.851029333
8.863712531
8.87664397
8.889814244
8.903305252
8.917125141
8.93121217
8.945592021
8.960234961
8.975188149
8.99042839
9.006003612
9.021887503
9.038125113
9.054688175
9.071619221
9.088891848
9.106548611
9.124558788
9.142967112
9.161742075
9.18092904
9.200518827
9.220586046
9.241127267
9.262091702
9.283538164
9.305473291
9.327854007
9.350747237
9.374156249
9.398013661
9.422351529
9.447155075
9.472488969
9.498342751
9.524778296
9.551786134
9.579438302
9.607748617
9.636818111
9.66666922
9.697253706
9.728614431
9.760733151
9.793650032
9.827301652
9.861671018
9.896784558
9.932698761
9.969486188
10.0072331
10.04603903
10.08600585
10.12720601
10.16968693
10.2134792
10.25859844
10.3050206
10.35262414
10.40112792
10.45017212
10.49994522
10.55068537
10.60271777
10.65622034
10.71139693
10.76836793
10.8271409
10.88754083
10.94928318
11.01259106
11.07774093
11.14472921
11.2134298
11.28390767
11.35617837
11.43032479
11.50623936
11.58386743
11.66306847
11.74375247
11.82593067
11.91007501
11.99701478
12.08723288
12.18092843
12.27819076
12.37910268
12.48377219
12.59233532
12.70492905
12.8216501
12.9423226
13.06677141
13.19500587
13.32746366
13.46491753
13.60829464
13.75813029
13.91475224
14.07880898
14.25094934
14.4311887
14.6192835
14.81584901
15.02132318
15.23613387
15.4611786
15.69762721
15.94691624
16.21028426
16.48862156
16.7819233
17.09128511
17.41838976
17.76505284
18.13320221
18.52419476
18.93974387
19.38190707
19.85085596
20.34674404
20.87027762
21.4227928
22.00651692
22.62007913
23.26053197
23.92408633
24.60999237
25.32499557
26.07547765
26.90026653
27.90472563
29.23280421
31.09047957
33.60486889
36.59777538
39.99759435
43.94795887
47.8237696
51.03321615
53.51022267
55.36961317
56.73785768
57.73048143
58.43011737
58.90852985
59.19730435
59.36057517
59.46401398
59.52967505
59.57647924
59.61418126
59.64850669
59.68064408
59.71115466
59.73986015
59.766551
59.79112169
59.8134531
59.83368988
59.85176169
59.86794474
59.8823499
59.89518907
59.90661148
59.91678146
59.92583325
59.93389357
59.94107388
59.94747125
59.95317481
59.95826032
59.9627973
59.96684588
59.97046009
59.97368677
59.97656808
59.97914048
59.98143662
59.98348506
59.98531113
59.98693704
59.98838266
59.98966611
59.99080505
59.9918176
59.99271953
59.99351917
59.99422122
59.99483158
59.99535558
59.99579989
59.99617269
59.99648532
59.99675154
59.99698355
59.99718892
59.99737234
59.99753684
59.99768464
59.99781751
59.99793697
59.99804435
59.99814082
59.99822751
59.99830543
59.9983755
59.99843854
59.99849532
59.99854646
59.9985926
59.99863422
59.99867176
59.9987056
59.99873614
59.99876373
59.99878865
59.99881119
59.99883158
59.99885003
59.99886674
59.99888189
59.99889562
59.9989081
59.99891943
59.99892974
59.99893912
59.99894768
59.9989555
59.99896264
59.99896918
59.99897518
59.9989807
59.99898577
59.99899046
59.99899479
59.9989988
59.99900253
59.999006
59.99900924
59.99901227
59.99901511
59.99901779
59.99902033
59.99902272
59.999025
59.99902716
59.99902923
59.99903122
59.99903312
59.99903496
59.99903673
59.99903845
59.99904011
59.99904174
59.99904331
59.99904486
59.99904637
59.99904785
59.99904931
59.99905074
59.99905215
59.99905354
59.99905492
59.99905628
59.99905763
59.99905896
59.99906029
59.99906161
59.99906291
59.99906421
59.9990655
59.99906679
59.99906807
59.99906935
59.99907062
59.99907188
59.99907315
59.99907441
59.99907566
59.99907692
59.99907817
59.99907942
59.99908066
59.99908191
59.99908315
59.99908439
59.99908563
59.99908687
59.9990881
59.99908934
59.99909057
59.9990918
59.99909303
59.99909425
59.99909548
59.9990967
59.99909792
59.99909914
59.99910036
59.99910158
59.99910279
59.99910401
59.99910522
59.99910643
59.99910764
59.99910884
59.99911004
59.99911124
59.99911244
59.99911364
59.99911483
59.99911603
59.99911721
59.9991184
59.99911959
59.99912077
59.99912195
59.99912312
59.99912429
59.99912547
59.99912663
59.9991278
59.99912896
59.99913012
59.99913128
59.99913243
59.99913358
59.99913473
59.99913587
59.99913701
59.99913815
59.99913929
59.99914042
59.99914155
59.99914268
59.9991438
59.99914492
59.99914604
59.99914715
59.99914827
59.99914938
59.99915048
59.99915159
59.99915269
59.99915379
59.99915489
59.99915598
59.99915708
59.99915817
59.99915926
59.99916035
59.99916143
59.99916252
59.9991636
59.99916468
59.99916576
59.99916684
59.99916792
59.999169
59.99917008
59.99917116
59.99917224
59.99917331
59.99917439
59.99917547
59.99917655
59.99917763
59.99917871
59.9991798
59.99918088
59.99918197
59.99918306
59.99918416
59.99918525
59.99918636
59.99918746
59.99918857
59.99918968
59.9991908
59.99919193
59.99919306
59.9991942
59.99919534
59.9991965
59.99919766
59.99919883
59.99920001
59.9992012
59.9992024
59.99920361
59.99920483
59.99920606
59.99920731
59.99920857
59.99920985
59.99921114
59.99921244
59.99921377
59.99921511
59.99921647
59.99921785
59.99921925
59.99922067
59.99922211
59.99922358
59.99922507
59.99922659
59.99922813
59.9992297
59.9992313
59.99923293
59.9992346
59.99923629
59.99923803
59.9992398
59.9992416
59.99924345
59.99924534
59.99924727
59.99924925
59.99925127
59.99925335
59.99925547
59.99925765
59.99925989
59.99926218
59.99926453
59.99926695
59.99926944
59.99927199
59.99927462
59.99927732
59.9992801
59.99928296
59.99928591
59.99928894
59.99929207
59.99929529
59.99929862
59.99930205
59.99930559
59.99930924
59.99931301
59.99931691
59.99932093
59.9993251
59.9993294
59.99933386
59.99933847
59.99934324
59.99934818
59.99935331
59.99935862
59.99936413
59.99936985
59.99937578
59.99938194
59.99938834
59.99939499
59.9994019
59.99940908
59.99941655
59.99942432
59.9994324
59.99944081
59.99944957
59.99945869
59.99946818
59.99947807
59.99948838
59.99949912
59.99951031
59.99952199
59.99953416
59.99954686
59.99956011
59.99957395
59.9995884
59.99960349
59.99961926
59.99963573
59.99965295
59.99967095
59.99968976
59.99970941
59.99972994
59.99975139
59.99977379
59.9997972
59.99982163
59.99984713
59.99987373
59.99990144
59.99993028
59.99996024
59.9999913
60.00002342
60.00005652
60.0000905
60.00012515
60.0001602
60.00019528
60.00022987
60.00026323
60.00029437
60.0003219
60.00034409
60.00035857
60.00036226
60.00035179
60.00032327
60.00027401
60.00020423
60.00012041
60.00003637
9.890931028
9.890832997
9.89077183
9.890901556
9.891357079
9.892237862
9.893623541
9.895605897
9.898271691
9.901589687
9.905377723
9.909480786
9.913841278
9.918445364
9.923288745
9.928367415
9.933686098
9.93924174
9.945021811
9.951011746
9.957215887
9.963653429
9.970338841
9.97729751
9.984558706
9.99216486
10.0001623
10.00860224
10.01751464
10.02686231
10.03652018
10.04634908
10.05635765
10.06663739
10.07730527
10.08843507
10.099997
10.1118122
10.12358501
10.1350081
10.14598193
10.15654197
10.16675911
10.17669969
10.18643845
10.19600905
10.20544478
10.2147621
10.22399498
10.23316443
10.24230714