/*--------------------------------*- C++ -*----------------------------------*\
| =========                 |                                                 |
| \\      /  F ield         | OpenFOAM: The Open Source CFD Toolbox           |
|  \\    /   O peration     | Version:  v2006                                 |
|   \\  /    A nd           | Website:  www.openfoam.com                      |
|    \\/     M anipulation  |                                                 |
\*---------------------------------------------------------------------------*/
FoamFile
{
    version     2.0;
    format      ascii;
    class       volScalarField;
    location    "0.075";
    object      theta2;
}
// * * * * * * * * * * * * * * * * * * * * * * * * * * * * * * * * * * * * * //

dimensions      [0 0 0 0 0 0 0];


internalField   nonuniform List<scalar> 
72000
(
2.286208778
2.285681609
2.284680962
2.283435558
2.28183557
2.280028319
2.277073418
2.271567993
2.270663044
2.272943579
2.273045759
2.27204456
2.271629272
2.271552764
2.27180962
2.271941594
2.272312764
2.272967215
2.273450723
2.274182642
2.27478724
2.275631377
2.27639006
2.277402505
2.278331143
2.279398016
2.280489075
2.281495333
2.282907459
2.285476847
2.291359145
2.29279712
2.294552912
2.296162157
2.297977439
2.300855829
2.305035964
2.311920226
2.327781891
2.33279253
2.336472497
2.340143179
2.343653715
2.347101437
2.349647443
2.352281154
2.35503093
2.357107018
2.359495974
2.361248128
2.363487482
2.365068862
2.367184544
2.368611263
2.370485104
2.372605879
2.374292298
2.376365596
2.377831637
2.379703226
2.382014319
2.383757593
2.38593716
2.3875513
2.389753624
2.391372189
2.393470433
2.395916369
2.397874575
2.400331862
2.402231067
2.404586769
2.406510266
2.408872925
2.411544776
2.413776788
2.41647232
2.418528477
2.421117159
2.424024386
2.426464848
2.429216519
2.432481271
2.435108661
2.438232302
2.440881627
2.443948477
2.447467392
2.450490936
2.45411841
2.457232742
2.460863192
2.46402919
2.467873026
2.471223322
2.475218276
2.478692684
2.482791788
2.486559824
2.490784547
2.494659832
2.499042437
2.503003108
2.507528827
2.511484107
2.516014865
2.520986823
2.525347674
2.530200527
2.535501325
2.540215689
2.545452951
2.551062431
2.556234257
2.561979902
2.567300378
2.573116148
2.578664284
2.584689542
2.590337111
2.596610203
2.602445143
2.608894492
2.615864313
2.622451432
2.629640932
2.636508226
2.644225258
2.651860764
2.659369786
2.66693911
2.674715046
2.682459891
2.690551638
2.698629909
2.707896167
2.71811692
2.729132621
2.740962401
2.753800754
2.768181633
2.785695761
2.811918214
2.820924384
2.831154066
2.841043565
2.851581218
2.86200664
2.875356768
2.890874714
2.909713173
2.937084544
2.948499989
2.960501881
2.977626453
3.002600413
3.020155552
3.039239463
3.058444738
3.078898474
3.099725884
3.12184531
3.144589821
3.168792993
3.183664018
3.185906712
3.201160387
3.221791725
3.245443637
3.270882322
3.297807005
3.32622207
3.356359527
3.388889039
3.425576884
3.466027961
3.507540287
3.543620444
3.576443539
3.603123388
3.643148709
3.693841311
3.731635726
3.783995434
3.827127119
3.864103138
3.911948034
3.967563409
4.032267763
4.090988935
4.148067066
4.202149767
4.268850986
4.344436896
4.429734308
4.509964477
4.590950515
4.685178765
4.778500536
4.874505322
4.972774671
5.084150251
5.203583173
5.320451055
5.446074454
5.575344286
5.705510267
5.84048204
5.981045256
6.125598643
6.272077344
6.416862344
6.554176507
6.674006263
6.767306064
6.82177292
6.832647364
6.782131361
6.690617821
6.914114342
8.850621467
21.75532461
33.63449862
41.07368246
45.78363345
49.03698288
51.48986665
53.43540815
55.02664451
56.44423844
57.53602832
58.23114469
58.66500787
58.94952005
59.13117905
59.25972871
59.36038932
59.44331544
59.5136131
59.57432336
59.62751933
59.67480919
59.71737336
59.7548052
59.78717501
59.81498491
59.83884735
59.85935524
59.87702715
59.89230413
59.9055542
59.91708313
59.92714441
59.93595028
59.94367786
59.95047417
59.95646338
59.96175088
59.96642694
59.97056864
59.97424205
59.97750415
59.98040432
59.98298551
59.98528544
59.98733773
59.9891739
59.99082725
59.99227764
59.99352282
59.99461494
59.99560168
59.99648628
59.9972731
59.99796294
59.99855044
59.99901141
59.99927019
59.99935906
59.99940471
59.99943644
59.99946226
59.99948469
59.99950456
59.99952236
59.99953836
59.99955275
59.9995657
59.99957736
59.99958788
59.99959732
59.99960573
59.99961326
59.99962001
59.99962608
59.99963155
59.99963646
59.99964089
59.99964488
59.99964847
59.99965171
59.99965462
59.99965725
59.99965962
59.99966176
59.99966368
59.99966542
59.99966698
59.99966839
59.99966966
59.99967081
59.99967185
59.99967278
59.99967363
59.99967439
59.99967508
59.9996757
59.99967626
59.99967677
59.99967722
59.99967764
59.99967801
59.99967835
59.99967866
59.99967893
59.99967918
59.99967941
59.99967962
59.9996798
59.99967997
59.99968012
59.99968026
59.99968038
59.9996805
59.9996806
59.99968069
59.99968077
59.99968085
59.99968092
59.99968098
59.99968103
59.99968108
59.99968112
59.99968116
59.9996812
59.99968123
59.99968126
59.99968128
59.9996813
59.99968132
59.99968134
59.99968135
59.99968136
59.99968137
59.99968138
59.99968139
59.99968139
59.99968139
59.9996814
59.9996814
59.9996814
59.99968139
59.99968139
59.99968139
59.99968138
59.99968137
59.99968137
59.99968136
59.99968135
59.99968134
59.99968133
59.99968132
59.99968131
59.9996813
59.99968129
59.99968128
59.99968126
59.99968125
59.99968124
59.99968122
59.99968121
59.99968119
59.99968118
59.99968116
59.99968115
59.99968113
59.99968112
59.9996811
59.99968109
59.99968107
59.99968105
59.99968104
59.99968102
59.99968101
59.99968099
59.99968098
59.99968096
59.99968094
59.99968093
59.99968091
59.9996809
59.99968088
59.99968087
59.99968086
59.99968084
59.99968083
59.99968082
59.9996808
59.99968079
59.99968078
59.99968077
59.99968076
59.99968075
59.99968074
59.99968073
59.99968073
59.99968072
59.99968072
59.99968071
59.99968071
59.9996807
59.9996807
59.9996807
59.9996807
59.9996807
59.9996807
59.99968071
59.99968071
59.99968072
59.99968072
59.99968073
59.99968074
59.99968075
59.99968076
59.99968078
59.99968079
59.99968081
59.99968083
59.99968085
59.99968087
59.99968089
59.99968091
59.99968094
59.99968097
59.999681
59.99968103
59.99968106
59.9996811
59.99968113
59.99968117
59.99968121
59.99968125
59.9996813
59.99968135
59.9996814
59.99968145
59.9996815
59.99968156
59.99968162
59.99968168
59.99968174
59.99968181
59.99968187
59.99968194
59.99968202
59.99968209
59.99968217
59.99968225
59.99968234
59.99968242
59.99968251
59.99968261
59.9996827
59.9996828
59.9996829
59.99968301
59.99968311
59.99968322
59.99968334
59.99968346
59.99968358
59.9996837
59.99968383
59.99968396
59.9996841
59.99968424
59.99968438
59.99968453
59.99968468
59.99968483
59.99968499
59.99968515
59.99968532
59.99968549
59.99968566
59.99968584
59.99968603
59.99968622
59.99968641
59.99968661
59.99968682
59.99968702
59.99968724
59.99968746
59.99968768
59.99968791
59.99968815
59.99968839
59.99968864
59.9996889
59.99968916
59.99968942
59.9996897
59.99968998
59.99969027
59.99969056
59.99969086
59.99969117
59.99969149
59.99969182
59.99969215
59.9996925
59.99969285
59.99969321
59.99969358
59.99969396
59.99969435
59.99969475
59.99969516
59.99969558
59.99969602
59.99969646
59.99969692
59.99969739
59.99969788
59.99969838
59.9996989
59.99969943
59.99969998
59.99970054
59.99970112
59.99970173
59.99970235
59.99970299
59.99970366
59.99970435
59.99970506
59.9997058
59.99970657
59.99970737
59.99970819
59.99970905
59.99970994
59.99971087
59.99971183
59.99971284
59.99971389
59.99971498
59.99971612
59.99971731
59.99971856
59.99971987
59.99972124
59.99972268
59.99972419
59.99972578
59.99972745
59.99972921
59.99973107
59.99973303
59.99973511
59.9997373
59.99973962
59.99974208
59.9997447
59.99974748
59.99975045
59.9997536
59.99975697
59.99976058
59.99976443
59.99976856
59.99977299
59.99977775
59.99978286
59.99978837
59.9997943
59.99980068
59.99980755
59.99981493
59.99982284
59.99983126
59.99984014
59.99984934
59.9998586
59.9998674
59.99987493
59.99988033
59.99988508
59.99990998
4.501515874
4.500545634
4.498875352
4.496935961
4.494911678
4.492832078
4.490113247
4.487156056
4.486750503
4.489440094
4.49133835
4.491852755
4.492345796
4.493089542
4.49411684
4.495225504
4.496634524
4.498329831
4.500097075
4.502098874
4.504167163
4.50647397
4.508860978
4.511530894
4.51435406
4.517467312
4.520896043
4.524883551
4.530172575
4.537488396
4.546492679
4.552787483
4.558488205
4.564167387
4.570689969
4.578910493
4.589163148
4.601639083
4.615779762
4.625686906
4.633430841
4.640274318
4.646644155
4.652639305
4.657788671
4.662867789
4.667963083
4.672539551
4.677175077
4.681401446
4.685789674
4.689821815
4.694037003
4.697917703
4.702108454
4.706603319
4.710777601
4.71515952
4.719228446
4.72364054
4.72840185
4.732872569
4.737598226
4.742067662
4.746808537
4.751285917
4.756165199
4.761417067
4.766407041
4.771688114
4.776729319
4.782065586
4.787148273
4.792643276
4.798531051
4.804156729
4.810053686
4.815691007
4.821729254
4.828147389
4.834286796
4.840820833
4.847757595
4.854449685
4.861447789
4.868222655
4.875445263
4.88312551
4.890612316
4.898479203
4.90619949
4.914333583
4.922351917
4.930817662
4.939175637
4.947996508
4.956718556
4.965906194
4.975007315
4.984583805
4.994071977
5.004042032
5.013910384
5.024231027
5.034419243
5.045133156
5.05634301
5.067365903
5.07887341
5.09086601
5.102674383
5.115003418
5.127874694
5.140609182
5.153822196
5.166971345
5.180650301
5.194308781
5.208521183
5.222728413
5.237509409
5.252301275
5.267805615
5.284028289
5.300321317
5.317308059
5.334483922
5.352493996
5.370723641
5.389143155
5.407830466
5.426866084
5.446314596
5.466264883
5.486885425
5.508499656
5.531192394
5.554955845
5.579835692
5.605964742
5.63358205
5.662968143
5.693700349
5.720843417
5.747569089
5.774096939
5.801723377
5.830080527
5.860000938
5.891809944
5.925967265
5.962714753
5.996921627
6.031401653
6.068368467
6.108049371
6.147535115
6.187993212
6.229205479
6.271605472
6.314814154
6.359226245
6.404043801
6.448847892
6.491118265
6.5315091
6.575777144
6.62381106
6.674945338
6.72873156
6.785003323
6.843796311
6.905310622
6.969888168
7.037805131
7.108623318
7.180999699
7.253258416
7.326425548
7.401892522
7.483810357
7.571712711
7.662171801
7.7573645
7.85369737
7.952431713
8.057373811
8.169012144
8.286756844
8.407784197
8.532621376
8.663024299
8.802894982
8.952956169
9.112168025
9.277757574
9.451231483
9.635197238
9.828581151
10.03268064
10.24932409
10.48152969
10.72855779
10.98941418
11.26544771
11.55693279
11.86449514
12.18978737
12.53321195
12.89403288
13.26789275
13.6491449
14.03054094
14.4081016
14.77222861
15.12683528
15.49887773
15.98665346
16.94274926
18.93505855
23.27466123
32.15297386
40.35788117
46.10215995
49.9484573
52.59505632
54.46581717
55.85404293
56.93880168
57.79222831
58.42745296
58.83145837
59.08203145
59.2447335
59.35443494
59.43547264
59.50129072
59.55794037
59.60824331
59.65354676
59.69462459
59.73169538
59.76488017
59.7942012
59.8198215
59.84210353
59.86144758
59.87825752
59.892889
59.9056537
59.91681553
59.92659926
59.93519424
59.9427601
59.94943275
59.95532905
59.96054673
59.96517007
59.96927204
59.97291559
59.97615517
59.9790381
59.98160553
59.98389337
59.98593298
59.98775166
59.98937223
59.99081143
59.99207142
59.99316549
59.99413106
59.99500536
59.99578335
59.99646683
59.99705375
59.99753978
59.99791271
59.99816349
59.99831928
59.99843046
59.99851961
59.99859596
59.99866331
59.99872344
59.99877741
59.99882591
59.99886954
59.99890878
59.99894406
59.99897573
59.99900411
59.99902951
59.99905231
59.99907281
59.99909127
59.99910788
59.99912286
59.99913637
59.99914855
59.99915953
59.99916945
59.9991784
59.99918648
59.99919378
59.99920038
59.99920634
59.99921173
59.99921661
59.99922103
59.99922504
59.99922867
59.99923196
59.99923495
59.99923766
59.99924013
59.99924238
59.99924443
59.9992463
59.99924801
59.99924958
59.99925101
59.99925232
59.99925353
59.99925464
59.99925567
59.99925662
59.99925749
59.99925831
59.99925906
59.99925977
59.99926042
59.99926104
59.99926162
59.99926216
59.99926267
59.99926316
59.99926361
59.99926405
59.99926446
59.99926486
59.99926524
59.9992656
59.99926595
59.99926628
59.9992666
59.99926692
59.99926722
59.99926751
59.9992678
59.99926808
59.99926835
59.99926861
59.99926887
59.99926913
59.99926938
59.99926962
59.99926986
59.9992701
59.99927033
59.99927056
59.99927079
59.99927101
59.99927123
59.99927145
59.99927166
59.99927188
59.99927209
59.9992723
59.9992725
59.99927271
59.99927291
59.99927311
59.99927331
59.99927351
59.99927371
59.9992739
59.99927409
59.99927429
59.99927448
59.99927467
59.99927486
59.99927504
59.99927523
59.99927542
59.9992756
59.99927578
59.99927597
59.99927615
59.99927633
59.99927651
59.99927669
59.99927687
59.99927705
59.99927723
59.9992774
59.99927758
59.99927776
59.99927793
59.99927811
59.99927828
59.99927846
59.99927864
59.99927881
59.99927899
59.99927916
59.99927934
59.99927951
59.99927969
59.99927987
59.99928004
59.99928022
59.9992804
59.99928058
59.99928076
59.99928094
59.99928112
59.9992813
59.99928148
59.99928167
59.99928185
59.99928204
59.99928223
59.99928242
59.99928261
59.9992828
59.99928299
59.99928319
59.99928338
59.99928358
59.99928378
59.99928399
59.99928419
59.9992844
59.99928461
59.99928482
59.99928504
59.99928526
59.99928548
59.9992857
59.99928593
59.99928616
59.99928639
59.99928662
59.99928686
59.99928711
59.99928735
59.9992876
59.99928785
59.99928811
59.99928837
59.99928864
59.99928891
59.99928919
59.99928947
59.99928975
59.99929004
59.99929034
59.99929064
59.99929094
59.99929125
59.99929157
59.99929189
59.99929222
59.99929256
59.9992929
59.99929325
59.9992936
59.99929396
59.99929433
59.99929471
59.99929509
59.99929548
59.99929588
59.99929629
59.99929671
59.99929713
59.99929757
59.99929801
59.99929846
59.99929892
59.9992994
59.99929988
59.99930037
59.99930087
59.99930139
59.99930191
59.99930245
59.999303
59.99930356
59.99930414
59.99930472
59.99930533
59.99930594
59.99930657
59.99930721
59.99930787
59.99930855
59.99930924
59.99930995
59.99931067
59.99931141
59.99931217
59.99931295
59.99931375
59.99931457
59.99931541
59.99931627
59.99931715
59.99931806
59.99931899
59.99931994
59.99932092
59.99932192
59.99932296
59.99932402
59.99932511
59.99932622
59.99932737
59.99932856
59.99932977
59.99933102
59.9993323
59.99933362
59.99933498
59.99933638
59.99933783
59.99933931
59.99934084
59.99934241
59.99934404
59.99934571
59.99934744
59.99934922
59.99935106
59.99935297
59.99935493
59.99935696
59.99935906
59.99936124
59.99936349
59.99936582
59.99936823
59.99937074
59.99937333
59.99937603
59.99937883
59.99938173
59.99938475
59.99938789
59.99939115
59.99939455
59.99939808
59.99940177
59.99940561
59.99940961
59.99941378
59.99941814
59.99942269
59.99942744
59.99943242
59.99943763
59.99944308
59.9994488
59.99945479
59.99946109
59.9994677
59.99947466
59.99948197
59.99948967
59.99949778
59.99950633
59.99951536
59.99952489
59.99953498
59.99954565
59.99955696
59.99956895
59.99958167
59.99959519
59.99960956
59.99962485
59.99964114
59.99965849
59.999677
59.99969674
59.9997178
59.99974026
59.99976419
59.99978962
59.99981655
59.99984492
59.99987452
59.99990491
59.99993532
59.99996442
59.99998976
60.00000788
60.00001375
60.0000039
59.99998786
6.460205902
6.459488879
6.458323401
6.457015264
6.455769108
6.45466978
6.45367361
6.453082421
6.453840991
6.45607902
6.458459096
6.4605115
6.4625439
6.46473249
6.46712903
6.469697684
6.472514055
6.475576079
6.478811355
6.482254817
6.485863048
6.489690688
6.4937101
6.497997545
6.502551431
6.507461508
6.512808674
6.5187902
6.525723934
6.533755156
6.542416002
6.550429375
6.558192955
6.566124306
6.574745893
6.584501068
6.595541174
6.607682325
6.620088783
6.630851367
6.640225386
6.648741328
6.656708018
6.664227413
6.671201655
6.677967316
6.68460983
6.690995316
6.697290749
6.703397026
6.709492201
6.715455081
6.721452074
6.727385256
6.733477276
6.739730518
6.745940263
6.752231071
6.75849776
6.764962498
6.77163044
6.778290589
6.785067357
6.791826327
6.798721434
6.805643669
6.812818473
6.820233156
6.827679466
6.83528032
6.84289294
6.850667831
6.858491635
6.86658805
6.874948938
6.883356795
6.891931921
6.900562708
6.90947357
6.918660534
6.927939465
6.937511479
6.947372251
6.957313942
6.967466261
6.977722096
6.988314724
6.999249195
7.010316594
7.021654303
7.033122844
7.044886805
7.056813449
7.06906514
7.081501574
7.094277667
7.107248198
7.120567856
7.134095397
7.147985014
7.162090812
7.176577935
7.19129404
7.206378833
7.221696085
7.237474469
7.253694369
7.270155222
7.287056522
7.304400941
7.32200187
7.340076852
7.358631219
7.377448527
7.396680367
7.416197669
7.436175325
7.456485923
7.477301342
7.498485317
7.520217645
7.542398508
7.565277486
7.58887085
7.612984273
7.637780265
7.663147506
7.689249525
7.715881405
7.742998296
7.77063089
7.798845851
7.827705998
7.857306952
7.887763713
7.919276189
7.951939706
7.985791027
8.020847471
8.057177302
8.094832259
8.133731651
8.173360454
8.212438081
8.251676425
8.291437642
8.33232467
8.37442485
8.418004915
8.463341207
8.510531762
8.559260013
8.60837373
8.658547845
8.710518464
8.764426069
8.819606247
8.876175826
8.934092389
8.993502725
9.054260747
9.116355926
9.179403302
9.243105908
9.306956393
9.371621679
9.439003383
9.509609232
9.583465219
9.660495213
9.740688242
9.824124
9.910959627
10.0013782
10.09546392
10.1928954
10.293053
10.39549547
10.50076524
10.60999909
10.7249307
10.84591019
10.97272583
11.10572268
11.24407959
11.38755384
11.53776449
11.69534902
11.86031268
12.03220397
12.21172259
12.4003037
12.59992158
12.81159846
13.0354035
13.27059945
13.5182554
13.78003048
14.05698083
14.35077386
14.66302679
14.99528811
15.34890242
15.72398111
16.12087292
16.54032096
16.98483574
17.4551487
17.95084603
18.46900901
19.00541498
19.5556207
20.11906859
20.69510616
21.28944543
21.95590972
22.81064601
24.11660046
26.21471246
29.16309725
33.35976562
39.24844695
44.90747112
49.17935642
52.24408611
54.46481784
56.05177173
57.16530232
57.94445329
58.52454452
58.93726184
59.18786329
59.34143679
59.4370016
59.50154708
59.55181876
59.59617145
59.6370401
59.67508473
59.71032395
59.74269627
59.77209153
59.7984608
59.82196837
59.84271885
59.86100399
59.8770725
59.89120782
59.90364712
59.91461089
59.92428429
59.93283226
59.9403954
59.94709573
59.95303915
59.95831639
59.96300743
59.96718059
59.97089564
59.97420479
59.97715388
59.97978309
59.98212758
59.98421791
59.98608069
59.98773869
59.98921102
59.99051347
59.99165977
59.99267014
59.99357126
59.99437743
59.99508779
59.99570532
59.9962307
59.99666513
59.99701053
59.99727533
59.99747994
59.99764786
59.99779208
59.99791917
59.99803254
59.99813418
59.9982255
59.99830759
59.99838139
59.99844772
59.99850727
59.99856074
59.99860873
59.99865184
59.99869061
59.99872552
59.99875697
59.99878531
59.99881087
59.99883394
59.99885475
59.99887355
59.99889052
59.99890586
59.99891972
59.99893227
59.99894361
59.99895389
59.9989632
59.99897164
59.99897931
59.99898627
59.9989926
59.99899836
59.99900361
59.9990084
59.99901277
59.99901677
59.99902044
59.9990238
59.99902689
59.99902974
59.99903237
59.9990348
59.99903705
59.99903914
59.99904109
59.99904291
59.99904461
59.99904621
59.99904771
59.99904913
59.99905047
59.99905174
59.99905295
59.9990541
59.99905521
59.99905627
59.99905729
59.99905827
59.99905921
59.99906013
59.99906102
59.99906189
59.99906273
59.99906356
59.99906437
59.99906516
59.99906593
59.9990667
59.99906745
59.99906819
59.99906892
59.99906964
59.99907035
59.99907106
59.99907176
59.99907245
59.99907314
59.99907382
59.9990745
59.99907517
59.99907584
59.9990765
59.99907717
59.99907782
59.99907848
59.99907913
59.99907978
59.99908043
59.99908107
59.99908171
59.99908235
59.99908299
59.99908363
59.99908426
59.99908489
59.99908552
59.99908615
59.99908677
59.9990874
59.99908802
59.99908864
59.99908926
59.99908988
59.9990905
59.99909111
59.99909173
59.99909234
59.99909295
59.99909356
59.99909417
59.99909478
59.99909538
59.99909599
59.99909659
59.99909719
59.99909779
59.99909839
59.99909899
59.99909959
59.99910018
59.99910078
59.99910137
59.99910196
59.99910255
59.99910314
59.99910373
59.99910432
59.99910491
59.9991055
59.99910609
59.99910667
59.99910726
59.99910784
59.99910843
59.99910901
59.99910959
59.99911018
59.99911076
59.99911134
59.99911192
59.9991125
59.99911309
59.99911367
59.99911425
59.99911483
59.99911542
59.999116
59.99911658
59.99911717
59.99911775
59.99911834
59.99911893
59.99911952
59.99912011
59.9991207
59.99912129
59.99912189
59.99912248
59.99912308
59.99912368
59.99912428
59.99912489
59.9991255
59.99912611
59.99912672
59.99912733
59.99912795
59.99912857
59.9991292
59.99912983
59.99913046
59.9991311
59.99913174
59.99913239
59.99913304
59.9991337
59.99913436
59.99913503
59.9991357
59.99913638
59.99913707
59.99913776
59.99913846
59.99913917
59.99913988
59.9991406
59.99914134
59.99914207
59.99914282
59.99914358
59.99914435
59.99914513
59.99914591
59.99914671
59.99914752
59.99914834
59.99914918
59.99915003
59.99915089
59.99915176
59.99915265
59.99915355
59.99915447
59.9991554
59.99915635
59.99915732
59.99915831
59.99915931
59.99916033
59.99916138
59.99916244
59.99916353
59.99916463
59.99916576
59.99916691
59.99916809
59.9991693
59.99917053
59.99917178
59.99917307
59.99917438
59.99917573
59.99917711
59.99917852
59.99917997
59.99918145
59.99918297
59.99918452
59.99918612
59.99918776
59.99918944
59.99919117
59.99919294
59.99919476
59.99919664
59.99919856
59.99920054
59.99920258
59.99920467
59.99920683
59.99920905
59.99921133
59.99921368
59.99921611
59.99921861
59.99922118
59.99922384
59.99922658
59.99922941
59.99923233
59.99923534
59.99923846
59.99924168
59.99924501
59.99924846
59.99925202
59.99925572
59.99925954
59.9992635
59.99926761
59.99927188
59.9992763
59.99928089
59.99928565
59.99929061
59.99929575
59.9993011
59.99930666
59.99931245
59.99931847
59.99932474
59.99933127
59.99933808
59.99934517
59.99935257
59.99936029
59.99936834
59.99937674
59.99938552
59.9993947
59.9994043
59.99941434
59.99942485
59.99943586
59.9994474
59.99945949
59.99947218
59.9994855
59.99949948
59.99951417
59.9995296
59.99954581
59.99956287
59.99958081
59.9995997
59.99961959
59.99964055
59.99966263
59.99968589
59.9997104
59.99973622
59.99976341
59.99979201
59.99982208
59.99985362
59.99988661
59.999921
59.99995664
59.99999329
60.00003053
60.00006771
60.00010383
60.00013737
60.00016602
60.00018665
60.00019432
60.00018398
60.00015019
60.0000928
60.0000251
8.244601466
8.244192057
8.243578686
8.242984381
8.242584424
8.242492593
8.24279005
8.243655966
8.245382676
8.247971735
8.250972448
8.254110017
8.257390589
8.260860387
8.264542144
8.268434518
8.272563355
8.276927965
8.28150333
8.286292578
8.291287759
8.296512024
8.301973678
8.307712917
8.313759262
8.320175515
8.327031078
8.33442714
8.342480993
8.351179015
8.360261217
8.369326895
8.378443525
8.387816765
8.397703681
8.408281906
8.419498372
8.431186615
8.442847042
8.453797143
8.463970355
8.473534785
8.482647018
8.491393763
8.499811963
8.508027618
8.516096723
8.524004418
8.531810064
8.539511886
8.547175564
8.554793024
8.562428056
8.570085192
8.577848504
8.58572611
8.593658465
8.601676518
8.609770221
8.618017361
8.626422346
8.63491927
8.643530984
8.652227485
8.661058309
8.670017481
8.679184226
8.68855618
8.698065463
8.707731979
8.717521199
8.72747893
8.737596218
8.74795098
8.758543217
8.769305242
8.780263164
8.79140398
8.802807125
8.814481062
8.826380315
8.838564388
8.851030737
8.863714041
8.876645203
8.889815063
8.903305492
8.917124912
8.931211556
8.945591555
8.960234443
8.975187434
8.990427667
9.006002823
9.021886507
9.038124103
9.054687615
9.071619464
9.088892629
9.106549288
9.124558852
9.142966244
9.161740816
9.180927658
9.200517551
9.220584904
9.241126174
9.262090787
9.283537373
9.305472369
9.327852718
9.350745503
9.374154453
9.398011958
9.422350267
9.447154432
9.472488701
9.498342633
9.524778242
9.551786225
9.579438512
9.607748551
9.636817304
9.666667531
9.697251401
9.728612256
9.760731316
9.793648568
9.82730055
9.861670181
9.896783944
9.932698308
9.969485705
10.0072325
10.0460386
10.08600567
10.12720608
10.16968718
10.21347954
10.25859877
10.30502088
10.35262438
10.40112821
10.45017258
10.49994614
10.55068702
10.60271985
10.65622237
10.71139846
10.76836876
10.82714099
10.88754033
10.94928229
11.01259003
11.07774008
11.1447288
11.21342994
11.28390818
11.356179
11.43032528
11.50623973
11.58386765
11.66306862
11.74375247
11.82593061
11.91007496
11.99701476
12.08723283
12.18092829
12.27819052
12.37910236
12.48377185
12.59233503
12.70492885
12.82164997
12.94232244
13.06677123
13.19500573
13.32746357
13.46491753
13.60829473
13.75813045
13.91475247
14.07880923
14.25094957
14.43118887
14.61928358
14.81584898
15.02132303
15.2361336
15.46117822
15.69762673
15.94691567
16.21028361
16.48862085
16.78192254
17.09128431
17.41838894
17.76505202
18.13320141
18.52419399
18.93974312
19.38190628
19.85085508
20.34674308
20.87027678
21.42279212
22.00651638
22.62007867
23.26053158
23.924086
24.60999212
25.32499541
26.07547759
26.90026646
27.90472542
29.23280359
31.0904782
33.60486701
36.59777351
39.99759183
43.94795493
47.82376503
51.03321182
53.51021905
55.36961032
56.73785553
57.73047994
58.43011637
58.90852921
59.19730399
59.36057496
59.46401387
59.52967499
59.57647919
59.61418123
59.64850666
59.68064406
59.71115464
59.73986014
59.76655099
59.79112168
59.8134531
59.83368987
59.85176168
59.86794473
59.8823499
59.89518907
59.90661148
59.91678147
59.92583325
59.93389357
59.94107388
59.94747125
59.95317482
59.95826033
59.96279731
59.96684588
59.97046009
59.97368677
59.97656808
59.97914048
59.98143663
59.98348507
59.98531113
59.98693704
59.98838266
59.98966611
59.99080505
59.99181761
59.99271953
59.99351917
59.99422122
59.99483158
59.99535559
59.99579989
59.99617269
59.99648532
59.99675154
59.99698355
59.99718892
59.99737234
59.99753684
59.99768464
59.99781751
59.99793697
59.99804435
59.99814082
59.99822751
59.99830543
59.9983755
59.99843854
59.99849532
59.99854646
59.9985926
59.99863422
59.99867176
59.9987056
59.99873614
59.99876373
59.99878865
59.99881119
59.99883158
59.99885003
59.99886674
59.99888189
59.99889562
59.9989081
59.99891943
59.99892974
59.99893912
59.99894768
59.9989555
59.99896264
59.99896918
59.99897518
59.9989807
59.99898577
59.99899046
59.99899479
59.9989988
59.99900253
59.999006
59.99900924
59.99901227
59.99901511
59.99901779
59.99902033
59.99902272
59.999025
59.99902716
59.99902923
59.99903122
59.99903312
59.99903496
59.99903673
59.99903845
59.99904011
59.99904174
59.99904331
59.99904486
59.99904637
59.99904785
59.99904931
59.99905074
59.99905215
59.99905354
59.99905492
59.99905628
59.99905763
59.99905896
59.99906029
59.99906161
59.99906291
59.99906421
59.9990655
59.99906679
59.99906807
59.99906935
59.99907062
59.99907188
59.99907315
59.99907441
59.99907566
59.99907692
59.99907817
59.99907942
59.99908066
59.99908191
59.99908315
59.99908439
59.99908563
59.99908687
59.9990881
59.99908934
59.99909057
59.9990918
59.99909303
59.99909425
59.99909548
59.9990967
59.99909792
59.99909914
59.99910036
59.99910158
59.99910279
59.99910401
59.99910522
59.99910643
59.99910764
59.99910884
59.99911004
59.99911124
59.99911244
59.99911364
59.99911483
59.99911603
59.99911721
59.9991184
59.99911959
59.99912077
59.99912195
59.99912312
59.99912429
59.99912547
59.99912663
59.9991278
59.99912896
59.99913012
59.99913128
59.99913243
59.99913358
59.99913473
59.99913587
59.99913701
59.99913815
59.99913929
59.99914042
59.99914155
59.99914268
59.9991438
59.99914492
59.99914604
59.99914715
59.99914827
59.99914938
59.99915048
59.99915159
59.99915269
59.99915379
59.99915489
59.99915598
59.99915708
59.99915817
59.99915926
59.99916035
59.99916143
59.99916252
59.9991636
59.99916468
59.99916576
59.99916684
59.99916792
59.999169
59.99917008
59.99917116
59.99917224
59.99917331
59.99917439
59.99917547
59.99917655
59.99917763
59.99917871
59.9991798
59.99918088
59.99918197
59.99918306
59.99918416
59.99918525
59.99918636
59.99918746
59.99918857
59.99918968
59.9991908
59.99919193
59.99919306
59.9991942
59.99919534
59.9991965
59.99919766
59.99919883
59.99920001
59.9992012
59.9992024
59.99920361
59.99920483
59.99920606
59.99920731
59.99920857
59.99920985
59.99921114
59.99921244
59.99921377
59.99921511
59.99921647
59.99921785
59.99921925
59.99922067
59.99922211
59.99922358
59.99922507
59.99922659
59.99922813
59.9992297
59.9992313
59.99923293
59.9992346
59.99923629
59.99923803
59.9992398
59.9992416
59.99924345
59.99924534
59.99924727
59.99924925
59.99925127
59.99925335
59.99925547
59.99925765
59.99925989
59.99926218
59.99926453
59.99926695
59.99926944
59.99927199
59.99927462
59.99927732
59.9992801
59.99928296
59.99928591
59.99928894
59.99929207
59.99929529
59.99929862
59.99930205
59.99930559
59.99930924
59.99931301
59.99931691
59.99932093
59.9993251
59.9993294
59.99933386
59.99933847
59.99934324
59.99934818
59.99935331
59.99935862
59.99936413
59.99936985
59.99937578
59.99938194
59.99938834
59.99939499
59.9994019
59.99940908
59.99941655
59.99942432
59.9994324
59.99944081
59.99944957
59.99945869
59.99946818
59.99947807
59.99948838
59.99949912
59.99951031
59.99952199
59.99953416
59.99954686
59.99956011
59.99957395
59.9995884
59.99960349
59.99961926
59.99963573
59.99965295
59.99967095
59.99968976
59.99970941
59.99972994
59.99975139
59.99977379
59.9997972
59.99982163
59.99984713
59.99987373
59.99990144
59.99993028
59.99996024
59.9999913
60.00002342
60.00005652
60.0000905
60.00012515
60.0001602
60.00019528
60.00022987
60.00026323
60.00029437
60.0003219
60.00034409
60.00035857
60.00036226
60.00035179
60.00032327
60.00027401
60.00020423
60.00012041
60.00003637
9.890928
9.89082983
9.890768509
9.890898139
9.891353651
9.892234481
9.893620273
9.895602944
9.898269308
9.901587799
9.905376013
9.90947908
9.913839555
9.91844365
9.923287077
9.928365846
9.933684703
9.939240571
9.945020877
9.951011006
9.957215307
9.963652959
9.970338451
9.977297225
9.984558589
9.992164908
10.00016256
10.00860278
10.01751551
10.02686349
10.03652161
10.04635065
10.05635929
10.06663909
10.07730706
10.08843695
10.09999894
10.1118141
10.12358679
10.13500979
10.14598364
10.15654381
10.16676103
10.17670159
10.18644016
10.19601041
10.2054458
10.21476297
10.2239958
10.23316523
10.24230789
10.25144338