/*--------------------------------*- C++ -*----------------------------------*\
| =========                 |                                                 |
| \\      /  F ield         | OpenFOAM: The Open Source CFD Toolbox           |
|  \\    /   O peration     | Version:  v2006                                 |
|   \\  /    A nd           | Website:  www.openfoam.com                      |
|    \\/     M anipulation  |                                                 |
\*---------------------------------------------------------------------------*/
FoamFile
{
    version     2.0;
    format      ascii;
    class       volScalarField;
    location    "0.075";
    object      theta3_0;
}
// * * * * * * * * * * * * * * * * * * * * * * * * * * * * * * * * * * * * * //

dimensions      [0 0 0 0 0 0 0];


internalField   nonuniform List<scalar> 
72000
(
2.128658816
2.128402175
2.127777244
2.125607707
2.121577067
2.115476442
2.109566089
2.104389394
2.094214189
2.084203511
2.07885635
2.07682599
2.074994945
2.073378638
2.071942224
2.070866723
2.069893626
2.069005938
2.068397092
2.06775173
2.06732032
2.066909706
2.066720233
2.066505958
2.066534884
2.06670821
2.067109381
2.067865195
2.068081933
2.066395982
2.060865749
2.062308205
2.063529696
2.064785463
2.065589345
2.065053488
2.063269665
2.05933363
2.050772253
2.05138697
2.053004214
2.054227668
2.055179355
2.055963587
2.056659247
2.057185185
2.057543671
2.058025716
2.058225566
2.058574745
2.058750824
2.058975165
2.059064629
2.059222689
2.059355781
2.059386913
2.059542196
2.059529782
2.059613219
2.059662963
2.059678253
2.059784974
2.059745583
2.059816286
2.059765899
2.059851325
2.059896715
2.059863782
2.059937977
2.059866202
2.059907727
2.059889833
2.059935745
2.059969289
2.059911042
2.060011768
2.05994307
2.060000616
2.060037683
2.059949457
2.059995336
2.060026584
2.059996123
2.060093253
2.060010732
2.060116387
2.06008554
2.060026828
2.06011507
2.060063792
2.06012325
2.060025275
2.060105633
2.060074322
2.060094229
2.059992833
2.060073173
2.05998172
2.060043319
2.059982549
2.060007738
2.059890125
2.059930088
2.059834109
2.059893918
2.05984656
2.05976039
2.059793468
2.059746216
2.059629606
2.05964505
2.059570293
2.059465205
2.059466309
2.0593088
2.059309786
2.059126863
2.059101004
2.058889688
2.058841692
2.058638477
2.058557431
2.058380093
2.05815903
2.058052701
2.057816856
2.057722012
2.057466289
2.057238108
2.05705083
2.056851061
2.056652365
2.056417695
2.056171154
2.056045807
2.055436169
2.054471249
2.053216707
2.051606912
2.049426236
2.046162802
2.040529869
2.029204733
2.029144384
2.02849981
2.027470404
2.025773341
2.023359988
2.017984881
2.010184689
1.999330495
1.982657834
1.97737236
1.971853177
1.962293968
1.947021387
1.936967401
1.926411337
1.915724088
1.904409271
1.892946669
1.880987284
1.869059834
1.857423382
1.853132869
1.857168904
1.853328681
1.846119945
1.837067952
1.826515251
1.814579986
1.801209023
1.786124752
1.768613526
1.747043802
1.722370479
1.698586727
1.682412484
1.671388183
1.666846792
1.650214211
1.624516315
1.610370005
1.585113367
1.569405464
1.559913106
1.541930565
1.518758608
1.489121343
1.46831757
1.451866501
1.439751841
1.416121079
1.384308778
1.344957045
1.313104413
1.286298036
1.250394698
1.219042637
1.188889528
1.160218204
1.122801885
1.081578729
1.048250006
1.014856587
0.9876826505
0.9671253815
0.9462298788
0.9220502769
0.8933258165
0.8587040387
0.8156385044
0.7613837628
0.691450679
0.5988233777
0.4727251364
0.2951500883
0.03441135292
-0.3655432778
-0.96430853
-1.720544156
-0.464257521
0.823938584
1.850108107
2.638245959
3.180583772
3.566039333
3.845873387
4.134938225
4.485570167
4.710821749
4.756885438
4.759609696
4.710052739
4.588752792
4.454014704
4.328678345
4.215891329
4.11581821
4.027123369
3.949006561
3.888860889
3.84338345
3.808368511
3.780640147
3.758178276
3.739551458
3.723840584
3.710401046
3.698767792
3.688598899
3.679643292
3.671708087
3.664660909
3.65839944
3.652821034
3.647842578
3.643395944
3.639428504
3.63589476
3.632754335
3.629973293
3.627523837
3.625384571
3.623542102
3.621994696
3.620760837
3.619910559
3.619642849
3.620076562
3.618656668
3.616998533
3.615441802
3.614115288
3.613052912
3.612268116
3.611760292
3.611503216
3.611388717
3.611324076
3.61128615
3.611264652
3.611257092
3.611259922
3.611273762
3.61129783
3.611331834
3.611375839
3.611430359
3.6114968
3.611578015
3.611664517
3.611753544
3.611844128
3.611935966
3.612028957
3.612123067
3.612218287
3.612314612
3.612412033
3.612510542
3.612610125
3.612710769
3.61281246
3.612915184
3.613018925
3.613123669
3.613229401
3.613336106
3.613443771
3.613552379
3.613661918
3.613772371
3.613883724
3.613995963
3.614109073
3.614223041
3.614337851
3.614453488
3.614569937
3.614687183
3.614805208
3.614923995
3.615043527
3.615163787
3.615284754
3.61540641
3.615528735
3.61565171
3.615775312
3.615899522
3.616024318
3.616149679
3.616275583
3.616402009
3.616528934
3.616656337
3.616784197
3.616912491
3.617041199
3.617170299
3.61729977
3.617429591
3.617559742
3.617690202
3.61782095
3.617951967
3.618083232
3.618214725
3.618346426
3.618478316
3.618610375
3.618742582
3.61887492
3.619007368
3.619139907
3.619272518
3.619405182
3.619537881
3.619670594
3.619803304
3.619935992
3.620068638
3.620201224
3.620333732
3.620466142
3.620598436
3.620730595
3.620862601
3.620994436
3.62112608
3.621257515
3.621388723
3.621519686
3.621650385
3.621780803
3.621910921
3.622040721
3.622170185
3.622299296
3.622428035
3.622556384
3.622684325
3.622811842
3.622938916
3.623065529
3.623191665
3.623317305
3.623442432
3.62356703
3.62369108
3.623814565
3.62393747
3.624059776
3.624181468
3.624302529
3.624422943
3.624542694
3.624661766
3.624780145
3.624897814
3.625014759
3.625130967
3.625246422
3.625361112
3.625475024
3.625588144
3.625700461
3.625811962
3.625922637
3.626032475
3.626141466
3.6262496
3.626356868
3.626463262
3.626568773
3.626673394
3.626777118
3.626879939
3.626981852
3.62708285
3.627182931
3.627282088
3.627380321
3.627477624
3.627573998
3.627669439
3.627763948
3.627857523
3.627950166
3.628041877
3.628132659
3.628222512
3.628311442
3.628399451
3.628486543
3.628572724
3.628658
3.628742378
3.628825865
3.628908468
3.628990198
3.629071064
3.629151077
3.629230248
3.629308589
3.629386115
3.629462839
3.629538777
3.629613944
3.629688359
3.629762039
3.629835004
3.629907275
3.629978872
3.630049819
3.63012014
3.630189858
3.630259002
3.630327597
3.630395674
3.630463261
3.630530392
3.630597097
3.630663413
3.630729374
3.630795017
3.630860383
3.630925511
3.630990444
3.631055226
3.631119901
3.631184519
3.631249127
3.631313778
3.631378525
3.631443423
3.63150853
3.631573905
3.631639611
3.631705713
3.631772277
3.631839372
3.631907072
3.63197545
3.632044585
3.632114558
3.632185453
3.632257357
3.632330359
3.632404556
3.632480044
3.632556925
3.632635304
3.632715292
3.632797002
3.632880554
3.63296607
3.633053679
3.633143515
3.633235717
3.63333043
3.633427804
3.633527997
3.633631171
3.633737498
3.633847155
3.633960328
3.634077208
3.634197997
3.634322906
3.634452152
3.634585965
3.634724582
3.634868252
3.635017236
3.635171803
3.635332236
3.635498833
3.6356719
3.635851761
3.636038754
3.636233229
3.636435557
3.636646122
3.636865327
3.637093594
3.637331364
3.637579098
3.63783728
3.638106416
3.638387035
3.638679695
3.638984976
3.639303489
3.639635875
3.639982805
3.640344985
3.640723156
3.641118095
3.641530621
3.641961595
3.642411922
3.642882555
3.643374499
3.643888814
3.644426617
3.644989089
3.645577478
3.646193102
3.64683736
3.647511735
3.648217795
3.648957209
3.649731749
3.650543307
3.651393895
3.652285666
3.653220922
3.654202127
3.655231927
3.656313169
3.657448916
3.658642476
3.659897429
3.661217651
3.662607368
3.664071178
3.665614108
3.66724166
3.66895989
3.670775474
3.672695808
3.674729115
3.676884573
3.679172472
3.681604409
3.684193513
3.686954733
3.689905192
3.693064629
3.69645596
3.700106
3.704046392
3.70831483
3.712956686
3.718027205
3.72359453
3.72974395
3.736583992
3.744255412
3.75294485
3.762906352
3.774496577
3.788235466
3.804917125
3.825827717
3.853213024
3.891388529
3.949641386
2.18198448
2.181311381
2.179917931
2.177523234
2.173960686
2.16925324
2.163856252
2.157986254
2.151276489
2.144951181
2.140099923
2.136564951
2.133721545
2.131340788
2.129309954
2.12755672
2.126048529
2.124751574
2.123627609
2.122665417
2.121843062
2.121158754
2.120600636
2.120173438
2.119876697
2.119725292
2.119715827
2.119820082
2.119850227
2.11954671
2.118901388
2.119310614
2.119977987
2.120665384
2.12115659
2.12123418
2.12076197
2.119500613
2.117544669
2.117499966
2.118206415
2.119010269
2.119752964
2.120397488
2.120924916
2.12136798
2.121738194
2.122028352
2.122266442
2.122446263
2.122592395
2.122695616
2.122775197
2.122822499
2.122859882
2.12289203
2.122893998
2.122889361
2.122867032
2.122847267
2.122829696
2.122793557
2.122759961
2.122710669
2.1226656
2.122608107
2.122557824
2.122514216
2.122461012
2.122410355
2.122348859
2.122292065
2.122224806
2.122165152
2.122113436
2.122049523
2.121990109
2.121919325
2.12185763
2.121802028
2.121735445
2.121676269
2.121623797
2.121558183
2.121496755
2.121424208
2.12135822
2.121298102
2.121226292
2.121157574
2.121076262
2.121001224
2.120915153
2.120833927
2.120741739
2.120653378
2.120554112
2.120457601
2.120349278
2.120243765
2.120125739
2.12001089
2.11988374
2.119757019
2.119613531
2.119472076
2.119328502
2.119162904
2.118991962
2.118813613
2.118610842
2.118398191
2.118176028
2.117926621
2.117663345
2.117372712
2.117068569
2.116736997
2.116395216
2.116025349
2.115640319
2.115227472
2.114801442
2.114361484
2.113889143
2.113394315
2.112866771
2.112315079
2.111721349
2.111081415
2.110392944
2.109651386
2.108849505
2.107966792
2.106953983
2.105673279
2.104082009
2.102154825
2.099811356
2.096893802
2.093145447
2.088260448
2.082450381
2.079143344
2.076350297
2.07334776
2.069814614
2.065326842
2.059232191
2.051459472
2.041989617
2.031273044
2.022876806
2.014569834
2.004781268
1.993443348
1.982895975
1.972413191
1.961779531
1.950971628
1.940027708
1.929094148
1.918477746
1.90893781
1.902092101
1.89730266
1.890513112
1.881685626
1.871201373
1.859269438
1.845964398
1.831253272
1.814997446
1.796965924
1.77700928
1.755928086
1.735595828
1.717992604
1.702880478
1.689006527
1.671729572
1.651885686
1.633744335
1.613955237
1.596231014
1.579569512
1.560088282
1.537800592
1.513615626
1.491279756
1.470203138
1.448824516
1.422919131
1.392701716
1.35958378
1.327347765
1.295512721
1.261413275
1.227482663
1.193325953
1.158080668
1.119407568
1.078949334
1.039737235
1.000620681
0.9623858269
0.9242087389
0.8830600115
0.8363782852
0.7819650843
0.7171596279
0.6383017198
0.5404366585
0.4161652493
0.2541890094
0.03799005498
-0.2543258062
-0.6388306669
-1.084555968
-1.389700632
-1.266108239
-0.0871531537
1.116060769
2.072152771
2.768495226
3.288969042
3.682023442
3.992201226
4.249475833
4.427015871
4.525398143
4.523983457
4.4222294
4.301283054
4.166468939
4.044852753
3.94373391
3.863557863
3.801895825
3.755778561
3.723105713
3.70129273
3.686506163
3.6766929
3.669902135
3.66511374
3.661518695
3.658735233
3.656472805
3.654572945
3.652919188
3.651450129
3.650123595
3.648903625
3.647781369
3.646771436
3.645857533
3.645036965
3.644302477
3.643651926
3.643085018
3.642601575
3.642202898
3.641891315
3.641671007
3.641548616
3.641525364
3.641603184
3.641726389
3.641725915
3.641154854
3.640614665
3.640149687
3.639820457
3.63962717
3.639572071
3.639603186
3.639696252
3.6397912
3.639875778
3.63995736
3.640038675
3.640121782
3.640207154
3.64029563
3.640387441
3.640482983
3.640582764
3.640687183
3.640796373
3.640909491
3.64102365
3.641138158
3.641252775
3.641367541
3.641482535
3.641597839
3.641713557
3.641829775
3.641946557
3.642063962
3.64218204
3.64230083
3.642420366
3.642540676
3.642661783
3.642783707
3.642906465
3.643030068
3.643154528
3.643279853
3.643406048
3.643533113
3.64366105
3.643789859
3.643919538
3.644050083
3.64418149
3.644313751
3.644446858
3.644580803
3.644715573
3.644851157
3.644987539
3.645124707
3.645262642
3.645401328
3.645540746
3.645680877
3.6458217
3.645963195
3.646105341
3.646248114
3.646391493
3.646535454
3.646679975
3.646825032
3.646970601
3.647116661
3.647263187
3.647410156
3.647557545
3.647705332
3.647853493
3.648002005
3.648150846
3.648299993
3.648449424
3.648599117
3.648749049
3.648899198
3.649049543
3.64920006
3.649350729
3.649501527
3.649652432
3.649803424
3.64995448
3.650105579
3.650256701
3.650407823
3.650558924
3.650709983
3.650860979
3.65101189
3.651162696
3.651313375
3.651463905
3.651614267
3.651764439
3.651914399
3.652064127
3.652213602
3.652362803
3.65251171
3.652660302
3.652808559
3.652956459
3.653103982
3.653251109
3.653397818
3.653544089
3.653689902
3.653835236
3.653980073
3.654124391
3.65426817
3.654411391
3.654554034
3.654696079
3.654837506
3.654978297
3.655118431
3.655257889
3.655396653
3.655534704
3.655672023
3.655808593
3.655944394
3.65607941
3.656213624
3.656347018
3.656479575
3.656611281
3.656742119
3.656872075
3.657001134
3.657129281
3.657256504
3.657382789
3.657508124
3.657632497
3.657755898
3.657878315
3.657999739
3.658120161
3.658239571
3.658357962
3.658475327
3.658591659
3.658706951
3.658821199
3.658934399
3.659046545
3.659157635
3.659267666
3.659376636
3.659484545
3.659591392
3.659697176
3.6598019
3.659905564
3.660008171
3.660109726
3.660210231
3.660309691
3.660408113
3.660505503
3.660601868
3.660697216
3.660791557
3.660884901
3.660977258
3.661068641
3.661159063
3.661248538
3.66133708
3.661424706
3.661511432
3.661597278
3.661682263
3.661766407
3.661849732
3.661932262
3.66201402
3.662095033
3.662175327
3.662254931
3.662333873
3.662412186
3.662489902
3.662567054
3.662643679
3.662719814
3.662795498
3.662870771
3.662945675
3.663020255
3.663094557
3.663168628
3.663242519
3.66331628
3.663389967
3.663463634
3.663537341
3.663611147
3.663685115
3.663759312
3.663833804
3.663908663
3.663983961
3.664059774
3.664136182
3.664213265
3.66429111
3.664369805
3.664449441
3.664530114
3.664611923
3.66469497
3.664779362
3.664865211
3.664952631
3.665041743
3.665132671
3.665225545
3.665320499
3.665417674
3.665517215
3.665619274
3.665724009
3.665831584
3.665942171
3.666055948
3.666173099
3.66629382
3.666418311
3.666546782
3.666679453
3.666816551
3.666958315
3.667104994
3.667256846
3.667414142
3.667577164
3.667746207
3.667921579
3.6681036
3.668292606
3.668488948
3.668692992
3.66890512
3.669125733
3.669355248
3.669594103
3.669842755
3.670101683
3.670371387
3.670652391
3.670945243
3.671250518
3.671568818
3.671900772
3.672247042
3.672608319
3.672985331
3.673378839
3.673789644
3.674218585
3.674666547
3.675134455
3.675623286
3.676134066
3.676667876
3.677225854
3.677809202
3.678419184
3.679057138
3.679724476
3.680422692
3.681153368
3.681918176
3.682718895
3.683557411
3.684435732
3.685355991
3.686320465
3.687331583
3.688391942
3.689504325
3.690671715
3.691897319
3.693184589
3.69453725
3.695959329
3.697455192
3.699029576
3.700687644
3.702435028
3.70427789
3.706223001
3.708277823
3.710450608
3.712750517
3.715187757
3.717773755
3.720521363
3.723445098
3.726561446
3.729889239
3.733450121
3.73726913
3.74137544
3.745803322
3.750593379
3.755794182
3.761464434
3.767675914
3.774517521
3.782100936
3.790568624
3.800105678
3.810957355
3.823455688
3.838060614
3.855423497
3.876481598
3.902576903
3.935486514
3.976720489
2.236800434
2.235998749
2.234434592
2.232049737
2.228807139
2.22475546
2.220072565
2.214934304
2.209565766
2.204457289
2.200022319
2.196318302
2.193184957
2.190497131
2.188168663
2.186140102
2.184371736
2.182829577
2.181483335
2.180312827
2.179299736
2.178433938
2.17770563
2.177111451
2.176648055
2.176315216
2.176103597
2.175987588
2.175905443
2.175798536
2.17571723
2.175918163
2.176259682
2.176618534
2.176885541
2.176965229
2.176798663
2.176368816
2.175881703
2.175909145
2.176295107
2.176801401
2.177308799
2.177767774
2.178165049
2.178495561
2.178761867
2.178964596
2.179115697
2.179218569
2.17928498
2.179315892
2.179321483
2.179302186
2.179268344
2.179222575
2.179159519
2.179085881
2.179000382
2.178911414
2.178819366
2.178718305
2.178613045
2.178499824
2.178384556
2.178264556
2.178147306
2.178032415
2.177913127
2.177792717
2.177666733
2.177539828
2.17740857
2.177279884
2.177153376
2.177021988
2.176889545
2.176752647
2.176618374
2.176486134
2.176350142
2.176216168
2.176083533
2.175945159
2.175804967
2.175659393
2.175514963
2.175371193
2.17522127
2.175068945
2.17491001
2.174749911
2.174584094
2.174417484
2.174245634
2.174071669
2.173890438
2.173705457
2.173511709
2.173312737
2.17310302
2.172885121
2.172653759
2.172414598
2.172163524
2.17190458
2.171634065
2.171344001
2.171037541
2.170712908
2.17036337
2.169992623
2.169599214
2.169175531
2.168724028
2.168241053
2.167731037
2.167190429
2.166623834
2.166026063
2.165400244
2.164742384
2.164056313
2.163339146
2.162581974
2.161783794
2.160937506
2.160040734
2.159082212
2.158053498
2.156946539
2.155750894
2.154450747
2.153014348
2.151392899
2.149526256
2.147367506
2.144872308
2.141977526
2.138594687
2.134635813
2.130101245
2.125306087
2.121084313
2.117045775
2.112796752
2.108042873
2.102492757
2.095870307
2.088127785
2.079393184
2.070108182
2.061159436
2.052071256
2.042340735
2.032008746
2.021665089
2.011267267
2.000757767
1.990134682
1.979452208
1.968841513
1.958526547
1.948858609
1.940165466
1.931931675
1.922830778
1.912457188
1.900779366
1.887838843
1.87366266
1.858247403
1.841571629
1.823644758
1.804635306
1.785078606
1.765823886
1.747571775
1.730200483
1.712943926
1.694510386
1.675139284
1.656027856
1.636850612
1.618216562
1.599292285
1.57895697
1.557058092
1.534097262
1.511094504
1.487852806
1.463476574
1.436637613
1.407338947
1.376277485
1.344457825
1.311865158
1.278018546
1.243409033
1.207924705
1.171005428
1.132043414
1.091737356
1.050841742
1.009015841
0.9661372465
0.9211337726
0.8720850418
0.8170371962
0.7538598723
0.6799472743
0.5918234078
0.4850497238
0.3535108065
0.1895982239
-0.01274537691
-0.2491505636
-0.4872027509
-0.6346201259
-0.6010053225
-0.2149348239
0.6171470456
1.515320669
2.266243429
2.847031233
3.285420708
3.614561272
3.88726324
4.109644228
4.308071392
4.38984048
4.341099132
4.211918498
4.065900876
3.926655694
3.817465423
3.739423242
3.686987126
3.653088125
3.632548784
3.621497942
3.617194564
3.616147143
3.618081243
3.621035365
3.624755016
3.62854535
3.632332415
3.635920288
3.639288251
3.64236933
3.645171042
3.647703014
3.64998296
3.652030711
3.65385718
3.655497465
3.656970096
3.658298701
3.65950064
3.660594308
3.661593704
3.662512681
3.663361563
3.664148077
3.664874541
3.66553537
3.666113382
3.666575271
3.666888997
3.667075233
3.667289952
3.667523402
3.66779398
3.668087116
3.668390276
3.668678997
3.668938543
3.669159579
3.669354136
3.669533043
3.669701851
3.669863795
3.670020544
3.670173332
3.670322967
3.670470246
3.670615981
3.670760835
3.670904828
3.671047615
3.671188791
3.671328563
3.671467141
3.671604816
3.67174183
3.67187833
3.672014521
3.672150613
3.672286735
3.672423022
3.672559584
3.672696517
3.672833904
3.672971815
3.673110315
3.673249457
3.673389289
3.673529852
3.673671181
3.673813304
3.673956248
3.674100036
3.674244687
3.674390214
3.674536628
3.674683937
3.674832145
3.674981255
3.675131267
3.675282177
3.67543398
3.675586669
3.675740232
3.67589466
3.676049937
3.676206048
3.676362976
3.676520702
3.676679207
3.676838469
3.676998467
3.677159177
3.677320575
3.677482638
3.67764534
3.677808657
3.677972563
3.678137033
3.678302041
3.678467563
3.678633573
3.678800045
3.678966954
3.679134275
3.679301983
3.679470053
3.679638461
3.67980718
3.679976187
3.680145456
3.680314964
3.680484685
3.680654596
3.680824672
3.680994888
3.681165221
3.681335645
3.681506138
3.681676674
3.681847229
3.68201778
3.682188302
3.682358772
3.682529166
3.682699459
3.682869628
3.68303965
3.683209501
3.683379156
3.683548591
3.683717784
3.68388671
3.684055347
3.68422367
3.684391656
3.684559282
3.684726525
3.684893361
3.685059768
3.685225721
3.685391199
3.685556178
3.685720635
3.685884548
3.686047893
3.686210647
3.686372788
3.686534294
3.686695142
3.686855309
3.687014773
3.687173512
3.687331503
3.687488726
3.687645159
3.687800779
3.687955567
3.688109501
3.688262562
3.688414728
3.688565981
3.688716301
3.688865671
3.68901407
3.689161483
3.689307892
3.689453281
3.689597633
3.689740934
3.689883169
3.690024324
3.690164386
3.690303342
3.690441181
3.690577891
3.690713462
3.690847885
3.69098115
3.69111325
3.691244176
3.691373923
3.691502484
3.691629855
3.69175603
3.691881006
3.692004782
3.692127354
3.692248721
3.692368883
3.692487841
3.692605596
3.692722149
3.692837505
3.692951666
3.693064639
3.693176427
3.693287038
3.693396481
3.693504762
3.693611892
3.693717881
3.693822742
3.693926486
3.694029128
3.694130683
3.694231166
3.694330596
3.694428991
3.69452637
3.694622755
3.694718168
3.694812634
3.694906177
3.694998825
3.695090604
3.695181546
3.695271681
3.695361041
3.695449661
3.695537577
3.695624827
3.695711449
3.695797486
3.695882979
3.695967974
3.696052519
3.696136661
3.696220451
3.696303944
3.696387193
3.696470258
3.696553196
3.696636071
3.696718948
3.696801894
3.696884978
3.696968273
3.697051856
3.697135804
3.697220199
3.697305125
3.697390671
3.697476927
3.697563989
3.697651955
3.697740927
3.697831012
3.697922319
3.698014964
3.698109066
3.698204748
3.698302139
3.698401372
3.698502587
3.698605928
3.698711545
3.698819594
3.698930239
3.699043648
3.699159998
3.699279471
3.699402259
3.69952856
3.699658582
3.69979254
3.699930659
3.700073173
3.700220327
3.700372375
3.700529584
3.700692229
3.700860601
3.701035001
3.701215743
3.701403157
3.701597585
3.701799385
3.702008932
3.702226616
3.702452846
3.702688048
3.702932669
3.703187174
3.703452051
3.703727809
3.704014982
3.704314128
3.704625829
3.704950698
3.705289372
3.705642524
3.706010853
3.706395095
3.706796021
3.707214439
3.707651197
3.708107184
3.708583335
3.709080628
3.709600095
3.710142819
3.710709937
3.711302649
3.711922217
3.71256997
3.713247311
3.713955717
3.714696752
3.715472065
3.716283402
3.71713261
3.718021649
3.718952597
3.719927661
3.720949186
3.722019673
3.723141785
3.724318369
3.725552466
3.726847338
3.728206483
3.729633662
3.731132925
3.732708644
3.734365545
3.736108752
3.737943827
3.739876835
3.741914399
3.744063769
3.746332908
3.748730593
3.751266536
3.753951518
3.756797557
3.759818096
3.763028246
3.766445073
3.770087941
3.773978955
3.778143491
3.782610813
3.787414944
3.792595727
3.798200152
3.804284094
3.81091456
3.818172627
3.82615728
3.834990473
3.844823716
3.855846455
3.868295892
3.882466502
3.898713049
3.917425339
3.938924501
3.963129797
3.988654201
2.287210688
2.286380796
2.284808965
2.282522501
2.279552099
2.275965579
2.27188615
2.267474144
2.262936824
2.258546053
2.25452502
2.250956219
2.247814408
2.245048807
2.242610605
2.240458763
2.23856022
2.236886149
2.235411254
2.234115338
2.232981831
2.231998767
2.231156244
2.230447512
2.229866709
2.229408241
2.229061656
2.228807944
2.228622887
2.228488567
2.228424264
2.228475909
2.228603783
2.228746203
2.228842927
2.228851115
2.228754918
2.228566535
2.228397827
2.228409118
2.228590128
2.228853452
2.229131416
2.229384224
2.229592067
2.229750754
2.229860939
2.22992459
2.229946879
2.229932946
2.22988835
2.229816563
2.229722913
2.229610313
2.229483706
2.229345235
2.229194644
2.229034453
2.228865683
2.228691617
2.228512961
2.228328303
2.228138833
2.227944228
2.227746726
2.227547024
2.22734808
2.227149322
2.226948108
2.226744494
2.226537149
2.226327251
2.22611442
2.225900849
2.225686338
2.225468699
2.22524862
2.225025638
2.224801979
2.224577589
2.224350846
2.224123076
2.223893659
2.223660125
2.223422966
2.223181487
2.222937631
2.222691398
2.22244151
2.222187574
2.221928368
2.221665282
2.221397423
2.221125598
2.220848284
2.220565798
2.220276247
2.219979562
2.219673645
2.219358254
2.219031014
2.21869174
2.218338977
2.217975361
2.217605832
2.217222761
2.216821445
2.216397222
2.215948864
2.215474189
2.214970062
2.214436182
2.213870328
2.213267811
2.212626881
2.211947868
2.211233074
2.210482095
2.209695878
2.208872753
2.208012697
2.207113772
2.206175305
2.205193415
2.204161098
2.20307274
2.20192092
2.200698736
2.199396111
2.198002712
2.196507019
2.194894688
2.193146687
2.19123774
2.189138055
2.18680074
2.184183251
2.181246911
2.177949806
2.174250003
2.170128718
2.165635263
2.160937298
2.156265388
2.151516833
2.146496581
2.14101222
2.134889209
2.128003172
2.1203405
2.112007923
2.1032375
2.09430138
2.085119903
2.075554067
2.065630785
2.055527283
2.045289299
2.03492275
2.024443235
2.013898504
2.003377465
1.992995372
1.982865238
1.972985241
1.963025246
1.952437684
1.940915553
1.928344859
1.914698681
1.899979213
1.884200165
1.867397953
1.84966014
1.83117525
1.812264193
1.793330807
1.774648304
1.756147775
1.737482129
1.718249606
1.698523853
1.678670458
1.658827112
1.639323342
1.619711516
1.599114685
1.577423935
1.554819492
1.531553722
1.507492541
1.482213561
1.455265038
1.426679132
1.396815133
1.365861248
1.333780518
1.300565306
1.266364663
1.231133912
1.194539766
1.156376384
1.117061603
1.076595408
1.034749206
0.9912796087
0.9451330609
0.8953525158
0.8403247633
0.7785790842
0.7082703861
0.627145342
0.5332211208
0.4254605473
0.3058090159
0.1874086943
0.0956041887
0.06294987043
0.1195870718
0.2969775411
0.6654623902
1.243001836
1.865861039
2.419115931
2.876192282
3.235063242
3.500617326
3.685125747
3.879447633
4.074718174
4.143999019
4.138666115
4.064457293
3.966843978
3.864059496
3.778247305
3.712946042
3.667675085
3.638369463
3.620904473
3.612324369
3.609877424
3.609620293
3.613566892
3.617972573
3.623623661
3.629353088
3.635230453
3.640872381
3.646266216
3.651324937
3.656017691
3.660356471
3.66432287
3.667952855
3.671248791
3.674247649
3.676962275
3.679424692
3.681651879
3.683669297
3.68549367
3.687143903
3.688632984
3.689973549
3.691173691
3.692240449
3.693179581
3.694001115
3.694725578
3.695386181
3.696011847
3.696596492
3.697143815
3.697646037
3.698100053
3.69850198
3.698854925
3.699166685
3.699449069
3.699709763
3.699953572
3.700183507
3.700401614
3.700609494
3.70080842
3.700999567
3.701184211
3.701363927
3.701539192
3.701710508
3.701878352
3.702043286
3.702205752
3.70236612
3.702524911
3.702682435
3.702838994
3.702994805
3.703150083
3.703305026
3.703459821
3.703614627
3.703769577
3.70392479
3.704080369
3.704236409
3.704392992
3.704550189
3.704708063
3.704866667
3.70502605
3.705186254
3.705347316
3.705509265
3.705672127
3.705835922
3.706000665
3.706166368
3.70633304
3.706500686
3.706669305
3.706838897
3.707009454
3.707180969
3.70735343
3.707526825
3.707701137
3.707876349
3.708052441
3.708229392
3.708407179
3.708585778
3.708765164
3.708945312
3.709126195
3.709307785
3.709490057
3.709672982
3.709856533
3.710040682
3.710225401
3.710410662
3.710596438
3.710782701
3.710969423
3.711156577
3.711344136
3.711532071
3.711720355
3.711908961
3.712097862
3.712287031
3.71247644
3.712666062
3.71285587
3.713045836
3.713235935
3.713426138
3.713616419
3.713806751
3.713997106
3.714187459
3.714377782
3.714568049
3.714758232
3.714948304
3.71513824
3.715328011
3.715517593
3.715706958
3.71589608
3.716084932
3.716273488
3.716461722
3.716649606
3.716837116
3.717024225
3.717210906
3.717397134
3.717582882
3.717768124
3.717952834
3.718136987
3.718320556
3.718503515
3.718685839
3.718867502
3.719048477
3.719228739
3.719408263
3.719587023
3.719764994
3.71994215
3.720118466
3.720293918
3.72046848
3.720642129
3.720814841
3.720986591
3.721157357
3.721327116
3.721495846
3.721663524
3.72183013
3.721995643
3.722160044
3.722323312
3.722485429
3.722646377
3.722806139
3.722964698
3.723122038
3.723278145
3.723433005
3.723586603
3.723738927
3.723889965
3.724039707
3.724188142
3.72433526
3.724481054
3.724625515
3.724768638
3.724910415
3.725050842
3.725189915
3.72532763
3.725463984
3.725598978
3.725732609
3.725864878
3.725995786
3.726125336
3.726253531
3.726380374
3.726505872
3.72663003
3.726752855
3.726874356
3.726994543
3.727113426
3.727231016
3.727347327
3.727462374
3.72757617
3.727688735
3.727800084
3.727910239
3.72801922
3.728127049
3.728233751
3.728339349
3.728443871
3.728547345
3.728649802
3.728751272
3.728851789
3.728951388
3.729050105
3.72914798
3.729245053
3.729341367
3.729436965
3.729531895
3.729626205
3.729719945
3.729813169
3.729905932
3.729998292
3.730090308
3.730182043
3.730273562
3.730364933
3.730456226
3.730547515
3.730638875
3.730730386
3.730822131
3.730914194
3.731006665
3.731099636
3.731193203
3.731287465
3.731382526
3.731478494
3.73157548
3.7316736
3.731772974
3.731873728
3.731975992
3.732079901
3.732185595
3.732293221
3.73240293
3.73251488
3.732629235
3.732746167
3.732865852
3.732988476
3.733114231
3.733243317
3.733375943
3.733512326
3.733652692
3.733797278
3.733946328
3.734100099
3.734258858
3.734422883
3.734592464
3.734767904
3.73494952
3.735137639
3.735332607
3.735534783
3.73574454
3.73596227
3.736188381
3.736423301
3.736667474
3.736921367
3.737185465
3.737460278
3.737746338
3.738044197
3.738354442
3.738677676
3.739014536
3.739365687
3.739731826
3.740113681
3.740512015
3.740927627
3.741361355
3.741814075
3.742286708
3.742780217
3.743295616
3.743833964
3.744396377
3.744984026
3.745598139
3.746240011
3.746911
3.74761254
3.748346138
3.749113383
3.749915951
3.750755612
3.751634232
3.752553785
3.753516362
3.754524174
3.75557957
3.756685038
3.757843224
3.759056943
3.760329197
3.761663185
3.763062329
3.764530289
3.76607099
3.767688646
3.76938779
3.771173307
3.773050472
3.775024995
3.777103069
3.779291429
3.781597422
3.784029045
3.786595076
3.789305168
3.792169967
3.795201249
3.798412083
3.801817029
3.805432361
3.80927634
3.813369549
3.817735274
3.822399987
3.827393919
3.832751733
3.838513329
3.844724818
3.851439665
3.858719963
3.866637793
3.875276546
3.884731399
3.895108709
3.906521285
3.919075434
3.932841681
3.94779017
3.963662723
3.979735756
3.994450585
2.332018663
2.331205236
2.329690927
2.327541414
2.32482109
2.321609899
2.318014857
2.314169436
2.310231617
2.306373391
2.302735723
2.2993944
2.296367429
2.293643898
2.291202163
2.289018089
2.287068358
2.285330929
2.28378528
2.282412078
2.281197148
2.28012949
2.279199078
2.278397521
2.277717556
2.277151922
2.276691235
2.276323258
2.27603351
2.275811283
2.275656209
2.275570034
2.275531087
2.275506063
2.27546207
2.275376641
2.275243578
2.275080835
2.274940858
2.274882083
2.274904888