/*--------------------------------*- C++ -*----------------------------------*\
| =========                 |                                                 |
| \\      /  F ield         | OpenFOAM: The Open Source CFD Toolbox           |
|  \\    /   O peration     | Version:  v2006                                 |
|   \\  /    A nd           | Website:  www.openfoam.com                      |
|    \\/     M anipulation  |                                                 |
\*---------------------------------------------------------------------------*/
FoamFile
{
    version     2.0;
    format      ascii;
    class       volScalarField;
    location    "0.075";
    object      theta3;
}
// * * * * * * * * * * * * * * * * * * * * * * * * * * * * * * * * * * * * * //

dimensions      [0 0 0 0 0 0 0];


internalField   nonuniform List<scalar> 
72000
(
2.128658092
2.128402938
2.127771695
2.12559771
2.1215625
2.115461072
2.109551605
2.104378482
2.094178777
2.084186665
2.07889254
2.076781318
2.074963331
2.073411571
2.071956061
2.070880059
2.069921172
2.068961987
2.068356505
2.067711315
2.067341649
2.06693423
2.066738075
2.066506814
2.066554453
2.066720672
2.067103752
2.06787358
2.06808223
2.066396396
2.060849576
2.062330829
2.063548571
2.06478804
2.065589661
2.06505383
2.063270139
2.059334359
2.050773189
2.051418901
2.052965145
2.054204535
2.055206597
2.055945
2.056635993
2.057161883
2.057566035
2.058001883
2.058252817
2.058601357
2.05872682
2.059001531
2.059040343
2.059248924
2.05933102
2.059412475
2.059516932
2.059504437
2.059633248
2.059687841
2.059652142
2.059743587
2.059719095
2.059855374
2.059789608
2.05987473
2.059869093
2.059841629
2.059909936
2.059838124
2.059930482
2.059913438
2.059957804
2.059940058
2.059932798
2.059987665
2.059913401
2.060023345
2.060007618
2.059986863
2.06001583
2.06004656
2.059965123
2.060067324
2.060032274
2.060089803
2.060104793
2.06006283
2.060135414
2.060031165
2.060090356
2.060043685
2.060140609
2.060046076
2.060111841
2.060010512
2.060091843
2.060015848
2.060008786
2.059953129
2.059973117
2.059908166
2.059945996
2.059849977
2.059926546
2.059878786
2.059776808
2.059825365
2.059777274
2.059660461
2.059675243
2.059583264
2.059495076
2.059479549
2.05932178
2.05927384
2.05915432
2.05906343
2.058915611
2.058866305
2.058667564
2.058585278
2.058401913
2.058179597
2.058056059
2.057835175
2.057743754
2.057486522
2.057252055
2.057067599
2.056867853
2.056596971
2.05642929
2.056156927
2.056047252
2.055436245
2.054471238
2.053216699
2.051606904
2.049426227
2.046162791
2.040529859
2.029204612
2.029163242
2.028510412
2.027418568
2.025792726
2.023360037
2.017984864
2.010184664
1.999330422
1.982638855
1.977399106
1.971857656
1.962293712
1.947062301
1.937002455
1.926427583
1.915686501
1.904433442
1.892911431
1.881021589
1.869041741
1.857423347
1.853132834
1.85716887
1.853328648
1.846119915
1.837067923
1.826515223
1.814579962
1.801209003
1.786124737
1.768613421
1.74706471
1.722412286
1.698586672
1.682412481
1.671388186
1.666846803
1.650214228
1.624516335
1.610370031
1.585113393
1.569405497
1.559913147
1.541930611
1.518758655
1.489121395
1.468317633
1.451866579
1.439751937
1.41612119
1.384308901
1.344957174
1.313104548
1.286298183
1.250394848
1.219042796
1.188889699
1.160218387
1.122802061
1.081578875
1.048250034
1.014872501
0.9876826512
0.9671254638
0.946229973
0.9220503818
0.8933259376
0.8587041765
0.815638665
0.761383948
0.691450902
0.5988236499
0.4727254759
0.2951505217
0.03441192383
-0.3655425226
-0.96430761
-1.720543049
-0.4642571619
0.823938471
1.850107676
2.638245485
3.180583279
3.566038815
3.84587288
4.134937742
4.485569316
4.710821501
4.756885406
4.759609714
4.710052844
4.588753022
4.454014935
4.328678564
4.215891533
4.115818402
4.02712355
3.949006698
3.888860997
3.843383533
3.808368578
3.780640203
3.758178323
3.739551497
3.723840617
3.710401074
3.698767816
3.68859892
3.67964331
3.671708102
3.664660923
3.658399451
3.652821044
3.647842587
3.643395952
3.63942851
3.635894765
3.632754339
3.629973296
3.627523841
3.625384574
3.623542104
3.621994698
3.620760839
3.61991056
3.61964285
3.620076562
3.618656668
3.616998533
3.615441801
3.614115287
3.613052911
3.612268116
3.611760292
3.611503216
3.611388717
3.611324076
3.61128615
3.611264651
3.611257092
3.611259922
3.611273762
3.61129783
3.611331834
3.611375839
3.611430359
3.6114968
3.611578015
3.611664517
3.611753544
3.611844128
3.611935966
3.612028957
3.612123067
3.612218287
3.612314612
3.612412033
3.612510542
3.612610125
3.612710769
3.61281246
3.612915184
3.613018925
3.613123669
3.613229401
3.613336106
3.61344377
3.613552379
3.613661918
3.613772371
3.613883724
3.613995963
3.614109073
3.614223041
3.614337851
3.614453488
3.614569937
3.614687183
3.614805207
3.614923995
3.615043527
3.615163786
3.615284754
3.61540641
3.615528735
3.615651709
3.615775312
3.615899522
3.616024318
3.616149679
3.616275583
3.616402009
3.616528934
3.616656337
3.616784196
3.616912491
3.617041199
3.617170299
3.61729977
3.617429591
3.617559742
3.617690202
3.61782095
3.617951967
3.618083232
3.618214725
3.618346426
3.618478316
3.618610374
3.618742582
3.61887492
3.619007368
3.619139907
3.619272518
3.619405182
3.619537881
3.619670594
3.619803304
3.619935992
3.620068638
3.620201224
3.620333732
3.620466142
3.620598436
3.620730595
3.620862601
3.620994436
3.621126079
3.621257515
3.621388723
3.621519686
3.621650385
3.621780803
3.621910921
3.622040721
3.622170185
3.622299296
3.622428035
3.622556384
3.622684326
3.622811842
3.622938916
3.623065529
3.623191665
3.623317305
3.623442432
3.62356703
3.62369108
3.623814565
3.62393747
3.624059776
3.624181468
3.624302529
3.624422943
3.624542694
3.624661766
3.624780144
3.624897814
3.625014759
3.625130967
3.625246422
3.625361112
3.625475024
3.625588144
3.62570046
3.625811962
3.625922637
3.626032475
3.626141466
3.6262496
3.626356868
3.626463262
3.626568773
3.626673394
3.626777118
3.626879939
3.626981852
3.62708285
3.62718293
3.627282088
3.62738032
3.627477624
3.627573998
3.627669439
3.627763947
3.627857523
3.627950166
3.628041877
3.628132658
3.628222512
3.628311442
3.62839945
3.628486543
3.628572724
3.628658
3.628742378
3.628825865
3.628908468
3.628990198
3.629071064
3.629151077
3.629230248
3.629308589
3.629386115
3.629462839
3.629538777
3.629613944
3.629688359
3.629762039
3.629835004
3.629907275
3.629978872
3.630049819
3.630120139
3.630189858
3.630259002
3.630327597
3.630395674
3.630463261
3.630530391
3.630597097
3.630663412
3.630729373
3.630795017
3.630860383
3.630925511
3.630990444
3.631055226
3.631119901
3.631184519
3.631249127
3.631313778
3.631378525
3.631443423
3.63150853
3.631573905
3.631639611
3.631705713
3.631772277
3.631839372
3.631907072
3.63197545
3.632044585
3.632114558
3.632185453
3.632257357
3.632330359
3.632404556
3.632480044
3.632556925
3.632635304
3.632715292
3.632797002
3.632880553
3.63296607
3.633053679
3.633143515
3.633235717
3.63333043
3.633427804
3.633527997
3.633631171
3.633737498
3.633847155
3.633960328
3.634077208
3.634197997
3.634322906
3.634452152
3.634585965
3.634724582
3.634868252
3.635017235
3.635171802
3.635332236
3.635498832
3.6356719
3.635851761
3.636038754
3.636233229
3.636435557
3.636646122
3.636865327
3.637093594
3.637331364
3.637579098
3.63783728
3.638106415
3.638387035
3.638679695
3.638984976
3.639303489
3.639635875
3.639982805
3.640344985
3.640723156
3.641118095
3.641530622
3.641961595
3.642411922
3.642882555
3.643374499
3.643888814
3.644426617
3.644989089
3.645577478
3.646193102
3.64683736
3.647511735
3.648217795
3.648957209
3.649731749
3.650543307
3.651393895
3.652285666
3.653220922
3.654202127
3.655231927
3.656313169
3.657448916
3.658642476
3.659897429
3.661217651
3.662607368
3.664071178
3.665614108
3.66724166
3.66895989
3.670775474
3.672695808
3.674729115
3.676884573
3.679172472
3.681604409
3.684193513
3.686954733
3.689905192
3.693064628
3.69645596
3.700106
3.704046392
3.70831483
3.712956686
3.718027205
3.72359453
3.72974395
3.736583992
3.744255412
3.75294485
3.762906352
3.774496577
3.788235466
3.804917125
3.825827717
3.853213024
3.891388529
3.949641386
2.181977263
2.181303918
2.179909477
2.17751288
2.173948184
2.169239398
2.163842169
2.157973603
2.151260375
2.144939764
2.140091869
2.136559095
2.133716853
2.131336534
2.1293064
2.127553787
2.126046035
2.124749716
2.123626136
2.122664203
2.121841739
2.121157668
2.120599673
2.120172657
2.119876124
2.119724897
2.119715657
2.119820123
2.119850451
2.119547082
2.118901941
2.119311042
2.119978627
2.120665888
2.121157216
2.121234851
2.120762751
2.119501494
2.117545599
2.117500868
2.118207029
2.119010899
2.119753601
2.12039806
2.120925321
2.121368205
2.121738417
2.122028534
2.122266586
2.122446536
2.122592573
2.122695874
2.122775254
2.122822594
2.122859888
2.122892167
2.122894028
2.122889341
2.122867003
2.122847214
2.122829598
2.12279347
2.122759894
2.122710834
2.122665618
2.122608152
2.122557848
2.122514364
2.122461076
2.122410288
2.122348772
2.12229217
2.122224759
2.122165056
2.122113546
2.122049578
2.121990084
2.121919433
2.121857664
2.121802164
2.121735333
2.121676275
2.121623713
2.121558248
2.121496876
2.121424281
2.12135826
2.121298174
2.12122635
2.121157482
2.121076163
2.121001124
2.120915233
2.120833952
2.120741726
2.120653215
2.120554111
2.120457689
2.1203492
2.12024385
2.120125688
2.120010829
2.119883635
2.11975689
2.119613652
2.119472083
2.119328502
2.119163012
2.118992048
2.11881367
2.118610866
2.118398039
2.118176069
2.117926604
2.117663296
2.117372634
2.117068693
2.116736978
2.116395276
2.116025469
2.115640475
2.115227602
2.114801403
2.114361411
2.113888912
2.113394278
2.112866846
2.112315169
2.111721272
2.111081478
2.11039312
2.10965143
2.108849697
2.107966596
2.106954076
2.105673254
2.104081995
2.102154816
2.099811348
2.096893792
2.093145434
2.088260429
2.082450353
2.079143065
2.076350174
2.073348256
2.069814569
2.065326847
2.059232185
2.05145945
2.041989586
2.031273094
2.022876562
2.014569487
2.004781225
1.993443052
1.982895668
1.972412924
1.961779838
1.950971543
1.940027848
1.929093943
1.918477758
1.908937782
1.902092067
1.897302627
1.890513081
1.881685596
1.871201344
1.859269412
1.845964375
1.831253254
1.814997433
1.796965915
1.777009017
1.755927803
1.735595823
1.717992608
1.702880488
1.689006543
1.671729594
1.651885712
1.633744365
1.613955271
1.596231054
1.579569559
1.560088334
1.53780065
1.513615692
1.491279832
1.470203228
1.44882462
1.422919248
1.392701845
1.359583919
1.327347914
1.295512881
1.261413444
1.227482842
1.193326141
1.158080863
1.119407761
1.078949512
1.039737393
1.000620631
0.9623859907
0.9242089215
0.8830602101
0.8363785033
0.7819653279
0.7171599036
0.6383020355
0.5404370249
0.4161656839
0.2541895366
0.03799070526
-0.2543249991
-0.6388296954
-1.084554899
-1.389699662
-1.266107443
-0.08715291851
1.116060579
2.072152352
2.768494704
3.288968494
3.682022903
3.992200722
4.249475375
4.427015515
4.525398104
4.523983602
4.422229569
4.301283271
4.166469174
4.044852968
3.943734101
3.863558025
3.801895961
3.75577867
3.723105794
3.701292793
3.686506214
3.676692941
3.66990217
3.665113769
3.661518721
3.658735256
3.656472825
3.654572963
3.652919205
3.651450144
3.650123609
3.648903637
3.64778138
3.646771446
3.645857542
3.645036973
3.644302484
3.643651932
3.643085024
3.64260158
3.642202902
3.641891319
3.64167101
3.641548618
3.641525367
3.641603186
3.64172639
3.641725916
3.641154855
3.640614665
3.640149687
3.639820457
3.63962717
3.639572071
3.639603186
3.639696252
3.639791199
3.639875778
3.639957359
3.640038674
3.640121782
3.640207154
3.64029563
3.640387441
3.640482983
3.640582764
3.640687183
3.640796373
3.640909491
3.64102365
3.641138158
3.641252775
3.641367542
3.641482535
3.64159784
3.641713557
3.641829775
3.641946557
3.642063962
3.64218204
3.64230083
3.642420366
3.642540676
3.642661783
3.642783707
3.642906465
3.643030068
3.643154528
3.643279853
3.643406048
3.643533113
3.64366105
3.643789859
3.643919538
3.644050083
3.644181489
3.64431375
3.644446858
3.644580803
3.644715573
3.644851156
3.644987539
3.645124706
3.645262641
3.645401327
3.645540745
3.645680876
3.6458217
3.645963195
3.646105341
3.646248114
3.646391493
3.646535454
3.646679975
3.646825032
3.646970601
3.647116661
3.647263187
3.647410156
3.647557545
3.647705332
3.647853492
3.648002005
3.648150846
3.648299993
3.648449424
3.648599117
3.648749049
3.648899198
3.649049543
3.64920006
3.649350729
3.649501527
3.649652432
3.649803423
3.64995448
3.650105579
3.650256701
3.650407823
3.650558924
3.650709983
3.650860979
3.65101189
3.651162696
3.651313374
3.651463905
3.651614267
3.651764438
3.651914398
3.652064126
3.652213602
3.652362803
3.65251171
3.652660302
3.652808559
3.652956459
3.653103982
3.653251109
3.653397818
3.653544089
3.653689902
3.653835236
3.653980073
3.654124391
3.65426817
3.654411391
3.654554034
3.654696079
3.654837506
3.654978296
3.65511843
3.655257889
3.655396653
3.655534704
3.655672023
3.655808593
3.655944394
3.65607941
3.656213623
3.656347017
3.656479575
3.656611281
3.656742119
3.656872075
3.657001133
3.657129281
3.657256504
3.657382789
3.657508124
3.657632497
3.657755898
3.657878315
3.657999739
3.658120161
3.658239571
3.658357962
3.658475327
3.658591658
3.658706951
3.658821199
3.658934398
3.659046545
3.659157635
3.659267666
3.659376636
3.659484545
3.659591391
3.659697176
3.659801899
3.659905564
3.660008171
3.660109726
3.660210231
3.660309691
3.660408113
3.660505503
3.660601868
3.660697216
3.660791557
3.660884901
3.660977258
3.661068641
3.661159063
3.661248538
3.66133708
3.661424706
3.661511432
3.661597278
3.661682263
3.661766407
3.661849732
3.661932262
3.66201402
3.662095033
3.662175327
3.662254931
3.662333873
3.662412186
3.662489901
3.662567054
3.662643679
3.662719814
3.662795498
3.66287077
3.662945675
3.663020255
3.663094557
3.663168628
3.663242519
3.66331628
3.663389967
3.663463634
3.66353734
3.663611147
3.663685115
3.663759312
3.663833804
3.663908663
3.663983961
3.664059774
3.664136182
3.664213265
3.66429111
3.664369805
3.664449441
3.664530114
3.664611923
3.66469497
3.664779362
3.664865211
3.664952631
3.665041743
3.665132671
3.665225545
3.665320499
3.665417674
3.665517215
3.665619274
3.665724009
3.665831584
3.665942171
3.666055948
3.666173099
3.66629382
3.666418311
3.666546782
3.666679452
3.666816551
3.666958315
3.667104994
3.667256846
3.667414142
3.667577164
3.667746207
3.667921579
3.6681036
3.668292606
3.668488948
3.668692992
3.66890512
3.669125732
3.669355248
3.669594103
3.669842755
3.670101683
3.670371387
3.670652391
3.670945243
3.671250518
3.671568818
3.671900772
3.672247042
3.672608319
3.672985331
3.673378839
3.673789644
3.674218585
3.674666547
3.675134455
3.675623286
3.676134066
3.676667876
3.677225854
3.677809202
3.678419184
3.679057138
3.679724476
3.680422692
3.681153368
3.681918176
3.682718895
3.683557411
3.684435732
3.685355991
3.686320465
3.687331583
3.688391942
3.689504325
3.690671715
3.691897319
3.693184589
3.69453725
3.695959329
3.697455192
3.699029576
3.700687644
3.702435028
3.70427789
3.706223001
3.708277823
3.710450608
3.712750517
3.715187757
3.717773755
3.720521363
3.723445098
3.726561446
3.729889239
3.733450121
3.73726913
3.74137544
3.745803322
3.750593379
3.755794182
3.761464434
3.767675914
3.774517521
3.782100936
3.790568624
3.800105678
3.810957355
3.823455688
3.838060614
3.855423497
3.876481598
3.902576903
3.935486514
3.976720489
2.236791856
2.235990001
2.234425362
2.232039639
2.228796026
2.224743566
2.220060408
2.21492254
2.209554239
2.204447515
2.200014375
2.196311737
2.193179476
2.190492532
2.188164787
2.18613682
2.184368955
2.182827218
2.181481327
2.180311114
2.179298281
2.178432711
2.177704607
2.177110621
2.17664743
2.176314779
2.17610334
2.175987514
2.175905531
2.175798758
2.175717548
2.175918539
2.176260098
2.176618986
2.176886028
2.17696578
2.1767993
2.176369519
2.175882424
2.175909832
2.176295746
2.176801976
2.177309305
2.177768232
2.178165442
2.178495879
2.178762111
2.178964795
2.179115872
2.179218722
2.179285125
2.179316017
2.179321585
2.179302264
2.179268416
2.179222645
2.179159574
2.179085907
2.179000371
2.178911396
2.178819364
2.178718297
2.178613053
2.178499835
2.178384554
2.178264564
2.178147344
2.178032472
2.177913188
2.177792756
2.177666735
2.17753981
2.177408552
2.177279883
2.177153385
2.177022006
2.176889557
2.176752641
2.176618378
2.176486138
2.176350147
2.17621619
2.176083576
2.175945206
2.175805004
2.175659421
2.17551497
2.175371189
2.175221246
2.175068942
2.174910008
2.174749892
2.174584089
2.17441748
2.174245603
2.174071627
2.17389041
2.17370547
2.173511741
2.173312768
2.173103022
2.172885075
2.172653708
2.172414542
2.172163478
2.171904539
2.171634027
2.171343971
2.171037525
2.170712886
2.170363336
2.169992568
2.169599159
2.169175473
2.168723984
2.168241038
2.167731035
2.167190432
2.166623838
2.166026071
2.165400255
2.164742387
2.164056289
2.163339097
2.162581905
2.161783744
2.160937473
2.160040715
2.159082199
2.158053486
2.156946527
2.15575088
2.154450724
2.153014316
2.151392871
2.149526233
2.147367492
2.144872297
2.141977516
2.138594675
2.134635799
2.130101229
2.125306069
2.121084293
2.117045762
2.112796759
2.108042885
2.102492765
2.095870302
2.088127765
2.079393151
2.070108145
2.061159395
2.05207121
2.042340697
2.032008714
2.021665068
2.011267245
2.000757745
1.990134653
1.979452178
1.96884148
1.958526519
1.948858579
1.940165435
1.931931645
1.92283075
1.912457161
1.900779341
1.88783882
1.87366264
1.858247388
1.84157162
1.823644755
1.804635306
1.785078608
1.765823894
1.747571788
1.730200501
1.712943951
1.694510416
1.675139319
1.656027894
1.636850656
1.618216611
1.59929234
1.578957031
1.55705816
1.534097339
1.511094592
1.487852906
1.463476687
1.436637739
1.407339084
1.376277634
1.344457986
1.31186533
1.278018729
1.243409226
1.207924908
1.171005638
1.132043626
1.091737564
1.050841945
1.009016044
0.9661374691
0.9211340154
0.8720853046
0.8170374826
0.753860188
0.6799476262
0.5918238052
0.485050178
0.3535113338
0.1895988398
-0.0127446651
-0.2491497585
-0.4872018798
-0.6346192609
-0.6010045087
-0.2149342981
0.6171471677
1.515320486
2.266243082
2.847030809
3.285420295
3.614560847
3.887262823
4.10964392
4.308071207
4.389840475
4.341099332
4.211918726
4.065901108
3.926655896
3.817465574
3.739423353
3.686987207
3.653088186
3.632548829
3.621497976
3.617194591
3.616147168
3.618081263
3.621035384
3.624755033
3.628545366
3.63233243
3.635920302
3.639288264
3.642369342
3.645171053
3.647703025
3.64998297
3.65203072
3.653857188
3.655497473
3.656970103
3.658298708
3.659500646
3.660594313
3.661593709
3.662512685
3.663361566
3.66414808
3.664874544
3.665535372
3.666113383
3.666575273
3.666888997
3.667075234
3.667289952
3.667523402
3.66779398
3.668087116
3.668390276
3.668678997
3.668938542
3.669159579
3.669354136
3.669533042
3.66970185
3.669863795
3.670020544
3.670173332
3.670322967
3.670470246
3.670615981
3.670760835
3.670904829
3.671047615
3.671188792
3.671328564
3.671467142
3.671604816
3.67174183
3.67187833
3.672014521
3.672150613
3.672286735
3.672423022
3.672559583
3.672696517
3.672833903
3.672971815
3.673110314
3.673249456
3.673389289
3.673529852
3.673671181
3.673813304
3.673956248
3.674100036
3.674244687
3.674390214
3.674536628
3.674683936
3.674832145
3.674981255
3.675131266
3.675282177
3.67543398
3.675586668
3.675740232
3.675894659
3.676049936
3.676206047
3.676362975
3.676520702
3.676679207
3.676838469
3.676998467
3.677159177
3.677320575
3.677482638
3.67764534
3.677808657
3.677972563
3.678137033
3.678302041
3.678467563
3.678633573
3.678800045
3.678966954
3.679134275
3.679301983
3.679470053
3.679638461
3.67980718
3.679976187
3.680145456
3.680314964
3.680484685
3.680654596
3.680824672
3.680994888
3.681165221
3.681335645
3.681506138
3.681676673
3.681847229
3.68201778
3.682188302
3.682358772
3.682529165
3.682699458
3.682869628
3.68303965
3.6832095
3.683379155
3.683548591
3.683717784
3.68388671
3.684055346
3.684223669
3.684391656
3.684559282
3.684726525
3.684893361
3.685059768
3.685225722
3.6853912
3.685556179
3.685720636
3.685884548
3.686047893
3.686210647
3.686372789
3.686534294
3.686695142
3.686855309
3.687014773
3.687173511
3.687331503
3.687488726
3.687645158
3.687800779
3.687955567
3.688109501
3.688262561
3.688414728
3.688565981
3.688716301
3.68886567
3.68901407
3.689161483
3.689307892
3.68945328
3.689597633
3.689740934
3.689883169
3.690024324
3.690164385
3.690303342
3.690441181
3.690577891
3.690713462
3.690847885
3.69098115
3.691113249
3.691244176
3.691373923
3.691502484
3.691629854
3.691756029
3.691881006
3.692004781
3.692127353
3.692248721
3.692368883
3.692487841
3.692605595
3.692722149
3.692837505
3.692951666
3.693064638
3.693176427
3.693287038
3.693396481
3.693504762
3.693611892
3.693717881
3.693822742
3.693926486
3.694029128
3.694130683
3.694231166
3.694330596
3.694428991
3.69452637
3.694622755
3.694718168
3.694812634
3.694906177
3.694998825
3.695090604
3.695181546
3.695271681
3.695361041
3.695449661
3.695537577
3.695624827
3.695711449
3.695797485
3.695882979
3.695967974
3.696052518
3.69613666
3.696220451
3.696303944
3.696387193
3.696470257
3.696553196
3.696636071
3.696718948
3.696801893
3.696884978
3.696968273
3.697051856
3.697135804
3.697220199
3.697305125
3.697390671
3.697476927
3.697563989
3.697651955
3.697740927
3.697831012
3.69792232
3.698014965
3.698109066
3.698204748
3.698302139
3.698401372
3.698502587
3.698605928
3.698711545
3.698819594
3.698930239
3.699043648
3.699159998
3.699279471
3.699402259
3.69952856
3.699658582
3.69979254
3.699930658
3.700073173
3.700220327
3.700372375
3.700529584
3.700692229
3.700860601
3.701035001
3.701215743
3.701403156
3.701597584
3.701799385
3.702008932
3.702226616
3.702452846
3.702688048
3.702932669
3.703187174
3.703452051
3.703727809
3.704014982
3.704314128
3.704625829
3.704950698
3.705289372
3.705642524
3.706010853
3.706395095
3.706796021
3.707214439
3.707651197
3.708107184
3.708583335
3.709080628
3.709600095
3.710142819
3.710709937
3.711302649
3.711922217
3.71256997
3.713247311
3.713955717
3.714696752
3.715472065
3.716283402
3.71713261
3.718021649
3.718952597
3.719927661
3.720949186
3.722019673
3.723141785
3.724318369
3.725552466
3.726847338
3.728206483
3.729633662
3.731132925
3.732708644
3.734365545
3.736108752
3.737943827
3.739876835
3.741914399
3.744063769
3.746332908
3.748730593
3.751266536
3.753951518
3.756797557
3.759818096
3.763028246
3.766445072
3.770087941
3.773978955
3.778143491
3.782610813
3.787414944
3.792595727
3.798200151
3.804284094
3.81091456
3.818172627
3.82615728
3.834990473
3.844823716
3.855846455
3.868295892
3.882466502
3.898713049
3.917425339
3.938924501
3.963129797
3.988654201
2.287201815
2.286371829
2.284799766
2.282512912
2.27954206
2.275955196
2.271875684
2.267463935
2.262927147
2.258537385
2.254517504
2.25094977
2.247808901
2.245044113
2.2426066
2.240455339
2.238557289
2.236883639
2.235409103
2.234113496
2.23298026
2.231997434
2.231155127
2.230446597
2.229865991
2.22940771
2.229061302
2.228807757
2.228622846
2.228488645
2.228424425
2.228476125
2.228604035
2.228746488
2.228843257
2.2288515
2.228755362
2.228567023
2.228398326
2.228409604
2.228590585
2.228853872
2.229131795
2.229384562
2.229592358
2.229750995
2.229861134
2.229924755
2.229947024
2.229933073
2.229888463
2.229816659
2.229722994
2.22961038
2.229483763
2.229345284
2.229194682
2.229034475
2.228865688
2.228691616
2.228512958
2.228328298
2.228138829
2.227944224
2.227746721
2.227547028
2.227348099
2.227149354
2.226948143
2.226744519
2.226537158
2.226327247
2.226114412
2.225900844
2.225686339
2.225468704
2.225248623
2.225025635
2.224801979
2.224577595
2.224350858
2.224123099
2.223893692
2.22366016
2.223422993
2.223181504
2.222937633
2.222691389
2.222441491
2.22218756
2.221928352
2.221665262
2.221397402
2.221125576
2.220848257
2.220565771
2.22027623
2.219979564
2.21967366
2.219358265
2.219031011
2.218691715
2.218338943
2.217975324
2.217605798
2.21722273
2.216821415
2.216397196
2.21594884
2.215474162
2.214970026
2.214436137
2.213870282
2.213267767
2.212626847
2.211947848
2.211233061
2.210482085
2.20969587
2.208872747
2.208012693
2.207113761
2.206175279
2.205193371
2.204161043
2.203072687
2.201920875
2.200698699
2.199396081
2.198002686
2.196506997
2.194894668
2.193146666
2.191237717
2.189138033
2.186800722
2.184183238
2.1812469
2.177949795
2.174249991
2.170128705
2.16563525
2.160937287
2.156265379
2.151516832
2.14649659
2.14101223
2.134889214
2.128003166
2.120340481
2.112007893
2.103237463
2.09430134
2.085119863
2.07555403
2.065630754
2.055527258
2.045289276
2.034922727
2.024443207
2.013898474
2.003377434
1.992995342
1.982865208
1.972985212
1.96302522
1.95243766
1.940915531
1.928344838
1.914698663
1.899979198
1.884200155
1.867397949
1.849660142
1.831175256
1.812264203
1.793330822
1.774648325
1.756147802
1.737482162
1.718249645
1.698523898
1.678670508
1.658827166
1.639323401
1.61971158
1.599114756
1.577424015
1.554819581
1.531553821
1.507492651
1.482213683
1.455265173
1.426679278
1.396815292
1.365861419
1.333780701
1.3005655
1.266364868
1.231134127
1.194539989
1.156376614
1.117061836
1.076595646
1.034749452
0.9912798694
0.9451333406
0.895352817
0.8403250885
0.7785794378
0.7082707739
0.6271457707
0.5332215974
0.4254610755
0.3058095946
0.1874093094
0.09560479865
0.06295047372
0.1195876954
0.296978118
0.6654627877
1.243001969
1.865860951
2.41911571
2.876191985
3.235062935
3.500617055
3.685125547
3.87944741
4.07471805
4.143999009
4.1386663
4.064457476
3.96684416
3.864059636
3.778247401
3.712946106
3.667675127
3.638369491
3.620904492
3.612324382
3.609877436
3.609620304
3.613566901
3.617972582
3.62362367
3.629353097
3.635230463
3.640872391
3.646266225
3.651324947
3.6560177
3.66035648
3.664322878
3.667952863
3.671248799
3.674247656
3.676962281
3.679424698
3.681651885
3.683669302
3.685493674
3.687143907
3.688632987
3.689973552
3.691173694
3.692240451
3.693179583
3.694001116
3.694725578
3.695386182
3.696011847
3.696596492
3.697143815
3.697646037
3.698100052
3.698501979
3.698854925
3.699166685
3.699449068
3.699709763
3.699953572
3.700183507
3.700401614
3.700609494
3.70080842
3.700999567
3.701184212
3.701363927
3.701539192
3.701710509
3.701878353
3.702043287
3.702205753
3.70236612
3.702524912
3.702682435
3.702838994
3.702994805
3.703150083
3.703305026
3.703459821
3.703614626
3.703769577
3.70392479
3.704080369
3.704236409
3.704392991
3.704550189
3.704708062
3.704866667
3.70502605
3.705186254
3.705347316
3.705509265
3.705672127
3.705835921
3.706000664
3.706166368
3.70633304
3.706500685
3.706669305
3.706838896
3.707009453
3.707180968
3.70735343
3.707526825
3.707701137
3.707876349
3.708052441
3.708229391
3.708407178
3.708585778
3.708765164
3.708945312
3.709126195
3.709307786
3.709490057
3.709672982
3.709856533
3.710040682
3.710225401
3.710410662
3.710596438
3.710782701
3.710969423
3.711156577
3.711344136
3.711532071
3.711720355
3.711908961
3.712097862
3.712287031
3.71247644
3.712666062
3.712855869
3.713045836
3.713235934
3.713426138
3.713616418
3.71380675
3.713997106
3.714187459
3.714377782
3.714568048
3.714758231
3.714948304
3.715138239
3.715328011
3.715517592
3.715706957
3.715896079
3.716084931
3.716273488
3.716461721
3.716649606
3.716837116
3.717024225
3.717210906
3.717397134
3.717582882
3.717768124
3.717952835
3.718136987
3.718320556
3.718503516
3.718685839
3.718867502
3.719048477
3.719228739
3.719408263
3.719587023
3.719764994
3.71994215
3.720118466
3.720293917
3.72046848
3.720642129
3.72081484
3.720986591
3.721157357
3.721327116
3.721495845
3.721663524
3.72183013
3.721995643
3.722160043
3.722323311
3.722485428
3.722646376
3.722806138
3.722964698
3.723122038
3.723278145
3.723433004
3.723586602
3.723738926
3.723889965
3.724039706
3.724188141
3.72433526
3.724481054
3.724625515
3.724768637
3.724910414
3.725050842
3.725189914
3.725327629
3.725463984
3.725598977
3.725732608
3.725864877
3.725995786
3.726125336
3.72625353
3.726380374
3.726505872
3.72663003
3.726752855
3.726874356
3.726994543
3.727113426
3.727231016
3.727347328
3.727462374
3.727576171
3.727688735
3.727800084
3.727910239
3.72801922
3.72812705
3.728233751
3.728339349
3.728443871
3.728547345
3.728649802
3.728751272
3.728851788
3.728951387
3.729050105
3.72914798
3.729245053
3.729341367
3.729436965
3.729531895
3.729626205
3.729719945
3.729813169
3.729905932
3.729998291
3.730090307
3.730182042
3.730273561
3.730364932
3.730456226
3.730547514
3.730638875
3.730730386
3.730822131
3.730914194
3.731006665
3.731099636
3.731193203
3.731287465
3.731382527
3.731478494
3.73157548
3.7316736
3.731772974
3.731873728
3.731975992
3.732079901
3.732185595
3.732293221
3.73240293
3.73251488
3.732629235
3.732746167
3.732865852
3.732988476
3.733114231
3.733243317
3.733375943
3.733512326
3.733652692
3.733797278
3.733946328
3.734100099
3.734258858
3.734422883
3.734592464
3.734767904
3.734949519
3.735137639
3.735332607
3.735534782
3.735744539
3.735962269
3.736188381
3.736423301
3.736667474
3.736921367
3.737185465
3.737460278
3.737746337
3.738044197
3.738354442
3.738677675
3.739014536
3.739365687
3.739731826
3.740113681
3.740512015
3.740927627
3.741361355
3.741814075
3.742286708
3.742780217
3.743295616
3.743833964
3.744396377
3.744984026
3.745598139
3.746240011
3.746911
3.74761254
3.748346138
3.749113383
3.749915951
3.750755612
3.751634232
3.752553785
3.753516362
3.754524174
3.75557957
3.756685037
3.757843224
3.759056943
3.760329197
3.761663185
3.763062329
3.764530289
3.76607099
3.767688646
3.76938779
3.771173307
3.773050472
3.775024995
3.777103069
3.779291429
3.781597422
3.784029045
3.786595076
3.789305168
3.792169967
3.795201249
3.798412083
3.801817029
3.805432361
3.80927634
3.813369549
3.817735274
3.822399987
3.827393919
3.832751733
3.838513329
3.844724818
3.851439665
3.858719963
3.866637793
3.875276546
3.884731399
3.895108709
3.906521285
3.919075434
3.932841681
3.94779017
3.963662723
3.979735756
3.994450585
2.332009994
2.331196525
2.32968212
2.327532456
2.324811968
2.321600682
2.318005697
2.314160534
2.310223192
2.306365673
2.30272883
2.299388339
2.29636215
2.293639325
2.291198211
2.289014673
2.287065408
2.285328382
2.283783083
2.282410186
2.281195524
2.280128105
2.279197909
2.278396551
2.277716775
2.277151318
2.276690796
2.27632297
2.27603335
2.275811227
2.275656228
2.275570106
2.275531195
2.275506203
2.275462245
2.275376855
2.275243832
2.275081121
2.274941158
2.274882383
2.274905177
2.274978359
2.275065622