/*--------------------------------*- C++ -*----------------------------------*\
| =========                 |                                                 |
| \\      /  F ield         | OpenFOAM: The Open Source CFD Toolbox           |
|  \\    /   O peration     | Version:  v2006                                 |
|   \\  /    A nd           | Website:  www.openfoam.com                      |
|    \\/     M anipulation  |                                                 |
\*---------------------------------------------------------------------------*/
FoamFile
{
    version     2.0;
    format      ascii;
    class       volScalarField;
    location    "0.075";
    object      theta1;
}
// * * * * * * * * * * * * * * * * * * * * * * * * * * * * * * * * * * * * * //

dimensions      [0 0 0 0 0 0 0];


internalField   nonuniform List<scalar> 
72000
(
2.945602186
2.950408745
2.959468681
2.967644062
2.974332917
2.977922665
2.992324629
3.027044131
3.014912321
2.971093923
2.956851492
2.963673453
2.969315265
2.974100489
2.977349797
2.981202031
2.984143063
2.985665632
2.988176626
2.98935671
2.991233227
2.991855816
2.992799189
2.992395299
2.992503717
2.99179021
2.990387488
2.988324616
2.977128138
2.945841535
2.883004075
2.872538476
2.863004305
2.852962097
2.836261616
2.803856487
2.754863573
2.685290984
2.585960062
2.550237247
2.529648362
2.513848768
2.50119087
2.490460422
2.482231086
2.475130117
2.468962978
2.464419945
2.459996031
2.457073988
2.45372725
2.451852962
2.449264037
2.448060157
2.446466199
2.445050549
2.444117682
2.442758482
2.442415003
2.441741958
2.440632348
2.44038121
2.439586733
2.439773796
2.438966766
2.439073055
2.438639164
2.438008985
2.438009072
2.437274446
2.437485248
2.437106607
2.437168334
2.436806478
2.436385538
2.436401543
2.435737702
2.436105772
2.435756872
2.435270857
2.435174903
2.434977207
2.434130271
2.43431505
2.433785215
2.433853162
2.433608971
2.43299249
2.433092997
2.432292659
2.43242402
2.432005743
2.432417227
2.431851845
2.432201527
2.431694779
2.432208892
2.431918927
2.432103728
2.432002537
2.432391821
2.432257734
2.432690513
2.43242424
2.433147731
2.433226483
2.433011834
2.433742755
2.434001227
2.433934656
2.434751098
2.435058854
2.435400299
2.436353283
2.436696479
2.437821659
2.438669861
2.439904325
2.440953223
2.4427222
2.443848611
2.445781354
2.447250582
2.448559866
2.45058354
2.452192079
2.454637864
2.456306576
2.458290796
2.460713297
2.46320272
2.465402438
2.467999864
2.469799712
2.471657813
2.469697676
2.464460329
2.456406744
2.445352135
2.430402069
2.40960043
2.378863281
2.329701487
2.326884989
2.329133144
2.334703597
2.342347266
2.352303395
2.360385267
2.366790885
2.369076701
2.358952975
2.375261536
2.392384151
2.402689638
2.403322282
2.4163322
2.429568682
2.443909343
2.458344484
2.473465031
2.488740738
2.504492313
2.520651964
2.548257431
2.590024287
2.62096533
2.65001061
2.679764143
2.710436318
2.742165198
2.774968941
2.8086308
2.842351225
2.873909332
2.904286534
2.937290977
2.980599102
3.030118873
3.088943409
3.137839498
3.180884419
3.237551271
3.286651564
3.344223305
3.408290013
3.4728479
3.542253446
3.614373274
3.6950084
3.780598409
3.872781522
3.970178225
4.075873456
4.190594396
4.312380622
4.443828171
4.586769739
4.737355284
4.897398789
5.069199703
5.260680839
5.469357315
5.687555773
5.927499504
6.182088725
6.458761112
6.776119101
7.147162468
7.585014782
8.112498636
8.755990954
9.553841177
10.56107558
11.85505094
13.54936875
15.79781658
18.81949103
22.89754305
28.35800658
36.78213496
55.88005251
57.53822245
58.57161959
59.03967732
59.34110873
59.53860671
59.67557696
59.77303741
59.84131046
59.88297101
59.90920735
59.92685171
59.94011462
59.95024083
59.95741861
59.96325592
59.96815284
59.97233072
59.97590168
59.97904682
59.98189515
59.98447262
59.98668275
59.98854049
59.99010031
59.99141491
59.99252877
59.99347766
59.99429031
59.9949897
59.99559431
59.99611904
59.99657612
59.9969756
59.99732569
59.99763326
59.99790408
59.99814303
59.99835424
59.99854121
59.99870697
59.99885411
59.99898488
59.99910122
59.99920484
59.99929722
59.99937982
59.9994539
59.99951972
59.99957704
59.99962874
59.99967527
59.9997171
59.99975466
59.99978842
59.99981877
59.99984575
59.99986914
59.99988933
59.99990707
59.99992276
59.99993672
59.99994914
59.99996021
59.99997006
59.99997883
59.99998663
59.99999359
59.9999998
60.00000536
60.00001034
60.0000148
60.00001881
60.00002241
60.00002565
60.00002856
60.00003118
60.00003354
60.00003566
60.00003757
60.0000393
60.00004085
60.00004226
60.00004352
60.00004467
60.0000457
60.00004664
60.00004749
60.00004826
60.00004896
60.0000496
60.00005018
60.0000507
60.00005119
60.00005163
60.00005203
60.0000524
60.00005274
60.00005305
60.00005334
60.00005361
60.00005386
60.00005409
60.0000543
60.00005451
60.0000547
60.00005488
60.00005504
60.0000552
60.00005536
60.0000555
60.00005564
60.00005577
60.0000559
60.00005603
60.00005615
60.00005626
60.00005637
60.00005648
60.00005659
60.0000567
60.0000568
60.0000569
60.000057
60.0000571
60.0000572
60.00005729
60.00005739
60.00005748
60.00005757
60.00005767
60.00005776
60.00005785
60.00005794
60.00005803
60.00005812
60.00005821
60.0000583
60.00005839
60.00005848
60.00005857
60.00005865
60.00005874
60.00005883
60.00005892
60.000059
60.00005909
60.00005918
60.00005926
60.00005935
60.00005943
60.00005952
60.0000596
60.00005969
60.00005977
60.00005985
60.00005994
60.00006002
60.0000601
60.00006019
60.00006027
60.00006035
60.00006043
60.00006051
60.00006059
60.00006067
60.00006074
60.00006082
60.0000609
60.00006098
60.00006105
60.00006113
60.0000612
60.00006127
60.00006135
60.00006142
60.00006149
60.00006156
60.00006163
60.0000617
60.00006177
60.00006183
60.0000619
60.00006196
60.00006203
60.00006209
60.00006215
60.00006221
60.00006227
60.00006233
60.00006238
60.00006244
60.00006249
60.00006255
60.0000626
60.00006265
60.0000627
60.00006274
60.00006279
60.00006283
60.00006288
60.00006292
60.00006296
60.000063
60.00006303
60.00006307
60.0000631
60.00006313
60.00006316
60.00006319
60.00006322
60.00006324
60.00006327
60.00006329
60.00006331
60.00006333
60.00006334
60.00006336
60.00006337
60.00006338
60.00006339
60.0000634
60.0000634
60.00006341
60.00006341
60.00006341
60.00006341
60.0000634
60.0000634
60.00006339
60.00006338
60.00006337
60.00006335
60.00006334
60.00006332
60.0000633
60.00006328
60.00006326
60.00006323
60.0000632
60.00006317
60.00006314
60.00006311
60.00006307
60.00006304
60.000063
60.00006295
60.00006291
60.00006287
60.00006282
60.00006277
60.00006272
60.00006266
60.00006261
60.00006255
60.00006249
60.00006243
60.00006237
60.0000623
60.00006224
60.00006217
60.0000621
60.00006203
60.00006195
60.00006188
60.0000618
60.00006172
60.00006164
60.00006155
60.00006147
60.00006138
60.00006129
60.0000612
60.00006111
60.00006102
60.00006093
60.00006083
60.00006073
60.00006063
60.00006053
60.00006043
60.00006033
60.00006023
60.00006012
60.00006002
60.00005991
60.00005981
60.0000597
60.00005959
60.00005948
60.00005937
60.00005926
60.00005915
60.00005904
60.00005893
60.00005882
60.00005871
60.0000586
60.00005849
60.00005838
60.00005827
60.00005817
60.00005806
60.00005796
60.00005785
60.00005775
60.00005765
60.00005756
60.00005746
60.00005737
60.00005728
60.0000572
60.00005712
60.00005704
60.00005696
60.0000569
60.00005683
60.00005677
60.00005672
60.00005667
60.00005663
60.00005659
60.00005656
60.00005654
60.00005652
60.00005652
60.00005652
60.00005653
60.00005655
60.00005659
60.00005663
60.00005669
60.00005676
60.00005684
60.00005694
60.00005706
60.00005719
60.00005734
60.00005751
60.0000577
60.00005791
60.00005814
60.0000584
60.00005868
60.00005898
60.00005932
60.00005968
60.00006007
60.0000605
60.00006096
60.00006146
60.000062
60.00006258
60.0000632
60.00006386
60.00006457
60.00006533
60.00006614
60.000067
60.0000679
60.00006885
60.00006985
60.00007089
60.00007195
60.00007303
60.0000741
60.00007512
60.00007604
60.00007677
60.00007717
60.00007705
60.00007607
60.00007366
60.00006886
60.00006
60.00004393
60.00001485
59.99996408
59.99990223
2.615319823
2.617648765
2.621700614
2.626064401
2.630046557
2.633584798
2.639124495
2.646643112
2.643825186
2.631048127
2.623615855
2.622550688
2.623200385
2.624329854
2.625492673
2.62655283
2.627396437
2.627981816
2.628318475
2.628364813
2.628127655
2.627542178
2.626589819
2.62513878
2.623108982
2.620238936
2.616096479
2.609713367
2.598610556
2.580427294
2.556566805
2.542106587
2.529968969
2.517047703
2.500122788
2.476180822
2.444179813
2.404187893
2.359892141
2.331124371
2.311568686
2.296869785
2.285239125
2.275793861
2.268070298
2.261634911
2.256220736
2.251698368
2.247859264
2.244643753
2.241885187
2.239576026
2.237568966
2.235886919
2.234394237
2.233073725
2.231926418
2.230901373
2.230050585
2.229267758
2.228529969
2.227896488
2.227312609
2.226817743
2.226345761
2.225947747
2.225528474
2.225093466
2.224724748
2.22434331
2.224022445
2.223693207
2.223408195
2.223082645
2.22272734
2.222408297
2.222076663
2.221791334
2.221470956
2.221113373
2.220793732
2.220442764
2.220054896
2.219711022
2.219358148
2.21905407
2.218719979
2.21836428
2.218093022
2.217822016
2.2176105
2.217412441
2.217278224
2.217145744
2.217083129
2.217022965
2.217034151
2.217047434
2.217125992
2.217218345
2.217379314
2.217558838
2.217820451
2.218097878
2.21845052
2.218812656
2.219188988
2.219652106
2.220132888
2.220636393
2.221241351
2.221864147
2.222524317
2.223293946
2.224116768
2.225057113
2.22606018
2.227176793
2.228379915
2.229703052
2.231084922
2.232584391
2.234122244
2.235706616
2.237392015
2.239110709
2.240922349
2.242739548
2.244606675
2.246505278
2.248376865
2.250128692
2.25164159
2.252668293
2.252813045
2.251197343
2.247604976
2.242050225
2.234431202
2.224344592
2.211163701
2.194478847
2.176062788
2.170880821
2.171379075
2.175176794
2.181014633
2.188000704
2.194406973
2.199890516
2.20407335
2.207597465
2.218480878
2.231039634
2.242021524
2.250966714
2.26315782
2.276515231
2.290759574
2.305652592
2.32136588
2.33789934
2.355582118
2.375271499
2.400320165
2.430740918
2.459206176
2.48700796
2.51511953
2.543937797
2.573623294
2.6041978
2.635526285
2.667240665
2.69873431
2.730734158
2.765377829
2.8056066
2.85129613
2.902360531
2.95195762
3.001497895
3.05815602
3.114730086
3.177345628
3.245866882
3.31667662
3.391099541
3.469364936
3.555798203
3.649853758
3.752577984
3.861635252
3.978960198
4.105176523
4.243871137
4.3962245
4.561451035
4.74382676
4.9459302
5.171899849
5.42586538
5.711473262
6.033898861
6.398819575
6.814310645
7.293154445
7.852982141
8.514980684
9.306278973
10.25782944
11.41046206
12.81895411
14.55510307
16.71541774
19.42626217
22.85522016
27.22882895
32.81524263
39.78179772
47.37742593
53.43268692
55.83504074
57.20110819
58.00187309
58.55487391
58.94348001
59.22029822
59.41589737
59.55623784
59.65110955
59.71852447
59.76931156
59.80952371
59.84091682
59.86621392
59.88706162
59.90441472
59.91882264
59.93082719
59.94092377
59.94938828
59.95648037
59.96243561
59.96745256
59.97170084
59.97531681
59.97841113
59.98107172
59.98336953
59.98536184
59.98709542
59.9886086
59.98993305
59.99109532
59.99211769
59.99301881
59.99381453
59.9945183
59.99514165
59.99569449
59.99618538
59.99662174
59.99701001
59.99735579
59.99766398
59.99793887
59.99818418
59.99840275
59.9985968
59.99876934
59.99892481
59.99906449
59.99918988
59.99930228
59.99940289
59.99949247
59.99957148
59.99964037
59.99970059
59.99975372
59.99980087
59.99984283
59.99988021
59.99991352
59.99994318
59.99996958
59.99999307
60.00001401
60.00003274
60.00004951
60.00006456
60.00007806
60.00009019
60.00010109
60.00011089
60.00011971
60.00012765
60.0001348
60.00014124
60.00014705
60.00015229
60.00015703
60.00016131
60.00016517
60.00016867
60.00017184
60.00017472
60.00017732
60.0001797
60.00018185
60.00018382
60.00018561
60.00018725
60.00018875
60.00019013
60.0001914
60.00019256
60.00019364
60.00019464
60.00019556
60.00019642
60.00019722
60.00019798
60.00019868
60.00019935
60.00019997
60.00020057
60.00020113
60.00020167
60.00020219
60.00020268
60.00020316
60.00020361
60.00020406
60.00020449
60.00020491
60.00020532
60.00020572
60.00020611
60.00020649
60.00020687
60.00020724
60.0002076
60.00020796
60.00020832
60.00020868
60.00020903
60.00020937
60.00020972
60.00021006
60.0002104
60.00021074
60.00021108
60.00021142
60.00021175
60.00021209
60.00021242
60.00021275
60.00021308
60.00021341
60.00021374
60.00021407
60.0002144
60.00021472
60.00021505
60.00021538
60.0002157
60.00021602
60.00021635
60.00021667
60.00021699
60.00021731
60.00021763
60.00021795
60.00021826
60.00021858
60.00021889
60.00021921
60.00021952
60.00021983
60.00022014
60.00022044
60.00022075
60.00022105
60.00022135
60.00022166
60.00022195
60.00022225
60.00022254
60.00022284
60.00022313
60.00022341
60.0002237
60.00022398
60.00022426
60.00022454
60.00022481
60.00022509
60.00022535
60.00022562
60.00022588
60.00022614
60.0002264
60.00022665
60.0002269
60.00022715
60.00022739
60.00022763
60.00022787
60.0002281
60.00022832
60.00022855
60.00022876
60.00022898
60.00022919
60.00022939
60.00022959
60.00022979
60.00022998
60.00023017
60.00023035
60.00023053
60.0002307
60.00023086
60.00023103
60.00023118
60.00023133
60.00023148
60.00023162
60.00023175
60.00023188
60.00023201
60.00023213
60.00023224
60.00023235
60.00023245
60.00023254
60.00023263
60.00023272
60.00023279
60.00023286
60.00023293
60.00023299
60.00023304
60.00023309
60.00023313
60.00023317
60.0002332
60.00023322
60.00023324
60.00023325
60.00023326
60.00023326
60.00023325
60.00023323
60.00023321
60.00023319
60.00023316
60.00023312
60.00023307
60.00023302
60.00023296
60.0002329
60.00023283
60.00023275
60.00023267
60.00023258
60.00023249
60.00023239
60.00023228
60.00023217
60.00023205
60.00023193
60.0002318
60.00023166
60.00023152
60.00023137
60.00023122
60.00023106
60.0002309
60.00023073
60.00023055
60.00023037
60.00023019
60.00023
60.0002298
60.0002296
60.0002294
60.00022919
60.00022897
60.00022876
60.00022853
60.00022831
60.00022808
60.00022784
60.00022761
60.00022736
60.00022712
60.00022687
60.00022663
60.00022637
60.00022612
60.00022587
60.00022561
60.00022535
60.00022509
60.00022483
60.00022457
60.00022431
60.00022405
60.0002238
60.00022354
60.00022328
60.00022303
60.00022278
60.00022253
60.00022229
60.00022205
60.00022182
60.00022159
60.00022137
60.00022116
60.00022095
60.00022075
60.00022057
60.00022039
60.00022022
60.00022007
60.00021993
60.0002198
60.00021969
60.0002196
60.00021953
60.00021947
60.00021944
60.00021942
60.00021943
60.00021947
60.00021953
60.00021962
60.00021974
60.00021989
60.00022007
60.00022029
60.00022054
60.00022084
60.00022117
60.00022155
60.00022198
60.00022246
60.000223
60.00022359
60.00022424
60.00022496
60.00022575
60.00022662
60.00022756
60.00022859
60.00022971
60.00023093
60.00023224
60.00023367
60.0002352
60.00023686
60.00023864
60.00024056
60.00024263
60.00024485
60.00024725
60.00024982
60.00025258
60.00025555
60.00025874
60.00026216
60.00026584
60.00026978
60.00027402
60.00027856
60.00028344
60.00028867
60.00029428
60.00030029
60.00030673
60.00031361
60.00032095
60.00032875
60.00033699
60.00034564
60.0003546
60.0003637
60.00037264
60.00038089
60.00038749
60.0003907
60.00038787
60.00037373
60.00033918
60.00026806
60.00013068
2.38670571
2.38809215
2.390474554
2.393297156
2.396150037
2.398895594
2.401791709
2.404132995
2.403326102
2.399225274
2.39579669
2.394275228
2.393827891
2.393858981
2.394059226
2.394249611
2.394315722
2.394192961
2.39383893
2.393212061
2.39227416
2.390969388
2.389232466
2.386954638
2.383992196
2.380107516
2.374930788
2.367869207
2.358094044
2.345255782
2.330648509
2.317768461
2.305454735
2.292220944
2.27651955
2.257132624
2.233796076
2.20740118
2.180773622
2.159297027
2.142639892
2.129487218
2.118871554
2.110176292
2.103030292
2.097064661
2.092042772
2.087808968
2.084218899
2.081176497
2.078581896
2.076374903
2.074481508
2.072859506
2.071445972
2.070207867
2.069133294
2.068193586
2.067380202
2.066654751
2.066000312
2.065425512
2.064911832
2.064461525
2.064054199
2.063690994
2.063344235
2.06301146
2.062709768
2.062425503
2.062169276
2.061924852
2.061697747
2.061464698
2.061226071
2.061001205
2.06078172
2.060575919
2.060363841
2.060144116
2.059933792
2.05971646
2.059494913
2.059288772
2.059091893
2.058913616
2.058733832
2.058555224
2.058399188
2.058260624
2.05815645
2.058081895
2.058052457
2.058067427
2.058144918
2.058260854
2.058424251
2.058624106
2.058873977
2.059166949
2.059523565
2.059955623
2.060482907
2.061070047
2.06171638
2.062403023
2.063128335
2.063905155
2.06472083
2.065578127
2.06649228
2.067450361
2.068458337
2.069535049
2.070676618
2.071898763
2.073197918
2.074588134
2.076067337
2.077642251
2.079301738
2.081050396
2.082869652
2.084755251
2.086712572
2.088722592
2.090782424
2.092863925
2.094956007
2.097026002
2.099019205
2.100851189
2.102399534
2.103457634
2.10373545
2.102927212
2.100864351
2.097487017
2.092741115
2.086567251
2.079037942
2.070699718
2.063325221
2.060697932
2.061713218
2.065328046
2.070692219
2.077096006
2.08380538
2.090532579
2.09729208
2.104706917
2.1145935
2.125754716
2.136992858
2.148163826
2.160503568
2.173867559
2.188136681
2.203271515
2.219318257
2.236423587
2.25490866
2.275343355
2.298581682
2.3242687
2.350467846
2.377014189
2.404143138
2.432053774
2.460870798
2.490653788
2.521402307
2.553069088
2.585655306
2.619699912
2.656309876
2.69660006
2.740788554
2.788553485
2.83849304
2.891277409
2.949053717
3.011178791
3.078783213
3.151083428
3.227455002
3.308463942
3.395179105
3.489367209
3.591773061
3.703153451
3.823702544
3.954723401
4.097263865
4.253332828
4.424959241
4.614178652
4.824401078
5.059295906
5.323034891
5.620362239
5.957209876
6.340621082
6.779787486
7.285573052
7.872373848
8.559254435
9.369392448
10.33126878
11.48014828
12.85990383
14.52621399
16.54937597
19.01854073
22.03813122
25.72534557
30.16784521
35.35337678
41.12288878
46.83931169
51.32644178
53.94179268
55.63750145
56.78589879
57.60855488
58.21596466
58.66204928
58.97978184
59.20598864
59.36651248
59.4886782
59.58324054
59.65801725
59.71783223
59.76629964
59.80550634
59.83716506
59.86280284
59.883717
59.90089901
59.91511404
59.92694815
59.93686719
59.9452281
59.95232108
59.95836992
59.96355667
59.96802457
59.97188979
59.97524599
59.97817017
59.98072557
59.98296466
59.98493132
59.98666231
59.9881889
59.98953755
59.99073092
59.99178835
59.99272652
59.99355977
59.99430058
59.99495978
59.99554679
59.99606984
59.99653607
59.99695166
59.99732198
59.9976521
59.99794741
59.99821242
59.99844979
59.99866221
59.99885191
59.99902088
59.99917075
59.99930302
59.99941945
59.99952227
59.99961353
59.99969475
59.99976714
59.99983168
59.99988921
59.99994046
59.99998607
60.00002662
60.00006285
60.00009529
60.00012436
60.00015044
60.00017386
60.00019489
60.0002138
60.00023082
60.00024612
60.00025991
60.00027232
60.00028352
60.00029362
60.00030273
60.00031097
60.00031842
60.00032515
60.00033125
60.00033679
60.00034181
60.00034637
60.00035052
60.00035431
60.00035776
60.00036091
60.0003638
60.00036645
60.00036889
60.00037114
60.00037321
60.00037513
60.00037691
60.00037857
60.00038012
60.00038157
60.00038293
60.00038421
60.00038543
60.00038657
60.00038767
60.00038871
60.00038971
60.00039066
60.00039158
60.00039247
60.00039333
60.00039417
60.00039498
60.00039578
60.00039655
60.00039731
60.00039806
60.00039879
60.00039951
60.00040023
60.00040093
60.00040163
60.00040232
60.000403
60.00040368
60.00040436
60.00040503
60.0004057
60.00040636
60.00040702
60.00040768
60.00040834
60.000409
60.00040965
60.0004103
60.00041095
60.0004116
60.00041225
60.0004129
60.00041354
60.00041419
60.00041483
60.00041547
60.00041611
60.00041675
60.00041739
60.00041803
60.00041866
60.0004193
60.00041993
60.00042056
60.00042119
60.00042181
60.00042244
60.00042306
60.00042368
60.0004243
60.00042492
60.00042553
60.00042614
60.00042675
60.00042735
60.00042795
60.00042855
60.00042915
60.00042974
60.00043033
60.00043091
60.00043149
60.00043207
60.00043264
60.00043321
60.00043377
60.00043433
60.00043488
60.00043543
60.00043598
60.00043651
60.00043705
60.00043757
60.00043809
60.00043861
60.00043912
60.00043962
60.00044012
60.0004406
60.00044109
60.00044156
60.00044203
60.00044249
60.00044294
60.00044339
60.00044382
60.00044425
60.00044467
60.00044509
60.00044549
60.00044589
60.00044627
60.00044665
60.00044702
60.00044738
60.00044773
60.00044807
60.0004484
60.00044873
60.00044904
60.00044934
60.00044963
60.00044992
60.00045019
60.00045045
60.0004507
60.00045095
60.00045118
60.0004514
60.00045161
60.00045181
60.000452
60.00045218
60.00045235
60.00045251
60.00045265
60.00045279
60.00045291
60.00045303
60.00045313
60.00045322
60.00045331
60.00045338
60.00045344
60.00045349
60.00045352
60.00045355
60.00045357
60.00045357
60.00045356
60.00045355
60.00045352
60.00045348
60.00045343
60.00045337
60.0004533
60.00045322
60.00045312
60.00045302
60.00045291
60.00045278
60.00045265
60.00045251
60.00045235
60.00045219
60.00045201
60.00045183
60.00045163
60.00045143
60.00045122
60.000451
60.00045077
60.00045053
60.00045028
60.00045002
60.00044976
60.00044949
60.00044921
60.00044892
60.00044863
60.00044833
60.00044802
60.00044771
60.00044739
60.00044706
60.00044674
60.0004464
60.00044606
60.00044572
60.00044538
60.00044503
60.00044468
60.00044433
60.00044397
60.00044362
60.00044327
60.00044291
60.00044256
60.00044221
60.00044186
60.00044152
60.00044118
60.00044085
60.00044052
60.0004402
60.00043989
60.00043959
60.0004393
60.00043902
60.00043876
60.00043851
60.00043827
60.00043805
60.00043785
60.00043768
60.00043752
60.00043739
60.00043728
60.00043721
60.00043716
60.00043715
60.00043717
60.00043723
60.00043732
60.00043746
60.00043765
60.00043788
60.00043817
60.00043851
60.0004389
60.00043936
60.00043988
60.00044047
60.00044113
60.00044186
60.00044267
60.00044357
60.00044456
60.00044564
60.00044683
60.00044812
60.00044953
60.00045107
60.00045273
60.00045454
60.00045649
60.00045861
60.00046089
60.00046334
60.00046599
60.00046884
60.0004719
60.00047519
60.00047872
60.0004825
60.00048655
60.00049089
60.00049554
60.00050052
60.00050585
60.00051157
60.00051769
60.00052424
60.00053126
60.00053878
60.00054683
60.00055545
60.00056468
60.00057456
60.00058515
60.0005965
60.00060865
60.00062165
60.00063554
60.00065038
60.00066617
60.00068293
60.00070061
60.00071913
60.00073825
60.00075758
60.00077647
60.0007937
60.00080723
60.00081317
60.00080579
60.00077373
60.00069744
60.00054225
60.00024814
2.23549154
2.236341883
2.237790027
2.239552628
2.241375607
2.243086862
2.244562712
2.245395465
2.24494618
2.243231039
2.241397075
2.240085915
2.239253667
2.238713336
2.238301059
2.237892198
2.237394055
2.236739804
2.235877055
2.234756844
2.233330631
2.231540377
2.229314159
2.226553526
2.22312755
2.21885404
2.213489299
2.206730744
2.19832057
2.188303735
2.177301504
2.166264574
2.154976238
2.14280983
2.129079923
2.113340602
2.095702065
2.076871125
2.058374641
2.042132145
2.028537303
2.017281825
2.007937952
2.000136374
1.993583828
1.988053159
1.9833688
1.979394044
1.976013504
1.973135161
1.970678857
1.968581234
1.966784209
1.965241551
1.963909037
1.962754638
1.961756389
1.960891367
1.960142011
1.959486576
1.958910956
1.958408885
1.9579696
1.957586987
1.957250805
1.956955576
1.956690998
1.9564524
1.956240657
1.956051227
1.955883562
1.955731821
1.955593762
1.955462202
1.955336445
1.955221048
1.95511484
1.955018488
1.954926735
1.954839053
1.954759281
1.954684785
1.954617404
1.954563092
1.954521964
1.954495331
1.954477966
1.954468332
1.954463164
1.954475909
1.954518219
1.954594363
1.954710477
1.954865993
1.955064514
1.95530554
1.955592743
1.955925656
1.956308722
1.956743317
1.957236957
1.957793732
1.958417785
1.959104129
1.959857916
1.960659839
1.961504463
1.962392157
1.963318767
1.964285236
1.965296644
1.966352071
1.967454487
1.968608835
1.969815324
1.971086594
1.972430305
1.973855198
1.975364395
1.976961191
1.978643319
1.980410175
1.982254471
1.984169899
1.986149138
1.98817695
1.990238994
1.992312894
1.994375732
1.996392228
1.998310575
2.00005753
2.001533934
2.002613158
2.003130462
2.002943552
2.001943264
2.000093709
1.997378977
1.993904486
1.989955385
1.9861041
1.983378978
1.983007759
1.984961333
1.988812903
1.994083992
2.000331027
2.007181703
2.014468131
2.022236437
2.030788277
2.040577886
2.051328045
2.062654553
2.074504749
2.087184393
2.100745035
2.115187812
2.130543033
2.146803047
2.164116086
2.182699596
2.202841134
2.224773837
2.248270322
2.272727516
2.297945539
2.323948874
2.350821751
2.378651506
2.407516975
2.437506678
2.468735987
2.501409698
2.53588837
2.572756318
2.612584347
2.655640906
2.701933364
2.751325533
2.804287274
2.861714609
2.924201537
2.992809345
3.067272553
3.146647779
3.231489523
3.322695197
3.421397692
3.528620908
3.64526044
3.77225286
3.910983478
4.06310205
4.230051031
4.414000113
4.617764956
4.844955823
5.099275306
5.385118993
5.707867069
6.074244526
6.491914525
6.970833386
7.523239482
8.163491468
8.909989588
9.785091451
10.81713879
12.04026801
13.49573442
15.23497072
17.32256586
19.83358559
22.84743133
26.4251756
30.55747086
35.14596369
40.0015142
44.72531646
48.64871252
51.45737209
53.50029059
55.0217327
56.17914294
57.07375501
57.76365821
58.28899172
58.66568401
58.94263676
59.15405763
59.31692322
59.44539398
59.547175
59.62782006
59.69226044
59.74371461
59.78510812
59.81867876
59.84607426
59.86860981
59.88727414
59.90285998
59.9159423
59.927006
59.93640756
59.94444503
59.95134788
59.95730327
59.96246115
59.96694444
59.97085386
59.97427223
59.97726927
59.97990269
59.98222156
59.98426709
59.98607467
59.98767425
59.98909171
59.99034923
59.99146604
59.99245875
59.99334187
59.994128
59.99482817
59.99545209
59.9960084
59.99650494
59.99694875
59.99734551
59.99769988
59.99801607
59.99829779
59.99854837
59.99877085
59.99896812
59.99914312
59.99929871
59.99943731
59.99956094
59.99967125
59.99976968
59.99985746
59.99993568
60.00000532
60.0000673
60.00012271
60.0001723
60.00021676
60.00025664
60.00029243
60.00032457
60.00035347
60.00037945
60.00040283
60.00042388
60.00044285
60.00045995
60.00047538
60.0004893
60.00050188
60.00051325
60.00052355
60.00053287
60.00054133
60.000549
60.00055598
60.00056234
60.00056813
60.00057342
60.00057826
60.00058269
60.00058676
60.00059051
60.00059396
60.00059716
60.00060012
60.00060287
60.00060543
60.00060783
60.00061008
60.00061219
60.00061419
60.00061607
60.00061787
60.00061957
60.0006212
60.00062277
60.00062427
60.00062572
60.00062712
60.00062848
60.0006298
60.00063109
60.00063234
60.00063357
60.00063478
60.00063597
60.00063714
60.00063829
60.00063943
60.00064055
60.00064167
60.00064277
60.00064387
60.00064496
60.00064604
60.00064712
60.00064819
60.00064926
60.00065033
60.00065139
60.00065245
60.0006535
60.00065456
60.00065561
60.00065666
60.0006577
60.00065875
60.00065979
60.00066084
60.00066188
60.00066292
60.00066395
60.00066499
60.00066603
60.00066706
60.00066809
60.00066912
60.00067015
60.00067117
60.0006722
60.00067322
60.00067424
60.00067525
60.00067626
60.00067727
60.00067828
60.00067928
60.00068028
60.00068127
60.00068226
60.00068325
60.00068423
60.00068521
60.00068618
60.00068715
60.00068811
60.00068907
60.00069002
60.00069096
60.0006919
60.00069283
60.00069376
60.00069468
60.00069559
60.00069649
60.00069739
60.00069828
60.00069915
60.00070003
60.00070089
60.00070174
60.00070259
60.00070342
60.00070424
60.00070506
60.00070586
60.00070666
60.00070744
60.00070821
60.00070897
60.00070972
60.00071046
60.00071118
60.00071189
60.00071259
60.00071328
60.00071395
60.00071461
60.00071526
60.00071589
60.00071651
60.00071712
60.00071771
60.00071829
60.00071885
60.0007194
60.00071994
60.00072046
60.00072096
60.00072145
60.00072192
60.00072238
60.00072282
60.00072325
60.00072366
60.00072406
60.00072444
60.0007248
60.00072515
60.00072548
60.0007258
60.0007261
60.00072638
60.00072665
60.0007269
60.00072713
60.00072735
60.00072755
60.00072773
60.0007279
60.00072806
60.00072819
60.00072831
60.00072841
60.0007285
60.00072857
60.00072862
60.00072866
60.00072868
60.00072869
60.00072868
60.00072865
60.00072861
60.00072855
60.00072848
60.00072839
60.00072829
60.00072817
60.00072803
60.00072789
60.00072772
60.00072755
60.00072735
60.00072715
60.00072693
60.0007267
60.00072645
60.0007262
60.00072593
60.00072564
60.00072535
60.00072505
60.00072473
60.0007244
60.00072407
60.00072372
60.00072337
60.00072301
60.00072263
60.00072226
60.00072187
60.00072148
60.00072108
60.00072068
60.00072028
60.00071987
60.00071946
60.00071905
60.00071863
60.00071822
60.00071781
60.0007174
60.00071699
60.00071659
60.0007162
60.00071581
60.00071543
60.00071506
60.0007147
60.00071435
60.00071402
60.0007137
60.0007134
60.00071312
60.00071286
60.00071263
60.00071242
60.00071224
60.00071209
60.00071198
60.0007119
60.00071186
60.00071185
60.0007119
60.00071199
60.00071213
60.00071233
60.00071259
60.00071291
60.0007133
60.00071376
60.00071429
60.0007149
60.0007156
60.00071639
60.00071728
60.00071826
60.00071935
60.00072055
60.00072187
60.00072331
60.00072489
60.0007266
60.00072846
60.00073047
60.00073266
60.00073502
60.00073756
60.00074031
60.00074327
60.00074645
60.00074988
60.00075355
60.0007575
60.00076173
60.00076626
60.00077111
60.00077631
60.00078185
60.00078778
60.00079411
60.00080086
60.00080806
60.00081573
60.00082392
60.00083265
60.00084196
60.00085189
60.00086247
60.00087375
60.00088577
60.00089856
60.00091218
60.00092666
60.00094207
60.00095843
60.00097581
60.00099422
60.00101368
60.00103419
60.00105573
60.0010782
60.00110144
60.00112518
60.00114901
60.00117216
60.00119346
60.00121137
60.00122297
60.00122416
60.00120778
60.00116364
60.00107536
60.0009188
60.00066101
60.0002651
2.117051972
2.11758827
2.118485547
2.119570919
2.120675402
2.121652289
2.122358565
2.122595756
2.122174492
2.121142745
2.119889106
2.118717533
2.117705043
2.116814046
2.115972586
2.115106392
2.114148995
2.113043757
2.111739972
2.110185502
2.108332333
2.106126618
2.103501494
2.100373033
2.096638256
2.092171117
2.086827423
2.080467409
2.07301234
2.064539576
2.055321411
2.045657181
2.035499369
2.024598312
2.012680883
1.999622294
1.985581905
1.971085742
1.956970635
1.944096485
1.932825569
1.923146647
1.914892105
1.907854459
1.901820798
1.8966632
1.892256606
1.888490968
1.885270845
1.882515615
1.880155739
1.878132837