/*--------------------------------*- C++ -*----------------------------------*\
| =========                 |                                                 |
| \\      /  F ield         | OpenFOAM: The Open Source CFD Toolbox           |
|  \\    /   O peration     | Version:  v2006                                 |
|   \\  /    A nd           | Website:  www.openfoam.com                      |
|    \\/     M anipulation  |                                                 |
\*---------------------------------------------------------------------------*/
FoamFile
{
    version     2.0;
    format      ascii;
    class       volVectorField;
    location    "0.075";
    object      U;
}
// * * * * * * * * * * * * * * * * * * * * * * * * * * * * * * * * * * * * * //

dimensions      [0 1 -1 0 0 0 0];


internalField   nonuniform List<vector> 
72000
(
(-0.0001489590406 0.02981337976 0)
(-8.978362813e-05 0.02925760305 0)
(-7.565737913e-05 0.02903177672 0)
(-5.109896543e-05 0.02880188024 0)
(-3.950972251e-05 0.02861549041 0)
(-2.755123228e-05 0.02846688955 0)
(-1.948460575e-05 0.02835510225 0)
(1.368716059e-05 0.02834512332 0)
(0.000115199375 0.0280817759 0)
(3.106237103e-05 0.02771523665 0)
(-4.112001297e-05 0.0279211431 0)
(9.303027699e-05 0.02785774121 0)
(6.631644984e-05 0.02738058804 0)
(-5.038146198e-05 0.02743387673 0)
(-3.530403684e-05 0.0275521802 0)
(6.749552251e-06 0.02734489336 0)
(-1.661318066e-05 0.02734624589 0)
(4.702581234e-05 0.02733173853 0)
(6.545268075e-05 0.02709898056 0)
(5.551727521e-05 0.02681882286 0)
(-5.188912362e-05 0.02676950172 0)
(-5.625941893e-05 0.02692980547 0)
(-3.908946046e-05 0.02695032025 0)
(2.323157003e-06 0.02678658431 0)
(-2.205135999e-05 0.02657602425 0)
(-2.922312062e-05 0.02659870169 0)
(5.982366999e-06 0.02649307381 0)
(-6.809134061e-06 0.02629789701 0)
(-2.114535843e-05 0.02620180941 0)
(-4.149621681e-05 0.02611633111 0)
(-2.733249881e-05 0.0260349867 0)
(-6.346693498e-05 0.0260773682 0)
(-7.873398349e-05 0.02611846814 0)
(-6.928483053e-05 0.02605265255 0)
(-2.462760544e-05 0.0259309 0)
(-1.900484371e-05 0.0257564654 0)
(-2.094929765e-05 0.02565202418 0)
(-2.679425329e-05 0.02558472581 0)
(-7.042302326e-06 0.02533667702 0)
(-4.265990958e-05 0.02559594437 0)
(0.0002384936551 0.02532765358 0)
(0.0001371835882 0.02444589208 0)
(-0.0001070724189 0.02489414582 0)
(-2.959680376e-06 0.02525083205 0)
(9.879000971e-05 0.02507420682 0)
(0.0001297381419 0.02480892396 0)
(-3.475071223e-05 0.02484366159 0)
(8.892195659e-05 0.02461825513 0)
(-5.645057662e-05 0.02425526185 0)
(-6.85708731e-05 0.0246397062 0)
(5.909647872e-05 0.02441192651 0)
(-8.16630302e-05 0.02440178333 0)
(3.074682049e-05 0.02433063176 0)
(-4.546218007e-05 0.02426544209 0)
(9.017423534e-05 0.02422977182 0)
(-6.646721541e-05 0.02422011699 0)
(0.0001088168596 0.02441470398 0)
(0.0001241464241 0.02383514111 0)
(2.420428717e-05 0.0237621074 0)
(3.672927786e-05 0.02422405143 0)
(0.0001725174872 0.02425013068 0)
(0.0002968326322 0.02345504484 0)
(0.000103691011 0.02258022484 0)
(-0.0002589294217 0.02305552277 0)
(-0.0001951508563 0.02368137006 0)
(-7.225385763e-05 0.02366603646 0)
(8.972153337e-05 0.02354749152 0)
(7.338587367e-05 0.02326484333 0)
(7.830741566e-05 0.02323498004 0)
(9.020401645e-05 0.02309903268 0)
(-5.044007806e-05 0.02310826472 0)
(-5.5188208e-05 0.0231831724 0)
(-4.67707084e-06 0.02320870207 0)
(0.0001084141834 0.0229043053 0)
(-7.6892445e-05 0.02293406302 0)
(9.256889033e-05 0.0231467736 0)
(9.791479598e-05 0.02263461732 0)
(2.502335847e-05 0.02261158063 0)
(8.18186456e-05 0.02227465958 0)
(-0.0002498204845 0.02225439096 0)
(-0.0001144011758 0.02273978951 0)
(-6.170721031e-05 0.02287397199 0)
(5.015375359e-05 0.02289993355 0)
(8.183389886e-05 0.02247973879 0)
(-7.108621189e-05 0.02262997276 0)
(9.158415597e-05 0.02252761748 0)
(-9.120050891e-05 0.02219427968 0)
(-0.0002343358421 0.02274041129 0)
(-6.983147965e-05 0.02309681584 0)
(0.0001267548401 0.02277771042 0)
(0.0001088584527 0.02215048242 0)
(-7.33234749e-05 0.0219486411 0)
(-0.0002031904935 0.02264805148 0)
(4.464528665e-05 0.02264037226 0)
(-6.414293314e-05 0.02220478014 0)
(-4.997651743e-05 0.02233090193 0)
(-7.21937562e-05 0.02204115605 0)
(-0.0001718218154 0.02249681837 0)
(7.697224416e-05 0.0229500663 0)
(0.0001633274903 0.0226740412 0)
(0.0001680269912 0.02241549698 0)
(4.912748316e-05 0.02229732877 0)
(-8.898173838e-06 0.02232127018 0)
(-8.812107755e-05 0.02213076755 0)
(-0.0001723450595 0.02232252079 0)
(-0.000173408995 0.02283597547 0)
(-0.0001611117816 0.0225921547 0)
(-0.0002067281306 0.0223490753 0)
(-0.0002617853349 0.02271830808 0)
(-0.0003394493879 0.02304353936 0)
(-0.0001885005593 0.02338893402 0)
(-6.210709508e-05 0.02331577039 0)
(-0.0001509077243 0.02338010153 0)
(5.338457636e-06 0.02342401385 0)
(5.825343225e-05 0.02324961847 0)
(0.000124788257 0.02276787514 0)
(-0.0001404573771 0.02316032201 0)
(7.166180813e-05 0.02327134186 0)
(-0.0001964291181 0.02287712842 0)
(-0.0002651263715 0.02347554962 0)
(-0.0002869703661 0.02377193525 0)
(-0.0002295755968 0.02411005706 0)
(-0.0001876711955 0.02449876168 0)
(-0.0001438379907 0.02479353496 0)
(-7.838599966e-07 0.02435928409 0)
(-0.0001094326929 0.02405432821 0)
(-0.000157908146 0.02440168158 0)
(-0.0001992571655 0.02467032849 0)
(-0.0002237332378 0.02503073163 0)
(-0.0001339164256 0.02542501929 0)
(-2.178452764e-05 0.02600323212 0)
(0.0002717141023 0.02573046892 0)
(0.0001064264619 0.02555040462 0)
(0.0001714266153 0.02592257886 0)
(0.0001189199459 0.02594849307 0)
(9.294928143e-05 0.02626291436 0)
(8.124965618e-05 0.02655961292 0)
(7.635288226e-05 0.02685004117 0)
(7.637396069e-05 0.02714512479 0)
(7.838900475e-05 0.02743758269 0)
(7.745442709e-05 0.02772830724 0)
(5.249233071e-05 0.02801989446 0)
(9.120049985e-05 0.02829185893 0)
(5.867195535e-05 0.02875653424 0)
(0.0001318723604 0.02948493125 0)
(0.0003946217317 0.02908949721 0)
(4.488524057e-05 0.02915179718 0)
(2.361048764e-05 0.03023356175 0)
(9.050592314e-05 0.03075291225 0)
(0.0001111091604 0.03124139603 0)
(0.000140828344 0.03169544156 0)
(0.0001511265967 0.0319247477 0)
(3.548286712e-05 0.03245734583 0)
(0.0001205787079 0.0331090279 0)
(0.0001487251904 0.03327536402 0)
(7.014408933e-05 0.03372385566 0)
(2.241887905e-05 0.03464856628 0)
(9.217939105e-05 0.03566685955 0)
(0.000273820975 0.03605987708 0)
(0.000184469084 0.03660725534 0)
(0.0002565748986 0.03722107749 0)
(0.0001115458914 0.03792059651 0)
(0.0002103272678 0.03889928273 0)
(0.0002398761119 0.03958550755 0)
(0.0002541464947 0.04035719585 0)
(0.0002748333918 0.04111196851 0)
(0.0002801782328 0.04196821702 0)
(0.0002909327559 0.04288595557 0)
(0.0003052224448 0.04384233898 0)
(0.0003211595057 0.04482560656 0)
(0.0003366589013 0.04583721174 0)
(0.0003501209366 0.04688233996 0)
(0.0003595831798 0.04797198418 0)
(0.0003515204336 0.04911187568 0)
(0.000341059094 0.0503665823 0)
(0.0003546883824 0.05180176749 0)
(0.0004218020501 0.0531985061 0)
(0.0004558251649 0.05453674882 0)
(0.0005030103135 0.05598981351 0)
(0.0005337780352 0.05752316023 0)
(0.0005525228216 0.05916822048 0)
(0.0005854984114 0.06092253506 0)
(0.00061695237 0.06276487393 0)
(0.0006527104542 0.06472779948 0)
(0.0007073958402 0.06678896595 0)
(0.0007528358712 0.06895339894 0)
(0.0007907253358 0.07126299308 0)
(0.0008349962519 0.07373752159 0)
(0.0008963136694 0.07638193938 0)
(0.0009732984451 0.07919475759 0)
(0.001057292192 0.08218671797 0)
(0.001139031628 0.08539098242 0)
(0.001224234526 0.08884930207 0)
(0.001315822141 0.09258121222 0)
(0.001422086132 0.09658898082 0)
(0.001548445991 0.1008815498 0)
(0.001672696803 0.1055206773 0)
(0.00181839754 0.1105677025 0)
(0.001996189246 0.1160471323 0)
(0.002189808436 0.1219918849 0)
(0.00239763395 0.1284615456 0)
(0.002634284205 0.1355499484 0)
(0.0029289481 0.1433267867 0)
(0.003253837109 0.1518210906 0)
(0.003621135809 0.1612350662 0)
(0.004111720224 0.1717532984 0)
(0.004648548213 0.1834729015 0)
(0.005264875154 0.1965819723 0)
(0.006004303613 0.211246708 0)
(0.006880374812 0.2276906398 0)
(0.007913067074 0.246157545 0)
(0.009159437612 0.2669870646 0)
(0.01067070738 0.2905073256 0)
(0.01247011458 0.3170278503 0)
(0.01453744209 0.3468009659 0)
(0.01674166511 0.3801044888 0)
(0.01914965024 0.4171443242 0)
(0.02113412948 0.4550610453 0)
(0.01510860006 0.4880964096 0)
(-0.004429525347 0.5392737108 0)
(0.003605972435 0.5669731964 0)
(0.01323182883 0.5292667229 0)
(0.005085838937 0.4990031079 0)
(0.00623655267 0.4811620323 0)
(6.179199453e-05 0.4603640636 0)
(-0.002816188432 0.4394457439 0)
(-0.00434168809 0.4157911369 0)
(-0.005668166684 0.3921414784 0)
(-0.005580137043 0.3697596159 0)
(-0.004628707891 0.3486267199 0)
(-0.004073837704 0.329157243 0)
(-0.004134375076 0.3117054733 0)
(-0.004059436779 0.2960454231 0)
(-0.003631355246 0.2817049613 0)
(-0.003179508686 0.2686650883 0)
(-0.002803667975 0.2570356201 0)
(-0.002441194782 0.246711738 0)
(-0.002119169162 0.2375326661 0)
(-0.001853490895 0.2293597603 0)
(-0.001646717072 0.2220669577 0)
(-0.001479710142 0.2155580801 0)
(-0.001328066706 0.2097114094 0)
(-0.001194694133 0.2044178053 0)
(-0.001082773468 0.1996194955 0)
(-0.0009860573962 0.19525728 0)
(-0.0009010529209 0.1912765991 0)
(-0.0008261253062 0.1876318113 0)
(-0.0007599833484 0.1842832554 0)
(-0.0007012642115 0.1811969866 0)
(-0.0006488446299 0.1783442021 0)
(-0.0006018937521 0.1757000311 0)
(-0.0005596922442 0.1732428673 0)
(-0.0005216047453 0.1709541405 0)
(-0.0004871395622 0.1688178187 0)
(-0.0004558404645 0.1668198747 0)
(-0.0004272869824 0.1649480401 0)
(-0.0004011064287 0.1631915588 0)
(-0.0003770209352 0.1615409205 0)
(-0.0003547911315 0.1599876154 0)
(-0.000334215423 0.1585239994 0)
(-0.0003151093924 0.1571431789 0)
(-0.0002973258985 0.1558389268 0)
(-0.0002807437798 0.154605594 0)
(-0.0002652678222 0.15343807 0)
(-0.0002508136313 0.1523317516 0)
(-0.0002373098133 0.1512825183 0)
(-0.0002246884316 0.1502866731 0)
(-0.0002128885061 0.1493409037 0)
(-0.0002018675814 0.1484422724 0)
(-0.0001915986916 0.1475881521 0)
(-0.0001820191648 0.146776054 0)
(-0.0001730669554 0.1460034272 0)
(-0.000164705988 0.1452679888 0)
(-0.0001568908318 0.1445675901 0)
(-0.0001495826149 0.1439001103 0)
(-0.0001427495717 0.1432634609 0)
(-0.0001363699922 0.1426556316 0)
(-0.0001304155895 0.1420747049 0)
(-0.0001248475282 0.1415187425 0)
(-0.0001196531884 0.1409857713 0)
(-0.0001148354614 0.1404739494 0)
(-0.0001103796026 0.1399816395 0)
(-0.000106251617 0.1395074198 0)
(-0.0001024027026 0.13905013 0)
(-9.878624502e-05 0.1386088439 0)
(-9.532265273e-05 0.1381829667 0)
(-9.1774739e-05 0.1377728089 0)
(-8.79763131e-05 0.1373791719 0)
(-8.42617253e-05 0.1370017912 0)
(-8.109452006e-05 0.1366392468 0)
(-7.832468455e-05 0.1362901865 0)
(-7.569935655e-05 0.1359532534 0)
(-7.325784278e-05 0.1356272936 0)
(-7.09810978e-05 0.1353112831 0)
(-6.884582946e-05 0.1350042072 0)
(-6.684146379e-05 0.134705094 0)
(-6.495952005e-05 0.1344130467 0)
(-6.319369159e-05 0.1341272807 0)
(-6.153936469e-05 0.1338471495 0)
(-5.999297832e-05 0.1335721677 0)
(-5.855157273e-05 0.1333020221 0)
(-5.721229764e-05 0.1330365654 0)
(-5.597095908e-05 0.1327757937 0)
(-5.4822064e-05 0.1325198134 0)
(-5.375914486e-05 0.1322687974 0)
(-5.277493309e-05 0.1320229346 0)
(-5.186114453e-05 0.1317823806 0)
(-5.100863171e-05 0.1315472143 0)
(-5.020792519e-05 0.1313174044 0)
(-4.94499126e-05 0.1310927896 0)
(-4.87263139e-05 0.1308730725 0)
(-4.803004052e-05 0.1306578299 0)
(-4.735549221e-05 0.1304465362 0)
(-4.669884409e-05 0.1302385974 0)
(-4.605815071e-05 0.1300333911 0)
(-4.543321093e-05 0.1298303099 0)
(-4.482532231e-05 0.1296288024 0)
(-4.423694136e-05 0.1294284087 0)
(-4.367131041e-05 0.1292287871 0)
(-4.313206811e-05 0.1290297289 0)
(-4.262276648e-05 0.1288311609 0)
(-4.214648488e-05 0.1286331367 0)
(-4.170548949e-05 0.1284358158 0)
(-4.130102448e-05 0.1282394351 0)
(-4.093322066e-05 0.1280442745 0)
(-4.060107221e-05 0.1278506204 0)
(-4.030255703e-05 0.1276587306 0)
(-4.003481693e-05 0.1274688039 0)
(-3.979445278e-05 0.1272809577 0)
(-3.957781432e-05 0.1270952139 0)
(-3.93813156e-05 0.1269114959 0)
(-3.920173007e-05 0.1267296345 0)
(-3.903641821e-05 0.1265493827 0)
(-3.888348088e-05 0.1263704373 0)
(-3.874184506e-05 0.1261924634 0)
(-3.861126717e-05 0.1260151205 0)
(-3.849226369e-05 0.1258380869 0)
(-3.8385973e-05 0.1256610799 0)
(-3.829396777e-05 0.1254838706 0)
(-3.821804289e-05 0.1253062923 0)
(-3.816002247e-05 0.1251282427 0)
(-3.812155889e-05 0.1249496798 0)
(-3.810395551e-05 0.1247706132 0)
(-3.810807316e-05 0.1245910917 0)
(-3.813424323e-05 0.1244111894 0)
(-3.818226019e-05 0.124230991 0)
(-3.825141838e-05 0.1240505771 0)
(-3.83405732e-05 0.123870012 0)
(-3.844825776e-05 0.1236893334 0)
(-3.857279021e-05 0.1235085441 0)
(-3.871242665e-05 0.1233276074 0)
(-3.886546483e-05 0.1231464451 0)
(-3.90303888e-05 0.1229649376 0)
(-3.920596017e-05 0.1227829277 0)
(-3.939128759e-05 0.1226002263 0)
(-3.958590428e-05 0.1224166204 0)
(-3.978978069e-05 0.1222318827 0)
(-4.000334134e-05 0.122045783 0)
(-4.022744494e-05 0.1218581002 0)
(-4.04633231e-05 0.1216686337 0)
(-4.071254749e-05 0.1214772146 0)
(-4.097693309e-05 0.1212837147 0)
(-4.125846733e-05 0.1210880528 0)
(-4.155918849e-05 0.1208901982 0)
(-4.188108217e-05 0.12069017 0)
(-4.222600464e-05 0.1204880323 0)
(-4.259554188e-05 0.1202838862 0)
(-4.299094694e-05 0.1200778583 0)
(-4.341304006e-05 0.1198700865 0)
(-4.38621559e-05 0.119660705 0)
(-4.433809879e-05 0.1194498289 0)
(-4.484012657e-05 0.1192375398 0)
(-4.536696973e-05 0.1190238746 0)
(-4.591684931e-05 0.1188088163 0)
(-4.648757806e-05 0.1185922908 0)
(-4.70766149e-05 0.1183741662 0)
(-4.768118801e-05 0.1181542581 0)
(-4.829843833e-05 0.1179323386 0)
(-4.892551313e-05 0.1177081477 0)
(-4.955974454e-05 0.1174814086 0)
(-5.019874755e-05 0.1172518429 0)
(-5.084053401e-05 0.117019186 0)
(-5.148363732e-05 0.1167832011 0)
(-5.212713373e-05 0.1165436911 0)
(-5.277072586e-05 0.1163005066 0)
(-5.341471236e-05 0.1160535507 0)
(-5.405997037e-05 0.1158027791 0)
(-5.470791303e-05 0.1155481971 0)
(-5.53603737e-05 0.1152898526 0)
(-5.601952804e-05 0.1150278267 0)
(-5.668773567e-05 0.1147622223 0)
(-5.736743938e-05 0.114493152 0)
(-5.806101814e-05 0.1142207266 0)
(-5.877064703e-05 0.1139450437 0)
(-5.949821543e-05 0.1136661794 0)
(-6.024519732e-05 0.1133841817 0)
(-6.101262101e-05 0.113099067 0)
(-6.180100022e-05 0.1128108193 0)
(-6.261033075e-05 0.1125193922 0)
(-6.344012308e-05 0.1122247129 0)
(-6.428941139e-05 0.111926688 0)
(-6.515686352e-05 0.1116252107 0)
(-6.60408163e-05 0.1113201671 0)
(-6.693939796e-05 0.1110114437 0)
(-6.785063613e-05 0.1106989325 0)
(-6.877251125e-05 0.1103825359 0)
(-6.970309949e-05 0.1100621686 0)
(-7.064061902e-05 0.1097377595 0)
(-7.158350675e-05 0.1094092506 0)
(-7.253047041e-05 0.1090765949 0)
(-7.348049623e-05 0.1087397541 0)
(-7.443288795e-05 0.1083986948 0)
(-7.538722818e-05 0.1080533855 0)
(-7.634337422e-05 0.1077037936 0)
(-7.730140799e-05 0.1073498838 0)
(-7.826158558e-05 0.1069916166 0)
(-7.922431105e-05 0.106628949 0)
(-8.019004409e-05 0.1062618359 0)
(-8.11592808e-05 0.105890232 0)
(-8.213247484e-05 0.1055140953 0)
(-8.311003112e-05 0.1051333901 0)
(-8.409224282e-05 0.1047480902 0)
(-8.507927891e-05 0.1043581817 0)
(-8.60711792e-05 0.1039636649 0)
(-8.706782514e-05 0.103564555 0)
(-8.80689742e-05 0.1031608819 0)
(-8.907424256e-05 0.1027526886 0)
(-9.008312891e-05 0.1023400282 0)
(-9.109504253e-05 0.101922961 0)
(-9.210929552e-05 0.1015015499 0)
(-9.312515721e-05 0.1010758564 0)
(-9.414184329e-05 0.1006459364 0)
(-9.515853997e-05 0.1002118367 0)
(-9.617443208e-05 0.09977359248 0)
(-9.718868053e-05 0.09933122544 0)
(-9.820047061e-05 0.09888474367 0)
(-9.920897291e-05 0.09843414244 0)
(-0.0001002133777 0.0979794062 0)
(-0.0001012128867 0.09752051161 0)
(-0.0001022066926 0.09705743106 0)
(-0.0001031940155 0.09659013679 0)
(-0.0001041740626 0.09611860473 0)
(-0.0001051460668 0.09564281822 0)
(-0.0001061092642 0.09516277091 0)
(-0.0001070629258 0.09467846892 0)
(-0.0001080063379 0.09418993187 0)
(-0.0001089388237 0.09369719284 0)
(-0.0001098597676 0.09320029734 0)
(-0.0001107686095 0.09269930145 0)
(-0.0001116648536 0.09219426905 0)
(-0.0001125481026 0.09168526894 0)
(-0.0001134180459 0.09117237167 0)
(-0.0001142744734 0.0906556466 0)
(-0.000115117278 0.09013515949 0)
(-0.0001159464473 0.08961097079 0)
(-0.0001167620649 0.08908313468 0)
(-0.0001175642798 0.08855169909 0)
(-0.0001183533152 0.08801670655 0)
(-0.0001191294317 0.08747819585 0)
(-0.0001198929106 0.08693620415 0)
(-0.0001206440327 0.08639076961 0)
(-0.0001213830524 0.08584193386 0)
(-0.0001221101767 0.08528974454 0)
(-0.0001228255471 0.08473425721 0)
(-0.0001235292225 0.08417553674 0)
(-0.0001242211685 0.08361365796 0)
(-0.0001249012499 0.08304870549 0)
(-0.0001255692329 0.08248077282 0)
(-0.0001262247779 0.08190996065 0)
(-0.0001268674659 0.08133637486 0)
(-0.0001274967859 0.08076012392 0)
(-0.0001281121689 0.08018131648 0)
(-0.000128712993 0.07960005886 0)
(-0.0001292986103 0.079016453 0)
(-0.0001298683617 0.0784305949 0)
(-0.0001304215725 0.0778425736 0)
(-0.0001309575954 0.0772524709 0)
(-0.0001314758076 0.07666036175 0)
(-0.0001319756145 0.0760663152 0)
(-0.0001324564659 0.07547039582 0)
(-0.0001329178473 0.07487266553 0)
(-0.0001333592861 0.07427318542 0)
(-0.0001337803491 0.07367201777 0)
(-0.0001341806229 0.07306922762 0)
(-0.0001345597413 0.07246488429 0)
(-0.0001349173352 0.0718590622 0)
(-0.000135253068 0.07125184148 0)
(-0.0001355666023 0.07064330783 0)
(-0.0001358576149 0.0700335522 0)
(-0.0001361257853 0.06942266984 0)
(-0.0001363708016 0.0688107593 0)
(-0.0001365923576 0.06819792115 0)
(-0.0001367901602 0.06758425669 0)
(-0.000136963947 0.0669698668 0)
(-0.0001371134574 0.06635485094 0)
(-0.0001372384779 0.06573930631 0)
(-0.0001373388345 0.06512332755 0)
(-0.0001374143869 0.06450700649 0)
(-0.0001374650517 0.06389043232 0)
(-0.000137490797 0.06327369206 0)
(-0.000137491636 0.06265687114 0)
(-0.0001374676421 0.06204005416 0)
(-0.0001374189335 0.06142332578 0)
(-0.0001373456693 0.06080677157 0)
(-0.0001372480394 0.06019047885 0)
(-0.0001371262554 0.0595745375 0)
(-0.0001369805439 0.05895904069 0)
(-0.0001368111247 0.05834408545 0)
(-0.0001366181978 0.05772977326 0)
(-0.0001364019354 0.05711621044 0)
(-0.0001361624655 0.05650350859 0)
(-0.0001358998607 0.05589178482 0)
(-0.000135614127 0.055281162 0)
(-0.0001353051996 0.05467176885 0)
(-0.0001349729359 0.05406374 0)
(-0.0001346171091 0.05345721577 0)
(-0.0001342374232 0.0528523419 0)
(-0.0001338334942 0.05224926902 0)
(-0.0001334048735 0.05164815183 0)
(-0.0001329510594 0.05104914814 0)
(-0.0001324714922 0.05045241757 0)
(-0.0001319655697 0.04985812009 0)
(-0.0001314326802 0.04926641428 0)
(-0.0001308721928 0.04867745571 0)
(-0.0001302834834 0.04809139498 0)
(-0.0001296659453 0.04750837616 0)
(-0.000129019005 0.04692853527 0)
(-0.0001283421349 0.04635199909 0)
(-0.0001276348647 0.0457788845 0)
(-0.0001268967834 0.04520929823 0)
(-0.0001261275534 0.0446433373 0)
(-0.00012532691 0.04408109001 0)
(-0.000124494675 0.04352263753 0)
(-0.0001236307368 0.04296805613 0)
(-0.0001227350766 0.04241741974 0)
(-0.0001218077364 0.04187080292 0)
(-0.0001208488311 0.04132828393 0)
(-0.0001198585476 0.04078994782 0)
(-0.0001188371185 0.04025588917 0)
(-0.0001177848226 0.03972621456 0)
(-0.0001167019882 0.03920104425 0)
(-0.0001155889631 0.03868051324 0)
(-0.000114446126 0.0381647714 0)
(-0.0001132738579 0.03765398272 0)
(-0.0001120725607 0.03714832364 0)
(-0.0001108426247 0.0366479806 0)
(-0.0001095844337 0.03615314677 0)
(-0.0001082983777 0.03566401844 0)
(-0.0001069848202 0.03518079089 0)
(-0.0001056441232 0.03470365438 0)
(-0.000104276659 0.03423279013 0)
(-0.0001028827866 0.03376836688 0)
(-0.0001014628491 0.03331053803 0)
(-0.0001000171737 0.03285943977 0)
(-9.854609441e-05 0.03241518997 0)
(-9.704995238e-05 0.03197788824 0)
(-9.552907939e-05 0.03154761693 0)
(-9.398383275e-05 0.03112444309 0)
(-9.241456306e-05 0.03070842123 0)
(-9.082163384e-05 0.03029959677 0)
(-8.920542142e-05 0.02989800982 0)
(-8.75662934e-05 0.02950369918 0)
(-8.590462348e-05 0.02911670628 0)
(-8.422076673e-05 0.02873707869 0)
(-8.251506665e-05 0.02836487315 0)
(-8.078783033e-05 0.028000158 0)
(-7.903932049e-05 0.02764301458 0)
(-7.726974634e-05 0.02729353802 0)
(-7.547922824e-05 0.026951837 0)
(-7.366779582e-05 0.02661803279 0)
(-7.183546488e-05 0.02629225754 0)
(-6.998215625e-05 0.02597465192 0)
(-6.810760332e-05 0.02566536269 0)
(-6.621139918e-05 0.02536454034 0)
(-6.429298373e-05 0.02507233656 0)
(-6.235163272e-05 0.02478890206 0)
(-6.038645454e-05 0.0245143849 0)
(-5.839634714e-05 0.0242489293 0)
(-5.63799725e-05 0.02399267529 0)
(-5.433577226e-05 0.02374575898 0)
(-5.226188443e-05 0.0235083138 0)
(-5.015622383e-05 0.02328047218 0)
(-4.801638123e-05 0.02306236756 0)
(-4.583944888e-05 0.02285413761 0)
(-4.362195266e-05 0.02265592834 0)
(-4.135976457e-05 0.02246789838 0)
(-3.904790172e-05 0.02229022393 0)
(-3.668031314e-05 0.02212310439 0)
(-3.424924607e-05 0.02196676974 0)
(-3.174528968e-05 0.02182148724 0)
(-2.915721462e-05 0.02168757032 0)
(-2.646974205e-05 0.02156539184 0)
(-2.366323338e-05 0.02145537003 0)
(-2.07465e-05 0.02135798562 0)
(-1.771394963e-05 0.02127409452 0)
(-1.442330644e-05 0.02120394525 0)
(-1.153409347e-05 0.02114560957 0)
(-1.349485838e-05 0.02110400106 0)
(2.200377967e-06 0.02111802618 0)
(3.769971973e-06 0.02092931379 0)
(-0.0007525869782 0.08074443467 0)
(-0.0006519083648 0.07990418173 0)
(-0.0005207647043 0.07944202145 0)
(-0.0004291622425 0.07899977414 0)
(-0.0003632457474 0.07859508469 0)
(-0.0003090554719 0.07823262472 0)
(-0.0002529214843 0.0779195705 0)
(-0.0001813209322 0.07766187232 0)
(-5.357186976e-05 0.07733590595 0)
(-0.0001360804415 0.07698503297 0)
(-0.0002385774894 0.07680150619 0)
(-3.727127595e-05 0.07655067604 0)
(-0.0001063196293 0.07620514937 0)
(-0.0002682793684 0.07602319384 0)
(-0.0002027386458 0.07588687752 0)
(-0.000188498605 0.07564128356 0)
(-0.0002325488265 0.07541528522 0)
(-9.057193975e-05 0.07521715027 0)
(-6.793257096e-05 0.07496600824 0)
(-9.410819165e-05 0.07468649555 0)
(-0.0002912627033 0.07450561135 0)
(-0.0002999624918 0.07441111371 0)
(-0.0002684523769 0.0742535873 0)
(-0.000169802477 0.07399579415 0)
(-0.0001993713466 0.07371490426 0)
(-0.0002123948963 0.07352691263 0)
(-0.0001366937863 0.07329729703 0)
(-0.0001652392342 0.07302772336 0)
(-0.0001940501278 0.07279619966 0)
(-0.0002486437257 0.07259366718 0)
(-0.0003103231418 0.07243896502 0)
(-0.0003886568553 0.07232486243 0)
(-0.0003265423639 0.07217009911 0)
(-0.0002805532098 0.07197138807 0)
(-0.0002067569803 0.07172841474 0)
(-0.000183240503 0.07144360986 0)
(-0.0001736962859 0.07119261211 0)
(-0.0001511702179 0.07097382367 0)
(-0.0001269228097 0.0707301931 0)
(-0.0002399569895 0.07052613648 0)
(0.0001758300027 0.07013607552 0)
(-6.347130787e-05 0.06969545372 0)
(-0.000400653919 0.06965702879 0)
(-0.0001248951169 0.06969107635 0)
(-0.0001185983969 0.06958113366 0)
(-3.803392652e-05 0.06933115762 0)
(-0.0001784127334 0.06910005132 0)
(1.544793963e-05 0.0688066975 0)
(-0.0002313128593 0.06848175211 0)
(-0.0002931268907 0.0683773551 0)
(-0.0001116338057 0.06822641947 0)
(-0.0003278920035 0.06808602794 0)
(-0.0001144316469 0.06792526689 0)
(-0.0003425774265 0.06772866875 0)
(-0.0001199359799 0.06753961608 0)
(-0.0002217950367 0.06740674284 0)
(4.593495926e-05 0.06732839445 0)
(0.0001325975118 0.06707342795 0)
(-0.000165697456 0.06690907611 0)
(-8.219809934e-05 0.06684000514 0)
(0.0002919676215 0.06663353075 0)
(0.0004456930762 0.06618106885 0)
(3.063828681e-05 0.0657334664 0)
(-0.0006242001456 0.06577043783 0)
(-0.0004845342177 0.06587496608 0)
(-0.0003863413852 0.06569985044 0)
(-0.0001108804476 0.06550443253 0)
(1.268109965e-06 0.06535024014 0)
(-3.848522994e-05 0.06528353629 0)
(-1.843109485e-05 0.06521891913 0)
(-0.0002101150122 0.06514451188 0)
(-0.0001500760436 0.06502858051 0)
(-0.0001951185123 0.06483702557 0)
(-2.35499748e-05 0.06460969448 0)
(-0.000194577098 0.06452070148 0)
(6.012433433e-05 0.06448480693 0)
(0.0001170636183 0.06430396373 0)
(-0.0001072213114 0.06409618927 0)
(-5.198821674e-05 0.06383209022 0)
(-0.0004538070083 0.06381476358 0)
(-0.0003983847553 0.06392946245 0)
(-0.00029918133 0.06391446561 0)
(3.662790952e-06 0.06391910868 0)
(4.902078309e-05 0.06388268335 0)
(-0.0001371759784 0.0638777381 0)
(-2.307283163e-05 0.06378590652 0)
(-0.0003451378134 0.06370061337 0)
(-0.000446089639 0.06383526794 0)
(-0.0001874224607 0.06388994655 0)
(0.0001558352515 0.06373035352 0)
(0.0001237742138 0.06351526835 0)
(-0.0002126340131 0.06344896418 0)
(-0.000403074414 0.06361567489 0)
(3.053910476e-05 0.06362586368 0)
(-0.0001448131955 0.06350002449 0)
(-0.0001214994936 0.0634816498 0)
(-0.0001523095303 0.06339532639 0)
(-0.0003224094636 0.06357496456 0)
(0.0001050946132 0.06386612688 0)
(0.0003155678472 0.06394868526 0)
(0.0003494570279 0.06395475429 0)
(0.0001795746754 0.06393609486 0)
(7.920305733e-05 0.06391418318 0)
(-6.557806997e-05 0.06392831522 0)
(-0.0003834198734 0.06412969714 0)
(-0.0003559242231 0.06444048621 0)
(-0.0001211865142 0.06446004866 0)
(-0.0004373722988 0.06450211169 0)
(-0.0005605893776 0.06482090538 0)
(-0.0005217107357 0.06517542279 0)
(-0.0004245097011 0.06552025075 0)
(-0.0001387803963 0.06569256539 0)
(-5.100055115e-05 0.06585705744 0)
(0.0002569403867 0.06595520948 0)
(0.0003480503178 0.06594453964 0)
(0.0004120696284 0.06600522713 0)
(-7.138250206e-05 0.06635224748 0)
(0.0002514290057 0.0666203158 0)
(-0.0002261896716 0.06678560094 0)
(-0.0003773655337 0.0672355021 0)
(-0.0003737206368 0.06774460824 0)
(-0.0003752511764 0.06829488371 0)
(-0.0002505040389 0.06883126185 0)
(4.545302717e-05 0.06924116758 0)
(0.0002977726206 0.06930697699 0)
(4.867654954e-05 0.06945925408 0)
(-0.0001075605882 0.06991646073 0)
(-0.0001223641576 0.07039986068 0)
(-9.384340611e-05 0.07100623957 0)
(6.771376042e-05 0.07165731943 0)
(0.0003362569561 0.0722544495 0)
(0.0008867455001 0.07264362757 0)
(0.0006498681645 0.07307158555 0)
(0.0007506888923 0.07362914699 0)
(0.0006465467339 0.07415308323 0)
(0.0005834067685 0.07479977251 0)
(0.000561756996 0.07548758575 0)
(0.0005607369534 0.07619806168 0)
(0.0005735474816 0.07692963819 0)
(0.0005977775485 0.07767465486 0)
(0.0006265000738 0.07843456096 0)
(0.0006597707497 0.07923026428 0)
(0.0006715480442 0.08006932808 0)
(0.0006610915525 0.0809867568 0)
(0.0009126314488 0.08192104036 0)
(0.001271782932 0.0826090158 0)
(0.0007420241781 0.08353720339 0)
(0.0007501159009 0.08484990435 0)
(0.0008088121158 0.08609983709 0)
(0.0009033524638 0.08728989808 0)
(0.0009981704514 0.08845115231 0)
(0.001085719782 0.08956622118 0)
(0.0009637100074 0.09078688593 0)
(0.001136906365 0.09208466156 0)
(0.001192303714 0.09334328178 0)
(0.00101404743 0.09472206462 0)
(0.0009811961716 0.09634149159 0)
(0.001216950088 0.0980946944 0)
(0.001547441566 0.09976350533 0)
(0.001462128307 0.1014255661 0)
(0.001615781018 0.1031337063 0)
(0.001449201053 0.104954648 0)
(0.001595128486 0.1068962321 0)
(0.001673201097 0.1088564409 0)
(0.001788594438 0.1108441634 0)
(0.001864391114 0.1129178082 0)
(0.00193366569 0.1151083833 0)
(0.002009847505 0.1174056715 0)
(0.002095797371 0.1197902094 0)
(0.002187427399 0.1222544115 0)
(0.002279647634 0.1248025465 0)
(0.002368140165 0.1274449136 0)
(0.002447159463 0.1301980644 0)
(0.002514888912 0.1330885698 0)
(0.002560970017 0.1361541157 0)
(0.002653075404 0.139362245 0)
(0.002884063115 0.1426678152 0)
(0.003062997154 0.1460979501 0)
(0.003228792502 0.149688569 0)
(0.003396855447 0.1534641812 0)
(0.003572356523 0.1574561088 0)
(0.003772339884 0.1616686123 0)
(0.003986138967 0.1661034103 0)
(0.004206247952 0.1707770141 0)
(0.004448070121 0.1756988721 0)
(0.004711779693 0.1808831575 0)
(0.004997925974 0.1863667409 0)
(0.005311909331 0.1921842696 0)
(0.005660677535 0.1983577876 0)
(0.006047222227 0.2049095158 0)
(0.006472530023 0.2118675109 0)
(0.006936457377 0.2192882486 0)
(0.007440411021 0.2272360155 0)
(0.007983649887 0.2357497134 0)
(0.008570212379 0.2448256872 0)
(0.009221978454 0.2545168814 0)
(0.009945489518 0.2649279956 0)
(0.01075368239 0.2761501487 0)
(0.01165344562 0.2882644712 0)
(0.01264714193 0.3013330516 0)
(0.01375783008 0.3154508754 0)
(0.01501073087 0.3307730667 0)
(0.01644199402 0.3474441541 0)
(0.01808891716 0.3655697861 0)
(0.01998867448 0.3854142319 0)
(0.02224856275 0.4073750419 0)
(0.02481368403 0.4316429109 0)
(0.02776374337 0.4584106596 0)
(0.0311839018 0.4880337174 0)
(0.03516721201 0.5208871116 0)
(0.03981389471 0.5573755217 0)
(0.04525034829 0.5979557992 0)
(0.05159080515 0.6430761276 0)
(0.05887646705 0.6931065469 0)
(0.06701083277 0.7483314377 0)
(0.07553251818 0.8088041795 0)
(0.08313743846 0.8741057112 0)
(0.08697610968 0.9430965651 0)
(0.08223270479 1.015165899 0)
(0.0652726585 1.08957521 0)
(0.05995679077 1.10841809 0)
(0.05821342013 1.067896322 0)
(0.04737298799 1.034738133 0)
(0.03577204256 1.025896481 0)
(0.01883621151 1.005480145 0)
(0.005329520791 0.974238265 0)
(-0.003593713767 0.9377490692 0)
(-0.007795743437 0.8993393042 0)
(-0.01306376113 0.86148108 0)
(-0.0185044765 0.8262115557 0)
(-0.02113996338 0.7937548245 0)
(-0.02196853488 0.7624894638 0)
(-0.02159871503 0.7323740284 0)
(-0.02079987565 0.7044100644 0)
(-0.01942979949 0.6791347224 0)
(-0.01782226878 0.6563808274 0)
(-0.01619769574 0.6357912861 0)
(-0.01465180995 0.6172584096 0)
(-0.0132799594 0.600548881 0)
(-0.01205042126 0.585434604 0)
(-0.01096547583 0.5717311747 0)
(-0.01001818979 0.5592577773 0)
(-0.009181551825 0.5478670217 0)
(-0.008441903408 0.5374349697 0)
(-0.007786429179 0.5278455171 0)
(-0.007199268954 0.5190014117 0)
(-0.006671530262 0.5108231352 0)
(-0.006196663968 0.5032402156 0)
(-0.005767534065 0.4961916484 0)
(-0.005378755027 0.4896253601 0)
(-0.005026198235 0.4834954873 0)
(-0.004705659202 0.4777612813 0)
(-0.004412955983 0.4723872902 0)
(-0.004144931619 0.4673424268 0)
(-0.003898871045 0.4625989916 0)
(-0.003672291796 0.4581325507 0)
(-0.003462922435 0.4539215611 0)
(-0.003268913567 0.4499468542 0)
(-0.003088630978 0.4461911027 0)
(-0.002920682535 0.4426386715 0)
(-0.002763845314 0.4392753953 0)