/*--------------------------------*- C++ -*----------------------------------*\
| =========                 |                                                 |
| \\      /  F ield         | OpenFOAM: The Open Source CFD Toolbox           |
|  \\    /   O peration     | Version:  v2006                                 |
|   \\  /    A nd           | Website:  www.openfoam.com                      |
|    \\/     M anipulation  |                                                 |
\*---------------------------------------------------------------------------*/
FoamFile
{
    version     2.0;
    format      ascii;
    class       volVectorField;
    location    "0.075";
    object      U_0;
}
// * * * * * * * * * * * * * * * * * * * * * * * * * * * * * * * * * * * * * //

dimensions      [0 1 -1 0 0 0 0];


internalField   nonuniform List<vector> 
72000
(
(-0.0001415478531 0.02984572008 0)
(-7.935578476e-05 0.02926465118 0)
(-7.179322454e-05 0.0290257215 0)
(-5.046574267e-05 0.0288103486 0)
(-3.969137241e-05 0.02863268784 0)
(-2.769269695e-05 0.02848138894 0)
(-1.996586241e-05 0.0283573668 0)
(1.249569157e-05 0.02834158371 0)
(0.0001184020939 0.02809703432 0)
(5.306758686e-05 0.02785374728 0)
(5.730772982e-05 0.02778961355 0)
(5.475909355e-05 0.02758895142 0)
(1.416537459e-05 0.02752071667 0)
(-8.725107697e-06 0.02760841348 0)
(3.059791372e-05 0.02757547505 0)
(7.224915491e-05 0.0273673391 0)
(3.358428523e-05 0.02723383791 0)
(-1.137096351e-06 0.02707903527 0)
(-5.738084757e-05 0.02700591462 0)
(-4.819799588e-05 0.02710985608 0)
(-1.069718099e-05 0.02700486395 0)
(-1.754092507e-05 0.02695272496 0)
(3.746338749e-05 0.02699168803 0)
(8.766310092e-05 0.02667145082 0)
(4.752315822e-06 0.02655558621 0)
(3.873784623e-05 0.02668453631 0)
(7.993190249e-05 0.02637049034 0)
(-1.27415621e-07 0.02618185554 0)
(-1.817405531e-05 0.02625440314 0)
(-3.059230307e-05 0.0261145244 0)
(-6.363843974e-05 0.02606761092 0)
(-4.362813351e-05 0.02619134588 0)
(-2.832079049e-05 0.02620839102 0)
(2.032888705e-05 0.02598103807 0)
(6.832588075e-06 0.02574572354 0)
(-1.152590141e-05 0.02567187897 0)
(-2.218893644e-05 0.02559994581 0)
(-3.159720736e-05 0.02556991221 0)
(1.530071655e-05 0.02570328599 0)
(0.0001782231113 0.0253964074 0)
(0.0001076202181 0.02475934514 0)
(-5.521199384e-05 0.02490302409 0)
(-3.865646605e-05 0.0246765208 0)
(-0.0003335528611 0.02475994509 0)
(-0.0001365329204 0.02534917571 0)
(-6.51617316e-06 0.025525389 0)
(0.0002185041223 0.0247586443 0)
(-2.592739905e-05 0.0243142139 0)
(6.885446561e-05 0.02472785229 0)
(5.210266231e-05 0.02433848456 0)
(-7.89403659e-05 0.02454075973 0)
(3.359537111e-05 0.02448305195 0)
(-8.991182324e-05 0.02432445171 0)
(7.729428714e-05 0.02417339829 0)
(-4.075245555e-05 0.02406672661 0)
(2.878121452e-05 0.02400623858 0)
(-7.984919358e-05 0.02386948439 0)
(-2.889209834e-05 0.02450677217 0)
(0.0002874617744 0.02409935892 0)
(0.0001529877807 0.02328469386 0)
(-9.370536851e-05 0.02381804665 0)
(6.786327973e-05 0.02393657853 0)
(-3.599445251e-05 0.02360444658 0)
(-3.352008602e-05 0.02389113755 0)
(0.0001023854225 0.02363274388 0)
(0.0001290128876 0.02286564565 0)
(-9.476726054e-05 0.02262226111 0)
(-0.0002758715845 0.02313136458 0)
(-0.00016749311 0.02340688474 0)
(-0.0001000348734 0.02348817106 0)
(5.402982991e-05 0.02347553761 0)
(8.161106484e-05 0.02319709486 0)
(0.0001242026918 0.02289090036 0)
(-1.46184574e-05 0.02298564248 0)
(1.873501295e-05 0.02268790261 0)
(-0.0002149736957 0.02261958125 0)
(-0.0001318071493 0.02335599254 0)
(0.0001210632963 0.02298141687 0)
(1.080553249e-06 0.02255113148 0)
(-8.289862169e-05 0.02281920428 0)
(0.0001201783145 0.0227129111 0)
(0.000103568883 0.02214057458 0)
(-0.0001607701696 0.02193394025 0)
(-0.0002680792236 0.02269374397 0)
(-5.940724484e-05 0.02264851271 0)
(-0.0001887111627 0.02276416164 0)
(7.440575083e-05 0.02298050872 0)
(-4.695727646e-05 0.02273685427 0)
(0.000104676477 0.02252738269 0)
(-3.225023847e-05 0.02226695505 0)
(-2.364501449e-05 0.02276427559 0)
(0.0001296180416 0.02246134266 0)
(-5.41220547e-05 0.02198674348 0)
(-0.0001451803236 0.0226114015 0)
(9.614296085e-05 0.02278943374 0)
(0.0001433002255 0.02233398702 0)
(0.000121054867 0.0219138403 0)
(-5.689293475e-05 0.02184246863 0)
(-0.0001099194022 0.02208046796 0)
(-0.0001920608166 0.02252341578 0)
(-4.465278885e-05 0.02310668573 0)
(0.0001705036789 0.02292865412 0)
(0.0001913421445 0.02265976872 0)
(0.0001858959079 0.02243081341 0)
(8.316184701e-05 0.02235376871 0)
(4.39924866e-05 0.02292202923 0)
(0.0001186831416 0.02286665911 0)
(6.43071408e-05 0.02260248884 0)
(4.100824254e-05 0.02287251213 0)
(-1.075575007e-05 0.02295951976 0)
(0.0001063931638 0.02318224096 0)
(0.0002543134472 0.02292005007 0)
(5.455925765e-05 0.02282828452 0)
(0.0001677955304 0.02301756232 0)
(0.0001341447323 0.02259855711 0)
(-0.0001426079225 0.02305280392 0)
(-3.857320693e-05 0.02351307226 0)
(-8.593245962e-05 0.02361967154 0)
(3.303397267e-05 0.02382732241 0)
(3.212115681e-05 0.02342176396 0)
(-0.0001328599711 0.02351906594 0)
(-8.415264099e-05 0.02428063099 0)
(8.776605151e-05 0.02455545218 0)
(0.0001126619748 0.02466291058 0)
(0.0002891103368 0.02444018084 0)
(0.0001514367648 0.02404418561 0)
(2.73755209e-05 0.02435622617 0)
(3.341129702e-06 0.02483536747 0)
(5.886646445e-05 0.02469009965 0)
(-2.558612192e-05 0.02462678972 0)
(-5.317031705e-05 0.02507050033 0)
(-5.971334665e-05 0.02549527984 0)
(1.192221281e-05 0.02628305381 0)
(0.0002929204183 0.02609372456 0)
(0.0001037005945 0.02578977978 0)
(7.128818837e-05 0.02633846884 0)
(6.401802725e-05 0.02663505407 0)
(6.269662486e-05 0.02693152612 0)
(6.605109306e-05 0.02724210673 0)
(7.245030198e-05 0.02755331321 0)
(7.804873645e-05 0.02785106976 0)
(6.1419845e-05 0.02810266747 0)
(0.0001156139442 0.02849729335 0)
(0.000239042091 0.0287309184 0)
(0.0002248322813 0.02820556247 0)
(-0.0001157198741 0.02866825061 0)
(-0.0001237184074 0.03003058963 0)
(-3.120116573e-05 0.03056922043 0)
(7.759176299e-05 0.03089899324 0)
(0.0001174286118 0.03129374005 0)
(0.0001627233196 0.03174780841 0)
(0.0002061702996 0.03210772917 0)
(0.000182275913 0.0324103041 0)
(0.0001868978633 0.0328502662 0)
(0.0001908621705 0.03344616215 0)
(0.0002439303871 0.03396876943 0)
(0.0001600927372 0.03467537377 0)
(0.000214209293 0.03512900938 0)
(5.324321614e-05 0.03597044874 0)
(0.000246728565 0.03679870041 0)
(0.0001373496467 0.03736655908 0)
(0.0002383336992 0.0379986446 0)
(0.0001163562017 0.03867612779 0)
(0.0002531490291 0.03963394891 0)
(0.0002600956684 0.04023946136 0)
(0.0002727946265 0.04105951996 0)
(0.00027758125 0.04195601757 0)
(0.0002900487779 0.04288235299 0)
(0.0003054702071 0.04383640773 0)
(0.000321942846 0.04482277639 0)
(0.0003385706264 0.04584801858 0)
(0.0003549769482 0.04691308256 0)
(0.0003695580569 0.04801553099 0)
(0.0003660161591 0.04913062775 0)
(0.0003528791171 0.05047417716 0)
(0.000444532045 0.05179772341 0)
(0.0004414063352 0.0530556013 0)
(0.00046095616 0.05449746945 0)
(0.0005033103942 0.05597448227 0)
(0.0005321006547 0.05752636157 0)
(0.0005502517305 0.05918630531 0)
(0.0005835633833 0.06095178849 0)
(0.000616013846 0.06280049646 0)
(0.0006531128548 0.06476415938 0)
(0.0007091418065 0.06682057087 0)
(0.0007556494164 0.06897603621 0)
(0.000794161963 0.07127437441 0)
(0.0008385756166 0.07373734063 0)
(0.00089961826 0.0763715051 0)
(0.0009760302892 0.0791764031 0)
(0.001059284399 0.08216321318 0)
(0.001140229194 0.0853651113 0)
(0.001224669507 0.08882360543 0)
(0.001315595372 0.09255790445 0)
(0.001421361565 0.09656984693 0)
(0.00154745858 0.100867765 0)
(0.001671738025 0.1055124034 0)
(0.001817757714 0.1105635986 0)
(0.00199601916 0.1160440139 0)
(0.002189900911 0.1219848784 0)
(0.002397159155 0.1284451253 0)
(0.002631609316 0.1355206567 0)
(0.002922388842 0.1432918247 0)
(0.003248739086 0.1518885575 0)
(0.003675799271 0.1612329689 0)
(0.004106468612 0.1716798669 0)
(0.004641495582 0.1835036109 0)
(0.005261627812 0.1966081882 0)
(0.006003341754 0.2112612851 0)
(0.006880144782 0.227696551 0)
(0.007912739214 0.2461594735 0)
(0.009158747199 0.266988978 0)
(0.01066971849 0.2905117016 0)
(0.01246902266 0.3170356567 0)
(0.01453644766 0.3468120409 0)
(0.01674091369 0.3801180426 0)
(0.01914921596 0.4171593714 0)
(0.02113403261 0.4550767286 0)
(0.01510887696 0.4881120753 0)
(-0.004428844521 0.5392895264 0)
(0.003607361571 0.5669879154 0)
(0.0132323992 0.5292792521 0)
(0.005086869417 0.4990161266 0)
(0.00623761826 0.481172736 0)
(6.305019499e-05 0.460373533 0)
(-0.002814966869 0.4394536987 0)
(-0.004340511416 0.4157977652 0)
(-0.005667035585 0.3921468014 0)
(-0.005579085658 0.3697636427 0)
(-0.004627714551 0.348629378 0)
(-0.004072912903 0.3291583536 0)
(-0.004133529399 0.311704699 0)
(-0.004058690565 0.2960423351 0)
(-0.003630735635 0.2816991372 0)
(-0.003179047891 0.2686562431 0)
(-0.00280339909 0.2570237215 0)
(-0.002441140374 0.2466970831 0)
(-0.002119338916 0.2375158798 0)
(-0.001853877138 0.2293417371 0)
(-0.001647297144 0.2220487525 0)
(-0.001480448957 0.2155407708 0)
(-0.001328918498 0.2096959666 0)
(-0.001195609804 0.204404985 0)
(-0.001083705372 0.19960978 0)
(-0.0009869635274 0.1952508662 0)
(-0.0009018997891 0.1912734293 0)
(-0.0008268890812 0.1876316331 0)
(-0.0007606495876 0.1842856964 0)
(-0.0007018265102 0.1812016282 0)
(-0.0006493026765 0.1783506418 0)
(-0.0006022511939 0.1757079229 0)
(-0.0005599547689 0.1732519385 0)
(-0.0005217785992 0.1709641825 0)
(-0.0004872306251 0.1688286581 0)
(-0.0004558538826 0.166831331 0)
(-0.0004272272856 0.1649598814 0)
(-0.0004009779773 0.1632034666 0)
(-0.0003768285217 0.1615524749 0)
(-0.0003545405373 0.1599983063 0)
(-0.0003339137898 0.1585332661 0)
(-0.0003147653245 0.1571504717 0)
(-0.0002969492767 0.1558437809 0)
(-0.000280345337 0.1546077012 0)
(-0.000264858568 0.153437334 0)
(-0.0002504042387 0.152328316 0)
(-0.0002369100762 0.1512767605 0)
(-0.0002243068788 0.1502791659 0)
(-0.0002125322075 0.1493323496 0)
(-0.0002015421391 0.1484334227 0)
(-0.000191308391 0.1475797228 0)
(-0.0001817672084 0.1467686505 0)
(-0.0001728557352 0.1459974882 0)
(-0.0001645373232 0.1452637543 0)
(-0.0001567661352 0.1445650954 0)
(-0.0001495029619 0.1438992047 0)
(-0.0001427156725 0.1432638454 0)
(-0.000136382078 0.1426569109 0)
(-0.0001304732356 0.1420764448 0)
(-0.0001249494397 0.1415205282 0)
(-0.0001197969826 0.1409872581 0)
(-0.0001150174757 0.1404749019 0)
(-0.0001105947688 0.1399819551 0)
(-0.0001064934232 0.1395071336 0)
(-0.0001026632724 0.1390494016 0)
(-9.905654746e-05 0.1386079268 0)
(-9.559285528e-05 0.1381821643 0)
(-9.203468587e-05 0.1377724235 0)
(-8.821609161e-05 0.1373794514 0)
(-8.447229182e-05 0.1370028829 0)
(-8.126834715e-05 0.1366411633 0)
(-7.845633165e-05 0.1362927898 0)
(-7.578590692e-05 0.1359562604 0)
(-7.329916968e-05 0.1356303033 0)
(-7.097991023e-05 0.1353138226 0)
(-6.880747265e-05 0.1350057918 0)
(-6.677348309e-05 0.1347052938 0)
(-6.487101482e-05 0.1344115506 0)
(-6.309451499e-05 0.1341239502 0)
(-6.143924153e-05 0.1338420537 0)
(-5.990062774e-05 0.1335655949 0)
(-5.847392186e-05 0.1332944652 0)
(-5.715386866e-05 0.1330286814 0)
(-5.593349305e-05 0.1327683426 0)
(-5.480442287e-05 0.1325135825 0)
(-5.375750074e-05 0.132264519 0)
(-5.278322809e-05 0.1320212076 0)
(-5.187177133e-05 0.1317836039 0)
(-5.101326576e-05 0.13155154 0)
(-5.019842199e-05 0.1313247153 0)
(-4.941917976e-05 0.1311027031 0)
(-4.866907117e-05 0.1308849712 0)
(-4.794339425e-05 0.1306709137 0)
(-4.723927284e-05 0.130459892 0)
(-4.655567874e-05 0.1302512775 0)
(-4.589327046e-05 0.1300444947 0)
(-4.52540197e-05 0.1298390578 0)
(-4.464077419e-05 0.1296345999 0)
(-4.405679046e-05 0.1294308905 0)
(-4.350530795e-05 0.1292278408 0)
(-4.298918059e-05 0.129025496 0)
(-4.251048683e-05 0.1288240163 0)
(-4.207029277e-05 0.1286236483 0)
(-4.166850399e-05 0.1284246901 0)
(-4.130386921e-05 0.1282274531 0)
(-4.097410391e-05 0.1280322253 0)
(-4.067606158e-05 0.1278392372 0)
(-4.04060126e-05 0.1276486365 0)
(-4.015993567e-05 0.1274604708 0)
(-3.993386602e-05 0.1272746819 0)
(-3.972418108e-05 0.1270911095 0)
(-3.952785911e-05 0.1269095047 0)
(-3.93426717e-05 0.1267295514 0)
(-3.916727873e-05 0.1265508912 0)
(-3.90012312e-05 0.1263731517 0)
(-3.884490752e-05 0.1261959728 0)
(-3.869938026e-05 0.1260190298 0)
(-3.85662384e-05 0.1258420514 0)
(-3.844737328e-05 0.1256648303 0)
(-3.834475614e-05 0.1254872282 0)
(-3.826022895e-05 0.1253091728 0)
(-3.819534943e-05 0.1251306508 0)
(-3.815125604e-05 0.124951696 0)
(-3.81285751e-05 0.1247723744 0)
(-3.812741941e-05 0.1245927699 0)
(-3.814739415e-05 0.1244129682 0)
(-3.818767075e-05 0.124233044 0)
(-3.824709033e-05 0.1240530491 0)
(-3.832427052e-05 0.1238730034 0)
(-3.841774674e-05 0.1236928892 0)
(-3.85260815e-05 0.1235126479 0)
(-3.864800062e-05 0.1233321797 0)
(-3.878246445e-05 0.1231513458 0)
(-3.892876732e-05 0.1229699739 0)
(-3.908657701e-05 0.1227878647 0)
(-3.925594823e-05 0.1226048016 0)
(-3.943734341e-05 0.122420561 0)
(-3.963159443e-05 0.1222349242 0)
(-3.983987008e-05 0.1220476892 0)
(-4.006361621e-05 0.1218586815 0)
(-4.03044611e-05 0.1216677647 0)
(-4.056415815e-05 0.1214748471 0)
(-4.084447422e-05 0.1212798866 0)
(-4.114711348e-05 0.1210828912 0)
(-4.147359866e-05 0.1208839156 0)
(-4.182518217e-05 0.1206830543 0)
(-4.22027925e-05 0.1204804307 0)
(-4.260692544e-05 0.1202761839 0)
(-4.303762285e-05 0.1200704531 0)
(-4.349442024e-05 0.1198633625 0)
(-4.397634836e-05 0.1196550058 0)
(-4.448194528e-05 0.1194454337 0)
(-4.500929873e-05 0.1192346439 0)
(-4.555612147e-05 0.1190225759 0)
(-4.611981994e-05 0.1188091094 0)
(-4.669763909e-05 0.1185940677 0)
(-4.728674963e-05 0.1183772261 0)
(-4.78843903e-05 0.1181583231 0)
(-4.848801625e-05 0.1179370746 0)
(-4.909538166e-05 0.1177131899 0)
(-4.970469227e-05 0.1174863877 0)
(-5.031466191e-05 0.1172564115 0)
(-5.092457385e-05 0.117023042 0)
(-5.153434256e-05 0.1167861071 0)
(-5.21444651e-05 0.116545488 0)
(-5.275603424e-05 0.1163011205 0)
(-5.337063805e-05 0.1160529935 0)
(-5.399027901e-05 0.1158011425 0)
(-5.461727722e-05 0.1155456407 0)
(-5.525411468e-05 0.1152865881 0)
(-5.590332904e-05 0.115024099 0)
(-5.656734739e-05 0.1147582892 0)
(-5.724839098e-05 0.1144892651 0)
(-5.794835168e-05 0.1142171135 0)
(-5.866868769e-05 0.1139418942 0)
(-5.941039067e-05 0.1136636353 0)
(-6.017391267e-05 0.1133823318 0)
(-6.095919708e-05 0.1130979466 0)
(-6.176567184e-05 0.1128104139 0)
(-6.259230609e-05 0.1125196449 0)
(-6.343769534e-05 0.1122255349 0)
(-6.430011491e-05 0.1119279699 0)
(-6.517766218e-05 0.1116268342 0)
(-6.606831251e-05 0.1113220165 0)
(-6.69700474e-05 0.1110134149 0)
(-6.788095765e-05 0.1107009397 0)
(-6.879927799e-05 0.1103845157 0)
(-6.972350261e-05 0.1100640809 0)
(-7.065239713e-05 0.1097395857 0)
(-7.15850345e-05 0.1094109893 0)
(-7.252080616e-05 0.1090782567 0)
(-7.345938817e-05 0.1087413546 0)
(-7.44007423e-05 0.1084002488 0)
(-7.534504516e-05 0.1080549009 0)
(-7.629265743e-05 0.1077052678 0)
(-7.724405579e-05 0.1073513007 0)
(-7.819977232e-05 0.1069929471 0)
(-7.916036517e-05 0.1066301523 0)
(-8.012633165e-05 0.1062628631 0)
(-8.109809852e-05 0.1058910312 0)
(-8.207595894e-05 0.1055146167 0)
(-8.306008452e-05 0.1051335921 0)
(-8.405048068e-05 0.104747944 0)
(-8.5046996e-05 0.1043576756 0)
(-8.604933446e-05 0.1039628065 0)
(-8.705704269e-05 0.1035633719 0)
(-8.806955857e-05 0.1031594203 0)
(-8.908620349e-05 0.1027510105 0)
(-9.010621299e-05 0.1023382073 0)
(-9.112876804e-05 0.1019210769 0)
(-9.215298752e-05 0.1014996827 0)
(-9.317798006e-05 0.1010740808 0)
(-9.420283062e-05 0.1006443169 0)
(-9.522661838e-05 0.1002104237 0)
(-9.624844063e-05 0.09977241934 0)
(-9.7267385e-05 0.09933030812 0)
(-9.82825741e-05 0.09888408119 0)
(-9.929312407e-05 0.09843371919 0)
(-0.000100298178 0.09797919538 0)
(-0.0001012968988 0.09752047952 0)
(-0.0001022884514 0.09705754175 0)
(-0.000103272043 0.09659035654 0)
(-0.0001042468879 0.09611890597 0)
(-0.0001052122512 0.09564318241 0)
(-0.0001061674326 0.09516319017 0)
(-0.0001071118017 0.09467894617 0)
(-0.0001080447829 0.09419047948 0)
(-0.0001089658781 0.09369783002 0)
(-0.0001098746902 0.09320104648 0)
(-0.0001107709156 0.09270018371 0)
(-0.0001116543462 0.09219529984 0)
(-0.0001125248972 0.09168645361 0)
(-0.0001133825848 0.09117370197 0)
(-0.0001142275287 0.09065709825 0)
(-0.0001150599428 0.09013669123 0)
(-0.0001158801133 0.08961252498 0)
(-0.000116688389 0.08908463958 0)
(-0.0001174851393 0.08855307262 0)
(-0.0001182707532 0.08801786127 0)
(-0.0001190455968 0.08747904483 0)
(-0.0001198099917 0.08693666719 0)
(-0.0001205641941 0.08639077937 0)
(-0.000121308369 0.08584144142 0)
(-0.0001220425753 0.08528872384 0)
(-0.0001227667546 0.08473270811 0)
(-0.0001234807223 0.08417348644 0)
(-0.000124184169 0.08361116058 0)
(-0.0001248766625 0.08304583992 0)
(-0.0001255576623 0.08247763894 0)
(-0.0001262265231 0.08190667427 0)
(-0.0001268825295 0.08133306158 0)
(-0.0001275248933 0.08075691261 0)
(-0.0001281527932 0.08017833248 0)
(-0.0001287653845 0.07959741766 0)
(-0.0001293618283 0.07901425459 0)
(-0.0001299413085 0.07842891911 0)
(-0.0001305030264 0.07784147684 0)
(-0.0001310462419 0.07725198419 0)
(-0.0001315702696 0.07666049025 0)
(-0.0001320744784 0.07606703907 0)
(-0.0001325583056 0.07547167232 0)
(-0.0001330212451 0.07487443212 0)
(-0.000133462852 0.07427536362 0)
(-0.0001338827375 0.07367451751 0)
(-0.0001342805477 0.07307195183 0)
(-0.0001346559909 0.07246773341 0)
(-0.0001350087857 0.07186193857 0)
(-0.0001353386966 0.07125465318 0)
(-0.0001356455005 0.07064597212 0)
(-0.0001359289999 0.07003599819 0)
(-0.0001361890115 0.06942484065 0)
(-0.0001364253706 0.0688126134 0)
(-0.0001366379253 0.06819943314 0)
(-0.0001368265429 0.06758541731 0)
(-0.0001369911235 0.06697068246 0)
(-0.0001371315678 0.06635534259 0)
(-0.0001372478192 0.06573950785 0)
(-0.0001373398513 0.06512328373 0)
(-0.0001374076592 0.06450677047 0)
(-0.0001374512787 0.06389006288 0)
(-0.0001374707775 0.06327325055 0)
(-0.0001374662468 0.06265641836 0)
(-0.0001374378138 0.06203964717 0)
(-0.0001373856259 0.0614230149 0)
(-0.0001373098459 0.06080659759 0)
(-0.000137210644 0.06019047071 0)
(-0.0001370881886 0.0595747105 0)
(-0.0001369426435 0.05895939543 0)
(-0.000136774148 0.05834460747 0)
(-0.0001365828078 0.05773043364 0)
(-0.0001363686909 0.05711696712 0)
(-0.0001361318144 0.05650430859 0)
(-0.0001358721383 0.05589256711 0)
(-0.0001355895566 0.05528186099 0)
(-0.0001352838973 0.05467231818 0)
(-0.0001349549178 0.05406407654 0)
(-0.0001346023015 0.05345728351 0)
(-0.0001342256734 0.05285209553 0)
(-0.0001338245845 0.05224867689 0)
(-0.0001333985333 0.05164719826 0)
(-0.0001329469805 0.05104783472 0)
(-0.0001324693415 0.05045076352 0)
(-0.0001319650031 0.04985616157 0)
(-0.0001314333544 0.04926420274 0)
(-0.000130873777 0.04867505527 0)
(-0.0001302856698 0.04808887919 0)
(-0.0001296684564 0.04750582417 0)
(-0.0001290216024 0.04692602771 0)
(-0.0001283446239 0.04634961397 0)
(-0.0001276370982 0.04577669336 0)
(-0.000126898664 0.0452073627 0)
(-0.0001261290335 0.04464170638 0)
(-0.0001253279906 0.04407979816 0)
(-0.0001244954022 0.04352170372 0)
(-0.0001236311965 0.04296748378 0)
(-0.000122735389 0.04241719764 0)
(-0.0001218080469 0.04187090696 0)
(-0.0001208493027 0.04132867948 0)
(-0.0001198593511 0.0407905926 0)
(-0.000118838423 0.0402567364 0)
(-0.0001177867856 0.03972721614 0)
(-0.0001167047471 0.03920215372 0)
(-0.0001155926272 0.0386816884 0)
(-0.0001144507697 0.03816597635 0)
(-0.0001132795162 0.03765518923 0)
(-0.0001120792259 0.0371495118 0)
(-0.0001108502464 0.03664913876 0)
(-0.000109592919 0.0361542708 0)
(-0.0001083075954 0.03566511038 0)
(-0.0001069946054 0.03518185727 0)
(-0.0001056542843 0.03470470417 0)
(-0.0001042869852 0.03423383273 0)
(-0.0001028930569 0.03376941013 0)
(-0.0001014728408 0.03331158662 0)
(-0.0001000266713 0.03286049392 0)
(-9.855489764e-05 0.03241624477 0)
(-9.705788285e-05 0.03197893343 0)
(-9.553598698e-05 0.03154863734 0)
(-9.398959944e-05 0.03112541949 0)
(-9.241910562e-05 0.03070933173 0)
(-9.082490486e-05 0.0303004184 0)
(-8.920740871e-05 0.02989872035 0)
(-8.756701778e-05 0.02950427893 0)
(-8.590413553e-05 0.02911713973 0)
(-8.421914269e-05 0.02873735586 0)
(-8.251240351e-05 0.02836499056 0)
(-8.078424078e-05 0.02800011913 0)
(-7.903492744e-05 0.02764282988 0)
(-7.72646781e-05 0.02729322436 0)
(-7.547361362e-05 0.02695141663 0)
(-7.366176014e-05 0.02661753202 0)
(-7.182912646e-05 0.02629170499 0)
(-6.997562426e-05 0.02597407674 0)
(-6.810097527e-05 0.02566479271 0)
(-6.620475947e-05 0.02536400032 0)
(-6.428640356e-05 0.02507184671 0)
(-6.234516958e-05 0.02478847689 0)
(-6.038015236e-05 0.02451403249 0)
(-5.83902371e-05 0.02424865101 0)
(-5.637407401e-05 0.02399246598 0)
(-5.433009358e-05 0.02374560768 0)
(-5.225642425e-05 0.02350820476 0)
(-5.01509722e-05 0.02328038625 0)
(-4.80113208e-05 0.02306228376 0)
(-4.583455679e-05 0.02285403489 0)
(-4.361720144e-05 0.02265578722 0)
(-4.135512375e-05 0.0224677025 0)
(-3.904333895e-05 0.02228996139 0)
(-3.667579612e-05 0.02212276875 0)
(-3.424474367e-05 0.0219663606 0)
(-3.174077337e-05 0.02182101042 0)
(-2.915265931e-05 0.02168703762 0)
(-2.646512732e-05 0.02156482036 0)
(-2.365854442e-05 0.02145478111 0)
(-2.074172796e-05 0.02135740354 0)
(-1.770909145e-05 0.02127354494 0)
(-1.441836613e-05 0.02120345354 0)
(-1.152908041e-05 0.02114519923 0)
(-1.348981353e-05 0.02110369207 0)
(2.205302261e-06 0.02111783401 0)
(3.775279e-06 0.02092926444 0)
(-0.0007418956008 0.08076306724 0)
(-0.0006319757007 0.07991816032 0)
(-0.0005126155869 0.07944878131 0)
(-0.0004280081941 0.07901461877 0)
(-0.0003639595002 0.07861617917 0)
(-0.0003097528639 0.07825007951 0)
(-0.0002549687404 0.0779238878 0)
(-0.0001856578957 0.07765453711 0)
(-5.021736763e-05 0.07733327513 0)
(-9.568646771e-05 0.07700017902 0)
(-7.603061904e-05 0.07672930286 0)
(-0.0001105969754 0.07646342038 0)
(-0.0002006041639 0.07624668112 0)
(-0.0002059333357 0.07606804932 0)
(-0.0001069128165 0.07589371712 0)
(-9.167847787e-05 0.07567718287 0)
(-0.0001484267223 0.07542465908 0)
(-0.0001687782902 0.07515575966 0)
(-0.0002875322684 0.07494056049 0)
(-0.0002786828007 0.07479476192 0)
(-0.000212794071 0.07459720744 0)
(-0.0002171033312 0.07441178784 0)
(-0.0001209416007 0.07422912679 0)
(-1.781283251e-05 0.07394065089 0)
(-0.0001485398813 0.07371663273 0)
(-8.476918345e-05 0.0735439229 0)
(-5.938920631e-06 0.07324266604 0)
(-0.0001568316787 0.07299109956 0)
(-0.0001919212127 0.07283510451 0)
(-0.0002200378465 0.0726508091 0)
(-0.0003391217485 0.07247080922 0)
(-0.0003297939996 0.07233962704 0)
(-0.0002071710752 0.07217793598 0)
(-9.195738147e-05 0.07191258597 0)
(-0.000129700028 0.07162707628 0)
(-0.0001616697681 0.07138017536 0)
(-0.0001765036429 0.07114938765 0)
(-0.0001686201404 0.07095320774 0)
(-0.0001018623438 0.07080488571 0)
(0.0001011180682 0.07049421896 0)
(-7.406581099e-05 0.07009528272 0)
(-0.0003980383218 0.06986027325 0)
(-0.0003412555686 0.06959905362 0)
(-0.0007335668188 0.06957414616 0)
(-0.0005408549166 0.06963219177 0)
(-0.0002578407487 0.0694649243 0)
(0.0002771854795 0.06902237595 0)
(-0.0001872950843 0.06868834466 0)
(-7.066660496e-05 0.06863190276 0)
(-0.0001309219454 0.06844991419 0)
(-0.0003378998057 0.06834924246 0)
(-0.0001412263038 0.06815383356 0)
(-0.0002833573995 0.0679065446 0)
(-0.0001381786369 0.06763209054 0)
(-0.0003248055699 0.06737879568 0)
(-0.000103609706 0.06720124234 0)
(-0.0003078236894 0.06711225155 0)
(-0.0001506486159 0.06718060655 0)
(0.0002886008582 0.06689313131 0)
(3.187823472e-05 0.06652688598 0)
(-0.0002642321631 0.06658281399 0)
(-3.509363839e-05 0.06657060072 0)
(-0.0001904180458 0.06634349772 0)
(-0.0001889653995 0.06616206502 0)
(0.0001145420522 0.06584528964 0)
(2.00138576e-06 0.0653994573 0)
(-0.0004048557005 0.06516493354 0)
(-0.0006208970518 0.06522840659 0)
(-0.0004809759717 0.06528642721 0)
(-0.0003588470123 0.06522346428 0)
(-8.357890572e-05 0.06514116152 0)
(3.749842515e-05 0.06501630498 0)
(-1.417328227e-05 0.06484708759 0)
(-0.0002148741584 0.06468969685 0)
(-5.585159558e-05 0.06445965951 0)
(-0.0004884678364 0.06438601218 0)
(-0.0003072616196 0.06452410493 0)
(2.299396399e-05 0.06437736842 0)
(-0.0001377783455 0.06412320685 0)
(-0.0001176460188 0.06402397548 0)
(3.237523811e-05 0.0638834291 0)
(-1.731952319e-05 0.06364142776 0)
(-0.0003581508753 0.06352090196 0)
(-0.0006071422262 0.0637356785 0)
(-0.0002020033863 0.06384371795 0)
(-0.0005173058775 0.06390637838 0)
(-5.408968427e-05 0.06394596441 0)
(-7.872119937e-05 0.0638294072 0)
(0.0001612664568 0.06369276908 0)
(-9.979362588e-05 0.06359452324 0)
(-9.205640152e-05 0.06369072992 0)
(0.0001694262468 0.06362692023 0)
(-0.0001067859653 0.06347194088 0)
(-0.0002700530979 0.06357408949 0)
(0.000138717936 0.06361723543 0)
(0.0002525486931 0.06347765522 0)
(0.0002227581569 0.06331885967 0)
(-0.0001433279764 0.06329888014 0)
(-0.0002744757791 0.06348377637 0)
(-0.0003784425724 0.06380498114 0)
(-7.670843112e-05 0.06410358681 0)
(0.000365383273 0.06415216399 0)
(0.0004208401277 0.06415700373 0)
(0.0004488043981 0.06421382585 0)
(0.0001749382327 0.06426578851 0)
(0.0001189870642 0.06450962161 0)
(0.0004559661517 0.0647121679 0)
(0.0001915500886 0.06478751982 0)
(0.0001342263926 0.06492299167 0)
(0.0002065182489 0.06509165953 0)
(0.0002436534018 0.06527294393 0)
(0.0005187660666 0.06532870599 0)
(0.0003825280641 0.06540261926 0)
(0.0005021783559 0.06558603913 0)
(0.0003910454102 0.06580572575 0)
(-7.474208623e-05 0.06625615183 0)
(0.0001202439786 0.06662607622 0)
(5.892612119e-05 0.06692393163 0)
(0.0003057984995 0.06723759227 0)
(0.0003085002016 0.06733837662 0)
(3.54387021e-05 0.06768684377 0)
(9.329439296e-06 0.06830416006 0)
(0.0003763078453 0.06874385762 0)
(0.0006157802059 0.06907758008 0)
(0.0009011142185 0.06937995552 0)
(0.0006749467251 0.06959824315 0)
(0.000401056416 0.06995133391 0)
(0.0004317640051 0.07042252817 0)
(0.0006025111013 0.0707119139 0)
(0.0003490771969 0.07110705245 0)
(0.000272917332 0.07175160439 0)
(0.0002481903953 0.07246156012 0)
(0.0003950767642 0.07326178518 0)
(0.000887952574 0.07375909911 0)
(0.0005733238489 0.07419570019 0)
(0.0005051781256 0.07487527438 0)
(0.0004981866035 0.07556825602 0)
(0.0005095397107 0.07628975505 0)
(0.0005350497768 0.07703923112 0)
(0.0005760169472 0.07780267125 0)
(0.0006277635701 0.07856701577 0)
(0.0006860096618 0.07932380223 0)
(0.0007227645191 0.08007202075 0)
(0.0009213591979 0.08077735745 0)
(0.0009341879103 0.08141005041 0)
(0.0002104656286 0.08246922523 0)
(0.0002921664425 0.08388021632 0)
(0.0005778320096 0.08508670281 0)
(0.0007645641827 0.08620525405 0)
(0.0009219169498 0.08731073534 0)
(0.001064713001 0.08845768382 0)
(0.001236108691 0.08960112898 0)
(0.001286307493 0.09071554609 0)
(0.001291447676 0.09195169436 0)
(0.001283541561 0.0933891721 0)
(0.001324188651 0.09488591297 0)
(0.001258654701 0.09641856738 0)
(0.001429365125 0.09797741436 0)
(0.001166819619 0.09971073806 0)
(0.001522242258 0.1015012241 0)
(0.001429027844 0.1032291148 0)
(0.001678402467 0.1050002565 0)
(0.001498763141 0.106814491 0)
(0.0017242094 0.1087403372 0)
(0.001806477854 0.1107365653 0)
(0.001857434894 0.112863849 0)
(0.001924358924 0.1150897754 0)
(0.002005995061 0.1173962019 0)
(0.00209643383 0.119779993 0)
(0.0021910297 0.1222484285 0)
(0.002288038681 0.1248106529 0)
(0.002386685822 0.1274725499 0)
(0.00248210863 0.1302391801 0)
(0.002565431226 0.1331233205 0)
(0.00261155833 0.136172841 0)
(0.002823052596 0.1393435205 0)
(0.002936281125 0.1426212612 0)
(0.003079975202 0.1460657957 0)
(0.003230426266 0.1496774952 0)
(0.003391248065 0.1534721688 0)
(0.003564268795 0.1574802449 0)
(0.003765185554 0.1617049507 0)
(0.003982383422 0.1661465514 0)
(0.004207247022 0.1708205655 0)
(0.004453968295 0.1757366003 0)
(0.004721710444 0.1809102061 0)
(0.005010379459 0.186380365 0)
(0.005325172504 0.1921839831 0)
(0.005673205335 0.1983450056 0)
(0.006057858936 0.2048869085 0)
(0.006480579918 0.2118383548 0)
(0.006941640879 0.2192559188 0)
(0.007442792783 0.2272036682 0)
(0.007983580948 0.2357201112 0)
(0.008568300194 0.2448010498 0)
(0.009219080067 0.2544986112 0)
(0.009942625382 0.2649162558 0)
(0.0107517946 0.2761433731 0)
(0.01165290675 0.288259117 0)
(0.01264705141 0.3013239862 0)
(0.01375526561 0.3154328192 0)
(0.01500044952 0.3307437261 0)
(0.01641874175 0.3474107218 0)
(0.01806313666 0.3655569768 0)
(0.02006274909 0.3854116196 0)
(0.02222203704 0.4073822256 0)
(0.02478842497 0.4316714408 0)
(0.02775104807 0.4584364816 0)
(0.03117913133 0.4880496071 0)
(0.03516541577 0.5208947424 0)
(0.03981215125 0.5573792529 0)
(0.04524754912 0.5979598194 0)
(0.05158700161 0.6430832731 0)
(0.05887224654 0.6931180553 0)
(0.0670068786 0.7483472328 0)
(0.07552936701 0.8088233906 0)
(0.08313541537 0.8741271506 0)
(0.08697539007 0.9431190901 0)
(0.08223342385 1.015188566 0)
(0.06527484663 1.089596995 0)
(0.05996035682 1.108437377 0)
(0.05821564331 1.067913364 0)
(0.04737647819 1.034753707 0)
(0.03577594997 1.025909831 0)
(0.0188406587 1.005491811 0)
(0.00533407117 0.9742480507 0)
(-0.003589166836 0.9377570217 0)
(-0.007791395195 0.8993455493 0)
(-0.01305962922 0.8614856868 0)
(-0.01850057405 0.826214496 0)
(-0.02113631955 0.7937560278 0)
(-0.02196518445 0.7624886349 0)
(-0.02159574329 0.7323707903 0)
(-0.02079738997 0.7044040515 0)
(-0.0194279202 0.679125701 0)
(-0.01782111855 0.6563688027 0)
(-0.01619736515 0.6357765684 0)
(-0.01465234124 0.6172416205 0)
(-0.01328133053 0.6005308996 0)
(-0.01205255117 0.5854164662 0)
(-0.01096823374 0.5717139389 0)
(-0.01002140761 0.5592423929 0)
(-0.009185044391 0.5478542292 0)
(-0.008445487999 0.5374252446 0)
(-0.007789942367 0.5278390574 0)
(-0.007202577968 0.5189981658 0)
(-0.006674538179 0.5108228597 0)
(-0.006199309538 0.5032425473 0)
(-0.005769787295 0.4961961768 0)
(-0.005380610241 0.4896316875 0)
(-0.005027666131 0.4835032698 0)
(-0.004706759449 0.4777702451 0)
(-0.004413711279 0.4723972237 0)
(-0.004145363747 0.4673531523 0)
(-0.003898999054 0.4626103243 0)
(-0.003672132086 0.4581442553 0)
(-0.003462490265 0.4539333178 0)
(-0.003268225314 0.4499582442 0)
(-0.003087706437 0.4462016196 0)
(-0.002919546668 0.4426477603 0)
(-0.002762529067 0.439282514 0)
(-0.002615691551 0.4360931152 0)