/*--------------------------------*- C++ -*----------------------------------*\
| =========                 |                                                 |
| \\      /  F ield         | OpenFOAM: The Open Source CFD Toolbox           |
|  \\    /   O peration     | Version:  v2006                                 |
|   \\  /    A nd           | Website:  www.openfoam.com                      |
|    \\/     M anipulation  |                                                 |
\*---------------------------------------------------------------------------*/
FoamFile
{
    version     2.0;
    format      ascii;
    class       volScalarField;
    location    "0.03302";
    object      C2H3;
}
// * * * * * * * * * * * * * * * * * * * * * * * * * * * * * * * * * * * * * //

dimensions      [0 0 0 0 0 0 0];


internalField   nonuniform List<scalar> 
500
(
1.428652998e-21
1.43725562e-21
1.445974258e-21
1.454810476e-21
1.463765862e-21
1.47284202e-21
1.482040582e-21
1.491363196e-21
1.501475241e-21
1.511750288e-21
1.522163905e-21
1.532717963e-21
1.543414353e-21
1.554254997e-21
1.56523556e-21
1.576315024e-21
1.587543906e-21
1.598924223e-21
1.610458016e-21
1.622147356e-21
1.633994339e-21
1.646737379e-21
1.659824286e-21
1.673087685e-21
1.686529956e-21
1.700153511e-21
1.713960774e-21
1.727884457e-21
1.741995916e-21
1.756297684e-21
1.770792328e-21
1.785482448e-21
1.801133129e-21
1.817544324e-21
1.834176843e-21
1.85103367e-21
1.868117831e-21
1.885386293e-21
1.902846818e-21
1.920542818e-21
1.938477469e-21
1.956653989e-21
1.97646602e-21
1.996943662e-21
2.017697468e-21
2.038731163e-21
2.060015454e-21
2.081512521e-21
2.103299501e-21
2.125380303e-21
2.147928075e-21
2.172958041e-21
2.198325565e-21
2.224035199e-21
2.250083295e-21
2.276359312e-21
2.302989692e-21
2.329979213e-21
2.358047571e-21
2.388778085e-21
2.419923035e-21
2.451488011e-21
2.48338228e-21
2.515642632e-21
2.548338052e-21
2.581912181e-21
2.619257609e-21
2.657106682e-21
2.695466193e-21
2.73419007e-21
2.773394642e-21
2.813127932e-21
2.856099762e-21
2.901586091e-21
2.947685855e-21
2.994287352e-21
3.041402693e-21
3.089153439e-21
3.14064545e-21
3.195397341e-21
3.250887624e-21
3.306930195e-21
3.363642929e-21
3.421120499e-21
3.485797908e-21
3.551778037e-21
3.618555402e-21
3.685989073e-21
3.754332164e-21
3.829303309e-21
3.907821611e-21
3.987319935e-21
4.067567996e-21
4.148898293e-21
4.238907392e-21
4.332404954e-21
4.4269643e-21
4.522521615e-21
4.620876727e-21
4.730783524e-21
4.842172542e-21
4.954552494e-21
5.068395414e-21
5.194037895e-21
5.325028912e-21
5.457367257e-21
5.591244013e-21
5.736311148e-21
5.890407306e-21
6.046138114e-21
6.203629016e-21
6.374976053e-21
6.556309772e-21
6.739450672e-21
6.924779177e-21
7.131354624e-21
7.34480289e-21
7.560055886e-21
7.783616776e-21
8.031593015e-21
8.282343781e-21
8.535782931e-21
8.815669259e-21
9.10764254e-21
9.402157618e-21
9.715414122e-21
1.005488865e-20
1.039758685e-20
1.075304671e-20
1.11477393e-20
1.154646789e-20
1.19554198e-20
1.241441726e-20
1.287818337e-20
1.335497313e-20
1.388886419e-20
1.442810895e-20
1.49908704e-20
1.561199036e-20
1.623881202e-20
1.691035008e-20
1.76326667e-20
1.83614724e-20
1.917032402e-20
2.00094456e-20
2.087350573e-20
2.183926114e-20
2.281377426e-20
2.387542108e-20
2.499732229e-20
2.61505476e-20
2.744121938e-20
2.874320914e-20
3.018271331e-20
3.168043108e-20
3.326984484e-20
3.499191024e-20
3.675651386e-20
3.873547639e-20
4.073115434e-20
4.297648305e-20
4.526842015e-20
4.779591173e-20
5.042629887e-20
5.328566062e-20
5.630207886e-20
5.95524465e-20
6.300842131e-20
6.67198471e-20
7.067537144e-20
7.493041857e-20
7.945246013e-20
8.434786566e-20
8.951084045e-20
1.49957397e-19
2.348339937e-19
4.271768426e-19
6.421542424e-19
8.841025924e-19
1.134337759e-18
1.408849887e-18
1.700350262e-18
2.011181849e-18
2.350593185e-18
2.741859538e-18
3.94481296e-18
6.533386577e-18
1.137446785e-17
1.663633863e-17
2.214160463e-17
2.817049269e-17
4.654076699e-17
7.502509739e-17
1.438222596e-16
2.1633606e-16
2.929269619e-16
6.533105126e-16
1.168670903e-15
1.848205222e-15
3.449364479e-15
6.792644305e-15
1.240794234e-14
2.38376721e-14
4.87624772e-14
1.015968378e-13
1.993799215e-13
3.610734478e-13
8.508279322e-13
1.856665012e-12
3.645241072e-12
7.828800319e-12
1.578601393e-11
3.079815058e-11
5.81515357e-11
1.144834971e-10
2.275995546e-10
4.302310612e-10
7.844021829e-10
1.39494236e-09
2.431299906e-09
4.439909735e-09
7.990520907e-09
1.427506333e-08
2.66892569e-08
5.101159004e-08
9.869905557e-08
1.944331944e-07
3.898514651e-07
8.186463997e-07
1.637526173e-06
3.24712349e-06
6.121523262e-06
1.09493034e-05
1.863198596e-05
3.018410451e-05
4.652033626e-05
6.80295082e-05
9.420715089e-05
0.000123493026
0.0001532007892
0.000179888933
0.0002001277635
0.000211399371
0.0002127593806
0.000205004495
0.000190231114
0.0001710335125
0.0001497622951
0.0001284737056
0.0001085180815
9.054375617e-05
7.492848657e-05
6.181617477e-05
5.079590601e-05
4.161683572e-05
3.403938281e-05
2.784525557e-05
2.272400091e-05
1.841569825e-05
1.515809377e-05
1.244359069e-05
1.027641473e-05
8.495352367e-06
6.964679655e-06
5.762343183e-06
4.7116966e-06
3.922036792e-06
3.255118148e-06
2.680863097e-06
2.220518763e-06
1.784808349e-06
1.450818935e-06
1.231672759e-06
1.02897843e-06
8.359446952e-07
7.087063556e-07
5.980235554e-07
4.909567229e-07
3.889117664e-07
3.214381626e-07
2.733350923e-07
2.265396979e-07
1.810184152e-07
1.365807477e-07
1.167023661e-07
9.959540329e-08
8.281353179e-08
6.637094741e-08
5.021285312e-08
4.018293724e-08
3.493786091e-08
2.977350837e-08
2.468211445e-08
1.966480519e-08
1.47176637e-08
1.20390681e-08
1.045995287e-08
8.899047531e-09
7.356557175e-09
5.832480574e-09
4.32640916e-09
3.183653045e-09
2.834094809e-09
2.488807202e-09
2.147242809e-09
1.809653912e-09
1.475426508e-09
1.144449684e-09
9.118756953e-10
8.072935089e-10
7.037021803e-10
6.010154354e-10
4.992535386e-10
3.985008588e-10
2.986916707e-10
2.087512467e-10
1.831987293e-10
1.61416034e-10
1.398455916e-10
1.185153363e-10
9.741514497e-11
7.655476783e-11
5.596224992e-11
3.907085126e-11
3.393044913e-11
3.021352835e-11
2.655287113e-11
2.294309717e-11
1.938566553e-11
1.587826314e-11
1.242226906e-11
9.01508427e-12
6.407138966e-12
5.988234035e-12
5.589239738e-12
5.195725938e-12
4.807457207e-12
4.423860712e-12
4.044524137e-12
3.66893349e-12
3.296239932e-12
2.92551227e-12
2.587330484e-12
2.36202345e-12
2.13921398e-12
1.916365522e-12
1.69361125e-12
1.471132331e-12
1.249109667e-12
1.0277436e-12
8.073043243e-13
5.881207808e-13
3.740828034e-13
2.854933675e-13
2.60570013e-13
2.359146984e-13
2.115290161e-13
1.874134012e-13
1.635668204e-13
1.399863592e-13
1.166666761e-13
9.35992841e-14
7.077160187e-14
4.816569304e-14
3.025430681e-14
2.79181424e-14
2.560131242e-14
2.330448224e-14
2.102835637e-14
1.877369351e-14
1.65413275e-14
1.433258989e-14
1.214822001e-14
9.989461915e-15
7.857860359e-15
5.755329119e-15
3.684911112e-15
2.16086236e-15
2.018527688e-15
1.878900207e-15
1.742004184e-15
1.607833972e-15
1.476362241e-15
1.34758296e-15
1.221562833e-15
1.098177563e-15
9.773827931e-16
8.59162188e-16
7.433798983e-16
6.299311893e-16
5.186865039e-16
4.093069511e-16
3.014542741e-16
1.945871418e-16
1.576594616e-16
1.493386128e-16
1.410150792e-16
1.326942071e-16
1.243739705e-16
1.160563587e-16
1.077424967e-16
9.943677929e-17
9.113936384e-17
8.285151548e-17
7.457479706e-17
6.631455144e-17
5.807089475e-17
4.98475177e-17
4.164735499e-17
3.347942304e-17
2.534708902e-17
1.726198139e-17
9.239885782e-18
4.552461176e-18
4.323078182e-18
4.097174449e-18
3.874312188e-18
3.654581784e-18
3.437948218e-18
3.224483741e-18
3.014239951e-18
2.807203925e-18
2.603427905e-18
2.402967695e-18
2.205800272e-18
2.011950365e-18
1.821516483e-18
1.634430304e-18
1.450691323e-18
1.270458386e-18
1.093595269e-18
9.201353017e-19
7.501199122e-19
5.834946548e-19
4.202544004e-19
2.602878094e-19
1.03432253e-19
8.180449886e-21
7.910491068e-21
7.645361843e-21
7.385070624e-21
7.129589745e-21
6.879086421e-21
6.633429337e-21
6.392717694e-21
6.156903565e-21
5.925987298e-21
5.700043662e-21
5.478953088e-21
5.262902307e-21
5.051688896e-21
4.845419625e-21
4.644020004e-21
4.447482885e-21
4.25583183e-21
4.068952207e-21
3.886958501e-21
3.709652733e-21
3.537204664e-21
3.369376001e-21
3.206286371e-21
3.047773029e-21
2.893882282e-21
2.744508647e-21
2.599634884e-21
2.45920331e-21
2.323143342e-21
2.19143541e-21
2.063966003e-21
1.940743974e-21
1.821623262e-21
1.70663169e-21
1.595600718e-21
1.488568099e-21
1.385352435e-21
1.285992965e-21
1.190304428e-21
1.098319866e-21
1.009858362e-21
9.249399242e-22
8.433953187e-22
7.652256335e-22
6.902796968e-22
6.185348134e-22
5.49863237e-22
4.842146853e-22
4.214892616e-22
3.616067278e-22
3.044996775e-22
2.500604401e-22
1.982720371e-22
1.490467762e-22
1.026087492e-22
5.946083135e-23
2.244131956e-23
4.356992283e-27
4.356992283e-27
4.356992283e-27
4.356992283e-27
4.356992283e-27
)
;

boundaryField
{
    bottom
    {
        type            calculated;
        value           uniform 1.424380497e-21;
    }
    top
    {
        type            calculated;
        value           uniform 4.356992518e-27;
    }
    frontAndBack
    {
        type            empty;
    }
}


// ************************************************************************* //
