/*--------------------------------*- C++ -*----------------------------------*\
| =========                 |                                                 |
| \\      /  F ield         | OpenFOAM: The Open Source CFD Toolbox           |
|  \\    /   O peration     | Version:  v2006                                 |
|   \\  /    A nd           | Website:  www.openfoam.com                      |
|    \\/     M anipulation  |                                                 |
\*---------------------------------------------------------------------------*/
FoamFile
{
    version     2.0;
    format      ascii;
    class       volScalarField;
    location    "0.03302";
    object      C2H4;
}
// * * * * * * * * * * * * * * * * * * * * * * * * * * * * * * * * * * * * * //

dimensions      [0 0 0 0 0 0 0];


internalField   nonuniform List<scalar> 
500
(
6.772194835e-07
6.772682091e-07
6.773175918e-07
6.773676405e-07
6.774183642e-07
6.774697719e-07
6.775218729e-07
6.775746766e-07
6.780960415e-07
6.786432086e-07
6.791977549e-07
6.7975978e-07
6.803293845e-07
6.809066709e-07
6.814914082e-07
6.820814122e-07
6.82679373e-07
6.83285398e-07
6.83899596e-07
6.845220771e-07
6.851529531e-07
6.862740414e-07
6.875227851e-07
6.887883696e-07
6.90071022e-07
6.913709724e-07
6.92688452e-07
6.940170403e-07
6.953635461e-07
6.967282111e-07
6.981112802e-07
6.995130015e-07
7.013483296e-07
7.035072587e-07
7.056953034e-07
7.079128564e-07
7.101603156e-07
7.124320201e-07
7.147289908e-07
7.170569389e-07
7.194162819e-07
7.218074434e-07
7.248902121e-07
7.282034992e-07
7.315614697e-07
7.349647263e-07
7.384085294e-07
7.418867598e-07
7.45411898e-07
7.489845768e-07
7.526776875e-07
7.573507671e-07
7.620868686e-07
7.668868418e-07
7.717500055e-07
7.766557221e-07
7.816275979e-07
7.866665252e-07
7.920547902e-07
7.984146076e-07
8.048601944e-07
8.113927074e-07
8.17993369e-07
8.246697933e-07
8.314362567e-07
8.384555975e-07
8.467947783e-07
8.552464224e-07
8.638120467e-07
8.724590333e-07
8.812133583e-07
8.900857454e-07
9.000262972e-07
9.10779988e-07
9.216787047e-07
9.326960392e-07
9.438348546e-07
9.551238897e-07
9.676093004e-07
9.81127932e-07
9.948288777e-07
1.008666188e-06
1.022668965e-06
1.036860586e-06
1.05334121e-06
1.070184638e-06
1.087231586e-06
1.104446075e-06
1.121892722e-06
1.141390864e-06
1.16195914e-06
1.182784137e-06
1.203805532e-06
1.225110424e-06
1.249067315e-06
1.274056695e-06
1.299329861e-06
1.324869758e-06
1.3512172e-06
1.381057887e-06
1.41130101e-06
1.44181318e-06
1.47272256e-06
1.507158372e-06
1.543165611e-06
1.579543208e-06
1.616343688e-06
1.656454638e-06
1.699227339e-06
1.742453774e-06
1.78616876e-06
1.833962724e-06
1.884684231e-06
1.935911231e-06
1.987750134e-06
2.045828004e-06
2.105896791e-06
2.166473467e-06
2.229456071e-06
2.299579206e-06
2.370486926e-06
2.442154873e-06
2.521531533e-06
2.604412968e-06
2.688015934e-06
2.777056277e-06
2.873715315e-06
2.97129223e-06
3.072556549e-06
3.185210007e-06
3.299015422e-06
3.415766757e-06
3.547026388e-06
3.679649712e-06
3.816028131e-06
3.968938916e-06
4.123383048e-06
4.28461699e-06
4.46272758e-06
4.642473169e-06
4.8351345e-06
5.042464714e-06
5.251657522e-06
5.483967724e-06
5.725010772e-06
5.973243129e-06
6.2508327e-06
6.530939523e-06
6.836186506e-06
7.158814745e-06
7.490470993e-06
7.861776968e-06
8.236338952e-06
8.650558808e-06
9.081561453e-06
9.53899976e-06
1.003468494e-05
1.054262766e-05
1.11123698e-05
1.16869243e-05
1.233344382e-05
1.29933931e-05
1.3721236e-05
1.447873282e-05
1.530222081e-05
1.617097117e-05
1.710714194e-05
1.810256474e-05
1.917160082e-05
2.031097855e-05
2.153666676e-05
2.283929163e-05
2.42495023e-05
2.573681266e-05
2.736409169e-05
2.905994985e-05
3.094230222e-05
3.287627788e-05
3.505330829e-05
3.73049879e-05
3.977540796e-05
4.239887052e-05
4.519648586e-05
4.825155937e-05
5.142850684e-05
5.496220427e-05
5.867010857e-05
6.264512317e-05
6.696590397e-05
7.148667231e-05
7.64376847e-05
8.17010966e-05
8.722700029e-05
9.332539438e-05
9.973840958e-05
0.0001065121156
0.0001139202971
0.0001217183835
0.0001299307557
0.0001388971299
0.0001483434094
0.0001582890125
0.0001689908681
0.0001803723253
0.0001923469668
0.0002049903042
0.0002186010023
0.0002329297119
0.0002479938567
0.0002638769716
0.0002808659954
0.0002987258906
0.0003174693768
0.0003371517136
0.0003579480527
0.0003798897452
0.0004028801015
0.0004269304098
0.000452097096
0.0004784208319
0.0005061643719
0.000535161027
0.0005654488257
0.0005970418979
0.0006299533447
0.0006641702968
0.0006995939331
0.0007360319787
0.0007730153076
0.0008099217115
0.0008454638214
0.0008782754051
0.0009063236389
0.0009267799319
0.0009360417739
0.0009298994232
0.0009044859381
0.000857214084
0.0007874942616
0.000697865486
0.0005942656815
0.0004851729424
0.0003798020571
0.0002858790156
0.0002080568994
0.0001475046241
0.0001026906295
7.135248453e-05
4.985575449e-05
3.545889209e-05
2.562251666e-05
1.893523008e-05
1.441925974e-05
1.114550473e-05
8.72702827e-06
6.914508666e-06
5.540217437e-06
4.456104235e-06
3.572589754e-06
2.928747971e-06
2.397715514e-06
1.979885047e-06
1.639062453e-06
1.347344752e-06
1.11860945e-06
9.187574892e-07
7.685408504e-07
6.416688636e-07
5.318960611e-07
4.430269264e-07
3.589133527e-07
2.941722408e-07
2.512935614e-07
2.116001075e-07
1.737910418e-07
1.482826749e-07
1.259221676e-07
1.042921703e-07
8.366447825e-08
6.977351119e-08
5.966275703e-08
4.982686254e-08
4.025877287e-08
3.091844764e-08
2.657329037e-08
2.279679864e-08
1.909207331e-08
1.546224821e-08
1.189522646e-08
9.644396624e-09
8.421106706e-09
7.21664371e-09
6.02919659e-09
4.85902797e-09
3.705224329e-09
3.064272351e-09
2.672076789e-09
2.284403912e-09
1.901304658e-09
1.522778721e-09
1.148724627e-09
8.632598079e-10
7.71092705e-10
6.800516282e-10
5.899922415e-10
5.009810639e-10
4.128562024e-10
3.25588413e-10
2.634156637e-10
2.338738497e-10
2.046119278e-10
1.75605528e-10
1.468603745e-10
1.184002991e-10
9.020673629e-11
6.474215048e-11
5.704827808e-11
5.04005983e-11
4.381769423e-11
3.730809086e-11
3.086869883e-11
2.450249369e-11
1.82180343e-11
1.304351306e-11
1.138986431e-11
1.016407792e-11
8.956846435e-12
7.76639551e-12
6.59320632e-12
5.436516048e-12
4.296779489e-12
3.173139529e-12
2.311345808e-12
2.166544076e-12
2.02836702e-12
1.892087934e-12
1.757625286e-12
1.624780696e-12
1.493411373e-12
1.363339315e-12
1.234270558e-12
1.105882617e-12
9.873251631e-13
9.027246821e-13
8.188642908e-13
7.349892259e-13
6.511496095e-13
5.674136302e-13
4.838493745e-13
4.005322472e-13
3.17563943e-13
2.350682676e-13
1.544903207e-13
1.204581863e-13
1.100549701e-13
9.9763636e-14
8.958484866e-14
7.951878971e-14
6.956502788e-14
5.972234657e-14
4.998851618e-14
4.035999424e-14
3.083152914e-14
2.139563412e-14
1.389888714e-14
1.283358237e-14
1.177709421e-14
1.072972607e-14
9.691799223e-15
8.663659637e-15
7.645687541e-15
6.638490136e-15
5.642404563e-15
4.657998117e-15
3.68597521e-15
2.72720854e-15
1.783085693e-15
1.086418823e-15
1.01537371e-15
9.456798665e-16
8.77349407e-16
8.103795122e-16
7.447565409e-16
6.804774828e-16
6.175756321e-16
5.559889473e-16
4.956952883e-16
4.366865011e-16
3.788947779e-16
3.222678413e-16
2.667410238e-16
2.121451711e-16
1.583114451e-16
1.049696452e-16
8.626542452e-17
8.172818711e-17
7.718948576e-17
7.265223567e-17
6.811533209e-17
6.357985979e-17
5.904643218e-17
5.451744569e-17
4.999298616e-17
4.547374342e-17
4.096056967e-17
3.64563783e-17
3.196123263e-17
2.747714515e-17
2.300571612e-17
1.855186205e-17
1.411741901e-17
9.708727826e-18
5.334396184e-18
2.772194069e-18
2.632570512e-18
2.495031425e-18
2.359344104e-18
2.225563583e-18
2.093668538e-18
1.963702959e-18
1.835698261e-18
1.709646576e-18
1.585579711e-18
1.463531643e-18
1.343488351e-18
1.225464895e-18
1.10952125e-18
9.956158166e-19
8.837482906e-19
7.740153815e-19
6.663341523e-19
5.607248939e-19
4.572128303e-19
3.557648125e-19
2.563777181e-19
1.589837587e-19
6.348391965e-20
5.484411739e-21
5.303423507e-21
5.125673175e-21
4.951166384e-21
4.779884584e-21
4.611939881e-21
4.447244238e-21
4.285864163e-21
4.127767523e-21
3.972954552e-21
3.821475377e-21
3.673249836e-21
3.528403119e-21
3.386799515e-21
3.248510605e-21
3.113486451e-21
2.98172226e-21
2.853233827e-21
2.7279443e-21
2.605930435e-21
2.4870595e-21
2.371445307e-21
2.258928097e-21
2.149588074e-21
2.043316126e-21
1.940143301e-21
1.839998877e-21
1.742871301e-21
1.648721895e-21
1.557503342e-21
1.469202519e-21
1.383743327e-21
1.301131701e-21
1.221269717e-21
1.144176028e-21
1.06973764e-21
9.979798634e-22
9.287810848e-22
8.621676113e-22
7.980152378e-22
7.363461156e-22
6.770389547e-22
6.201071681e-22
5.654372966e-22
5.130300697e-22
4.627841374e-22
4.146842842e-22
3.686448653e-22
3.246321699e-22
2.825792243e-22
2.424322347e-22
2.041460099e-22
1.676483643e-22
1.32927915e-22
9.992587074e-23
6.879246886e-23
3.986485182e-23
1.504589612e-23
3.504866359e-27
3.504866359e-27
3.504866359e-27
3.504866359e-27
3.504866359e-27
)
;

boundaryField
{
    bottom
    {
        type            calculated;
        value           uniform 6.771952839e-07;
    }
    top
    {
        type            calculated;
        value           uniform 3.504866517e-27;
    }
    frontAndBack
    {
        type            empty;
    }
}


// ************************************************************************* //
