/*--------------------------------*- C++ -*----------------------------------*\
| =========                 |                                                 |
| \\      /  F ield         | OpenFOAM: The Open Source CFD Toolbox           |
|  \\    /   O peration     | Version:  v2006                                 |
|   \\  /    A nd           | Website:  www.openfoam.com                      |
|    \\/     M anipulation  |                                                 |
\*---------------------------------------------------------------------------*/
FoamFile
{
    version     2.0;
    format      ascii;
    class       volScalarField;
    location    "0.03302";
    object      C2H5;
}
// * * * * * * * * * * * * * * * * * * * * * * * * * * * * * * * * * * * * * //

dimensions      [0 0 0 0 0 0 0];


internalField   nonuniform List<scalar> 
500
(
1.238383338e-17
1.301171987e-17
1.364807413e-17
1.429301036e-17
1.494664429e-17
1.560909323e-17
1.628047604e-17
1.696091322e-17
1.764132834e-17
1.833055057e-17
1.902906775e-17
1.973700524e-17
2.045449007e-17
2.1181651e-17
2.191819739e-17
2.266137768e-17
2.341458061e-17
2.417794134e-17
2.495159686e-17
2.573568602e-17
2.653034952e-17
2.733123841e-17
2.814187888e-17
2.896345177e-17
2.979610452e-17
3.063998653e-17
3.149524793e-17
3.235772067e-17
3.323182484e-17
3.41177173e-17
3.501555704e-17
3.592550518e-17
3.685252917e-17
3.779551721e-17
3.875122252e-17
3.971981661e-17
4.070147329e-17
4.169371997e-17
4.269700255e-17
4.371381555e-17
4.474434143e-17
4.578876514e-17
4.686706034e-17
4.796556747e-17
4.907888922e-17
5.020722539e-17
5.13490046e-17
5.250219801e-17
5.367094357e-17
5.485545099e-17
5.605926135e-17
5.732215824e-17
5.860208674e-17
5.989927655e-17
6.121354354e-17
6.253931045e-17
6.388295683e-17
6.524472382e-17
6.664171679e-17
6.811141285e-17
6.960092944e-17
7.111053387e-17
7.263588684e-17
7.417874786e-17
7.574241613e-17
7.733876862e-17
7.904455513e-17
8.077334613e-17
8.252545185e-17
8.429420031e-17
8.608490492e-17
8.789975925e-17
8.981663045e-17
9.181486814e-17
9.384005436e-17
9.588728199e-17
9.795708306e-17
1.000547978e-16
1.022749156e-16
1.046029269e-16
1.069623342e-16
1.093452244e-16
1.117566094e-16
1.142005147e-16
1.168810771e-16
1.196114383e-16
1.223747904e-16
1.251653015e-16
1.279934458e-16
1.310465665e-16
1.342238974e-16
1.374408861e-16
1.406882136e-16
1.439793351e-16
1.475692874e-16
1.512839881e-16
1.55040874e-16
1.588374096e-16
1.627367684e-16
1.670384954e-16
1.713982363e-16
1.757967621e-16
1.802525482e-16
1.851248291e-16
1.90189699e-16
1.953066644e-16
2.004831135e-16
2.060590939e-16
2.119587562e-16
2.17921002e-16
2.239506341e-16
2.304776111e-16
2.373648015e-16
2.4432063e-16
2.513595454e-16
2.591630844e-16
2.672178545e-16
2.753407287e-16
2.837673421e-16
2.930765234e-16
3.024898621e-16
3.120041244e-16
3.224779907e-16
3.333930602e-16
3.444031517e-16
3.560968363e-16
3.687450574e-16
3.815133864e-16
3.947493572e-16
4.094152429e-16
4.242310969e-16
4.394227341e-16
4.564411462e-16
4.736363671e-16
4.913099618e-16
5.110709161e-16
5.310300278e-16
5.518515506e-16
5.748092151e-16
5.979776238e-16
6.227851037e-16
6.494535425e-16
6.763615628e-16
7.062040164e-16
7.371575033e-16
7.69027136e-16
8.046266647e-16
8.40549019e-16
8.796691583e-16
9.21001151e-16
9.634841723e-16
1.011012434e-15
1.058957475e-15
1.111951934e-15
1.167084765e-15
1.225585872e-15
1.28895911e-15
1.353895816e-15
1.426706506e-15
1.500132196e-15
1.582729567e-15
1.667040092e-15
1.760005613e-15
1.856752367e-15
1.961913236e-15
2.072845717e-15
2.192375795e-15
2.319461993e-15
2.455936495e-15
2.601382109e-15
2.757836195e-15
2.924103294e-15
3.104093189e-15
3.293917613e-15
1.39556384e-14
2.924133685e-14
6.492610318e-14
1.04900679e-13
1.498854441e-13
1.964099382e-13
2.47444619e-13
3.016356848e-13
3.594184167e-13
4.225113208e-13
4.995245042e-13
8.136831934e-13
1.538048957e-12
2.929459807e-12
4.441755421e-12
6.023976577e-12
7.756628915e-12
1.398776112e-11
2.390487617e-11
4.855957796e-11
7.454761855e-11
1.019968046e-10
2.049504593e-10
3.491832198e-10
5.371461468e-10
8.641920767e-10
1.443598794e-09
2.295305857e-09
3.600294481e-09
5.909022507e-09
9.398075706e-09
1.445958219e-08
2.172378656e-08
3.463027329e-08
5.374688891e-08
7.979831533e-08
1.203922148e-07
1.772489476e-07
2.560314314e-07
3.637702792e-07
5.181549779e-07
7.285794275e-07
9.971534073e-07
1.332159534e-06
1.74104468e-06
2.227749971e-06
2.793524197e-06
3.403413837e-06
4.033080925e-06
4.64604498e-06
5.209885215e-06
5.703425167e-06
6.113310252e-06
6.451017528e-06
6.767069041e-06
7.11551631e-06
7.545960945e-06
8.073651632e-06
8.685380902e-06
9.333511516e-06
9.930543296e-06
1.035106146e-05
1.045575906e-05
1.01268035e-05
9.306533785e-06
8.036895052e-06
6.467893587e-06
4.820809332e-06
3.317231514e-06
2.10927142e-06
1.245659023e-06
6.886251042e-07
3.596512139e-07
1.844699664e-07
9.545097441e-08
5.217645981e-08
3.044803567e-08
1.931802113e-08
1.340199915e-08
9.664735473e-09
7.160840313e-09
5.41238528e-09
4.158109436e-09
3.207836046e-09
2.458159032e-09
1.940057088e-09
1.521621788e-09
1.204397643e-09
9.559867787e-10
7.49955367e-10
6.00714139e-10
4.722074033e-10
3.796613021e-10
3.034342049e-10
2.404508435e-10
1.943310175e-10
1.506791539e-10
1.180145572e-10
9.778204198e-11
7.917006336e-11
6.145991761e-11
5.095078726e-11
4.214887109e-11
3.363451052e-11
2.553526104e-11
2.050400725e-11
1.718457523e-11
1.395538159e-11
1.081411018e-11
7.747615469e-12
6.521174286e-12
5.498040852e-12
4.494350498e-12
3.510952244e-12
2.544568787e-12
1.967842261e-12
1.695441588e-12
1.42723327e-12
1.162814029e-12
9.022423422e-13
6.453147898e-13
5.139979365e-13
4.434657543e-13
3.73746929e-13
3.048506209e-13
2.367767753e-13
1.695071432e-13
1.190327727e-13
1.052649285e-13
9.166528919e-14
7.821229396e-14
6.491587931e-14
5.175186187e-14
3.871587317e-14
2.980765751e-14
2.627136346e-14
2.276857383e-14
1.92963714e-14
1.585544137e-14
1.244863654e-14
9.07373453e-15
6.043361486e-15
5.267160472e-15
4.621878538e-15
3.9828843e-15
3.351005271e-15
2.725941568e-15
2.107982027e-15
1.497957442e-15
1.000409482e-15
8.604314685e-16
7.635722417e-16
6.681791866e-16
5.741120987e-16
4.814089991e-16
3.900096117e-16
2.999498732e-16
2.111620563e-16
1.433673076e-16
1.33087766e-16
1.23321483e-16
1.136893474e-16
1.041855969e-16
9.479620968e-17
8.551109362e-17
7.631766758e-17
6.719515435e-17
5.812076082e-17
5.007615127e-17
4.562516218e-17
4.125551294e-17
3.688509911e-17
3.251653238e-17
2.815336579e-17
2.379914706e-17
1.945780526e-17
1.513463933e-17
1.08361003e-17
6.639429784e-18
4.936813191e-18
4.499616484e-18
4.067121639e-18
3.63935659e-18
3.216328966e-18
2.798020646e-18
2.384380502e-18
1.975314834e-18
1.570674769e-18
1.170239607e-18
7.736947174e-19
4.606458484e-19
4.247364729e-19
3.891242887e-19
3.538195229e-19
3.188330048e-19
2.841763965e-19
2.498625148e-19
2.159118271e-19
1.823356979e-19
1.491532496e-19
1.163882267e-19
8.407004595e-20
5.224548036e-20
2.889202447e-20
2.69684923e-20
2.508154551e-20
2.323151205e-20
2.141831562e-20
1.964158687e-20
1.79012443e-20
1.619818934e-20
1.453074223e-20
1.289830354e-20
1.130065249e-20
9.735953205e-21
8.202790283e-21
6.699412865e-21
5.221241133e-21
3.763703827e-21
2.319485322e-21
1.831376248e-21
1.734360925e-21
1.637314301e-21
1.540298707e-21
1.443290524e-21
1.346312942e-21
1.249379082e-21
1.152540181e-21
1.055798076e-21
9.591675164e-22
8.62666724e-22
7.663579932e-22
6.702426777e-22
5.743638088e-22
4.787556028e-22
3.835231854e-22
2.887058151e-22
1.944390716e-22
1.009070046e-22
4.639821692e-23
4.405903531e-23
4.175610248e-23
3.948417536e-23
3.724417537e-23
3.50357455e-23
3.28596223e-23
3.07163318e-23
2.860574222e-23
2.652838617e-23
2.448483253e-23
2.247484656e-23
2.049868039e-23
1.855733824e-23
1.665012361e-23
1.477703136e-23
1.293968081e-23
1.113668326e-23
9.368378463e-24
7.635188766e-24
5.936559129e-24
4.272437266e-24
2.641688143e-24
1.042653874e-24
7.17763519e-26
6.940769729e-26
6.70814182e-26
6.479758841e-26
6.255596518e-26
6.035801568e-26
5.820258774e-26
5.609055175e-26
5.40214872e-26
5.199539715e-26
5.001293762e-26
4.80730595e-26
4.61774012e-26
4.432418663e-26
4.251435259e-26
4.074724551e-26
3.902280268e-26
3.734123082e-26
3.570152414e-26
3.410468715e-26
3.254898275e-26
3.103590045e-26
2.956334941e-26
2.81323793e-26
2.674156215e-26
2.539130425e-26
2.40806801e-26
2.280953843e-26
2.157737311e-26
2.038356485e-26
1.922794193e-26
1.810950839e-26
1.702834191e-26
1.598316094e-26
1.497420957e-26
1.400000904e-26
1.306089061e-26
1.215526263e-26
1.128346943e-26
1.044388548e-26
9.636800678e-27
8.860627672e-27
8.115542e-27
7.40005878e-27
6.71418756e-27
6.056601939e-27
5.427102785e-27
4.824569236e-27
4.248560108e-27
3.698198892e-27
3.172781573e-27
2.671716714e-27
2.194059601e-27
1.739661261e-27
1.307752272e-27
9.002988431e-28
5.217132709e-28
1.968991482e-28
3.425294135e-32
3.425294135e-32
3.425294135e-32
3.425294135e-32
3.425294135e-32
)
;

boundaryField
{
    bottom
    {
        type            calculated;
        value           uniform 1.207199289e-17;
    }
    top
    {
        type            calculated;
        value           uniform 3.425294342e-32;
    }
    frontAndBack
    {
        type            empty;
    }
}


// ************************************************************************* //
