/*--------------------------------*- C++ -*----------------------------------*\
| =========                 |                                                 |
| \\      /  F ield         | OpenFOAM: The Open Source CFD Toolbox           |
|  \\    /   O peration     | Version:  v2006                                 |
|   \\  /    A nd           | Website:  www.openfoam.com                      |
|    \\/     M anipulation  |                                                 |
\*---------------------------------------------------------------------------*/
FoamFile
{
    version     2.0;
    format      ascii;
    class       volScalarField;
    location    "0.03302";
    object      C2H6;
}
// * * * * * * * * * * * * * * * * * * * * * * * * * * * * * * * * * * * * * //

dimensions      [0 0 0 0 0 0 0];


internalField   nonuniform List<scalar> 
500
(
9.74040405e-07
9.740827741e-07
9.741257146e-07
9.741692342e-07
9.742133407e-07
9.742580421e-07
9.743033463e-07
9.743492614e-07
9.750684509e-07
9.758243278e-07
9.765903985e-07
9.773668006e-07
9.781536733e-07
9.78951158e-07
9.797589357e-07
9.805739889e-07
9.814000341e-07
9.822372194e-07
9.830856951e-07
9.839456134e-07
9.848171288e-07
9.863925703e-07
9.881509647e-07
9.899330731e-07
9.917392153e-07
9.935697154e-07
9.95424899e-07
9.97295725e-07
9.991917812e-07
1.001113408e-06
1.00306095e-06
1.005034757e-06
1.007630835e-06
1.010691171e-06
1.013792779e-06
1.016936217e-06
1.020122047e-06
1.023342245e-06
1.026598259e-06
1.029898184e-06
1.033242612e-06
1.036632144e-06
1.041014079e-06
1.04572639e-06
1.050502252e-06
1.055342522e-06
1.060240459e-06
1.065187361e-06
1.070200976e-06
1.075282206e-06
1.08053566e-06
1.087194985e-06
1.093944118e-06
1.100784271e-06
1.107714473e-06
1.114705314e-06
1.121790435e-06
1.128971107e-06
1.13665234e-06
1.145726868e-06
1.154923777e-06
1.164244716e-06
1.173662894e-06
1.183189173e-06
1.192843925e-06
1.202860709e-06
1.21476992e-06
1.22683974e-06
1.239072335e-06
1.251421124e-06
1.263923203e-06
1.276593887e-06
1.290795595e-06
1.306162614e-06
1.321736875e-06
1.337480641e-06
1.353398003e-06
1.369530029e-06
1.387376531e-06
1.406703593e-06
1.426291302e-06
1.446073966e-06
1.466093193e-06
1.486382401e-06
1.50995188e-06
1.534040672e-06
1.558420529e-06
1.583039997e-06
1.607991488e-06
1.635882327e-06
1.665306093e-06
1.695097111e-06
1.725169082e-06
1.755646609e-06
1.789923549e-06
1.825679268e-06
1.861841039e-06
1.898384458e-06
1.936084226e-06
1.978788257e-06
2.022068202e-06
2.065733172e-06
2.109966575e-06
2.159251309e-06
2.210786624e-06
2.262852012e-06
2.315522651e-06
2.372934865e-06
2.43415937e-06
2.496033343e-06
2.558606626e-06
2.627021983e-06
2.699630111e-06
2.772961855e-06
2.847169541e-06
2.930312753e-06
3.016306998e-06
3.103028334e-06
3.193195004e-06
3.293588067e-06
3.395104396e-06
3.497709116e-06
3.611353618e-06
3.7300171e-06
3.849713618e-06
3.977196742e-06
4.115590414e-06
4.255298276e-06
4.400286476e-06
4.561584644e-06
4.724532192e-06
4.891698162e-06
5.079640658e-06
5.269535739e-06
5.464807982e-06
5.683755006e-06
5.904897571e-06
6.135763041e-06
6.390796031e-06
6.648170144e-06
6.92403949e-06
7.220914584e-06
7.520456718e-06
7.853102729e-06
8.198253948e-06
8.553699987e-06
8.951185081e-06
9.35227467e-06
9.789364357e-06
1.025134353e-05
1.072625043e-05
1.125793469e-05
1.179428132e-05
1.238741678e-05
1.300458459e-05
1.365960731e-05
1.436939823e-05
1.50967414e-05
1.591257912e-05
1.673530785e-05
1.766108774e-05
1.860609847e-05
1.964833013e-05
2.073302499e-05
2.191221647e-05
2.315622177e-05
2.449677024e-05
2.59221651e-05
2.7452971e-05
2.908450311e-05
3.083962807e-05
3.270492296e-05
3.472427596e-05
3.685403232e-05
3.918421561e-05
4.161260027e-05
4.430803251e-05
4.707738616e-05
5.019478251e-05
5.341907284e-05
5.695658888e-05
6.07132543e-05
6.4719298e-05
6.90940092e-05
7.364323791e-05
7.87033146e-05
8.401284614e-05
8.97048652e-05
9.589200431e-05
0.0001023655156
0.000109455115
0.0001169920603
0.0001249048853
0.0001336375059
0.0001428206497
0.0001525202865
0.0001631285584
0.0001742952084
0.0001860551516
0.0001988949785
0.0002124223538
0.0002266651127
0.0002419914249
0.0002582923095
0.0002754442334
0.0002935558426
0.0003130556711
0.0003335914307
0.0003551888896
0.0003779687159
0.000402352425
0.0004280058741
0.000454955065
0.0004832884342
0.0005132790237
0.0005449744136
0.0005782183725
0.0006129949012
0.0006493138492
0.0006871000008
0.0007263102446
0.0007663349858
0.0008066996639
0.0008464526619
0.0008846646448
0.0009203863162
0.0009520402069
0.0009776286898
0.0009943010053
0.001000926348
0.0009936646249
0.0009707267372
0.0009300880264
0.0008701618498
0.0007908077557
0.0006940588939
0.0005846315485
0.0004696133487
0.0003572910192
0.0002558100669
0.0001714015715
0.0001070495583
6.219385496e-05
3.362906339e-05
1.695280594e-05
7.963112762e-06
3.461145421e-06
1.427100751e-06
5.572676854e-07
2.10471949e-07
7.514803715e-08
2.598624278e-08
1.004628854e-08
3.85759614e-09
1.50231287e-09
6.317910048e-10
3.14760285e-10
1.741216935e-10
1.043325417e-10
7.568300541e-11
5.489138967e-11
4.159974664e-11
3.196294533e-11
2.437613129e-11
1.921716352e-11
1.482113587e-11
1.173882929e-11
9.2417981e-12
7.210129282e-12
5.776558865e-12
4.419701636e-12
3.414563693e-12
2.807721547e-12
2.250896863e-12
1.721185051e-12
1.417291876e-12
1.16614906e-12
9.232109977e-13
6.922375374e-13
5.512375418e-13
4.603899725e-13
3.720120851e-13
2.860404903e-13
2.02115415e-13
1.695091204e-13
1.425466797e-13
1.16096619e-13
9.018131236e-14
6.471439361e-14
4.964682521e-14
4.270169912e-14
3.586346138e-14
2.912182992e-14
2.247829577e-14
1.592767248e-14
1.261668305e-14
1.087297499e-14
9.149374879e-15
7.446109186e-15
5.763176553e-15
4.100125825e-15
2.854655293e-15
2.521974266e-15
2.193357679e-15
1.868284547e-15
1.54699497e-15
1.22890459e-15
9.139078506e-16
6.995633797e-16
6.162187269e-16
5.336637188e-16
4.518296009e-16
3.707325225e-16
2.904397195e-16
2.108988135e-16
1.395107986e-16
1.214838359e-16
1.065528975e-16
9.176744775e-17
7.714663417e-17
6.268351795e-17
4.838478225e-17
3.42696506e-17
2.276443276e-17
1.955744707e-17
1.735063631e-17
1.517723035e-17
1.303403483e-17
1.092191599e-17
8.839500532e-18
6.787607228e-18
4.764692993e-18
3.220570842e-18
2.988257475e-18
2.767621406e-18
2.550015944e-18
2.335310906e-18
2.123189522e-18
1.91342379e-18
1.705729484e-18
1.499637213e-18
1.294632044e-18
1.113224352e-18
1.01418887e-18
9.170198468e-19
8.198338212e-19
7.226888699e-19
6.256640028e-19
5.288381118e-19
4.322985685e-19
3.361632065e-19
2.405754795e-19
1.472536307e-19
1.094139937e-19
9.972442205e-20
9.013905763e-20
8.065851942e-20
7.128297657e-20
6.201202743e-20
5.284453888e-20
4.377843424e-20
3.481041404e-20
2.593558695e-20
1.714697977e-20
1.020896646e-20
9.413441055e-21
8.624499536e-21
7.84236847e-21
7.06728777e-21
6.29951579e-21
5.539336469e-21
4.787203241e-21
4.043367867e-21
3.30825398e-21
2.582387608e-21
1.866420443e-21
1.161388677e-21
6.439611612e-22
6.011222702e-22
5.590981704e-22
5.178961658e-22
4.775145566e-22
4.379451174e-22
3.99186033e-22
3.612573792e-22
3.241217462e-22
2.877657839e-22
2.521845754e-22
2.173372341e-22
1.831922376e-22
1.497105926e-22
1.167903022e-22
8.432956005e-23
5.216544032e-23
4.12772376e-23
3.909184945e-23
3.69057562e-23
3.472036193e-23
3.253513459e-23
3.035059661e-23
2.816704348e-23
2.598562944e-23
2.380639584e-23
2.162967494e-23
1.94558772e-23
1.728640588e-23
1.512129148e-23
1.296150332e-23
1.080781218e-23
8.662586135e-24
6.526709525e-24
4.403236457e-24
2.296312869e-24
1.067947814e-24
1.014112701e-24
9.611088424e-25
9.088186052e-25
8.572631966e-25
8.064344002e-25
7.563491677e-25
7.070196063e-25
6.584426831e-25
6.106306563e-25
5.635966192e-25
5.173351692e-25
4.718521091e-25
4.27170552e-25
3.832744674e-25
3.401637369e-25
2.978756304e-25
2.56378186e-25
2.156792233e-25
1.757884631e-25
1.366931304e-25
9.839202208e-26
6.085901432e-26
2.405594952e-26
1.709679858e-27
1.653259703e-27
1.597848912e-27
1.543449241e-27
1.490054909e-27
1.437700864e-27
1.386359661e-27
1.336052032e-27
1.28676796e-27
1.238507521e-27
1.191286337e-27
1.145079422e-27
1.0999258e-27
1.055783166e-27
1.012673835e-27
9.70582238e-28
9.295068819e-28
8.894526908e-28
8.50395707e-28
8.123598575e-28
7.753037656e-28
7.392629105e-28
7.041874897e-28
6.701025054e-28
6.369739442e-28
6.048114843e-28
5.735930799e-28
5.433151282e-28
5.139655735e-28
4.855296646e-28
4.580033111e-28
4.3136279e-28
4.056099512e-28
3.807142691e-28
3.56681558e-28
3.334765942e-28
3.111072679e-28
2.895356677e-28
2.687699945e-28
2.487715294e-28
2.295471778e-28
2.110591294e-28
1.933115656e-28
1.762691172e-28
1.599320116e-28
1.442686547e-28
1.292743033e-28
1.149222589e-28
1.012020128e-28
8.809268705e-29
7.557751224e-29
6.364240075e-29
5.226484992e-29
4.144131131e-29
3.115345765e-29
2.144812306e-29
1.243040622e-29
4.693498111e-30
4.275881582e-33
4.275881582e-33
4.275881582e-33
4.275881582e-33
4.275881582e-33
)
;

boundaryField
{
    bottom
    {
        type            calculated;
        value           uniform 9.740193623e-07;
    }
    top
    {
        type            calculated;
        value           uniform 4.275881631e-33;
    }
    frontAndBack
    {
        type            empty;
    }
}


// ************************************************************************* //
