/*--------------------------------*- C++ -*----------------------------------*\
| =========                 |                                                 |
| \\      /  F ield         | OpenFOAM: The Open Source CFD Toolbox           |
|  \\    /   O peration     | Version:  v2006                                 |
|   \\  /    A nd           | Website:  www.openfoam.com                      |
|    \\/     M anipulation  |                                                 |
\*---------------------------------------------------------------------------*/
FoamFile
{
    version     2.0;
    format      ascii;
    class       volScalarField;
    location    "0.03302";
    object      CH;
}
// * * * * * * * * * * * * * * * * * * * * * * * * * * * * * * * * * * * * * //

dimensions      [0 0 0 0 0 0 0];


internalField   nonuniform List<scalar> 
500
(
6.710250064e-44
7.455432119e-44
8.210663807e-44
8.976080658e-44
9.751820031e-44
1.053802114e-43
1.133482506e-43
1.21423748e-43
1.287606095e-43
1.361624117e-43
1.436640357e-43
1.512668277e-43
1.589721521e-43
1.667813915e-43
1.746914246e-43
1.826727016e-43
1.907616153e-43
1.989596172e-43
2.072681786e-43
2.156887904e-43
2.242229638e-43
2.31938173e-43
2.395392149e-43
2.472427655e-43
2.550502073e-43
2.629629414e-43
2.709823754e-43
2.790694271e-43
2.872655418e-43
2.955721906e-43
3.039908641e-43
3.12523073e-43
3.205603811e-43
3.282665177e-43
3.360765804e-43
3.439919707e-43
3.520141091e-43
3.601227893e-43
3.683216554e-43
3.766310926e-43
3.850525921e-43
3.935876651e-43
4.015234665e-43
4.09361582e-43
4.173054034e-43
4.253563564e-43
4.335032288e-43
4.417315442e-43
4.50070828e-43
4.585225765e-43
4.670329142e-43
4.749448927e-43
4.829635734e-43
4.910903951e-43
4.993242045e-43
5.076300601e-43
5.160479297e-43
5.245793239e-43
5.330820861e-43
5.412405022e-43
5.495089439e-43
5.57888895e-43
5.663562677e-43
5.749208291e-43
5.836008935e-43
5.923485647e-43
6.008393281e-43
6.094445992e-43
6.181659222e-43
6.269700864e-43
6.358835402e-43
6.449172022e-43
6.53936091e-43
6.629788104e-43
6.721434812e-43
6.814078971e-43
6.907744656e-43
7.00267353e-43
7.098704896e-43
7.195884139e-43
7.294373956e-43
7.393844032e-43
7.49450358e-43
7.596520637e-43
7.701628264e-43
7.808268279e-43
7.916196824e-43
8.025186119e-43
8.13564526e-43
8.250464113e-43
8.368106965e-43
8.487218171e-43
8.607452696e-43
8.729308721e-43
8.857929415e-43
8.989821094e-43
9.123210572e-43
9.258007827e-43
9.395833059e-43
9.543716226e-43
9.693593768e-43
9.844804646e-43
9.997983994e-43
1.016241204e-42
1.033232672e-42
1.050398909e-42
1.0677647e-42
1.086268317e-42
1.105702467e-42
1.125342774e-42
1.145205059e-42
1.166523723e-42
1.188907486e-42
1.211514327e-42
1.234391205e-42
1.259545073e-42
1.285467289e-42
1.31160868e-42
1.338684772e-42
1.368431286e-42
1.398510624e-42
1.428912453e-42
1.462251246e-42
1.496951025e-42
1.531952886e-42
1.569069297e-42
1.609132133e-42
1.649575408e-42
1.691476155e-42
1.737809565e-42
1.784616765e-42
1.832600274e-42
1.886267758e-42
1.940492809e-42
1.996215935e-42
2.058452301e-42
2.121312756e-42
2.186873174e-42
2.259113095e-42
2.332016155e-42
2.410052899e-42
2.493917733e-42
2.578535985e-42
2.672350933e-42
2.769649971e-42
2.86982399e-42
2.981695221e-42
3.094580929e-42
3.217500413e-42
3.347360667e-42
3.480834614e-42
3.630143414e-42
3.780761515e-42
3.947231291e-42
4.120414693e-42
4.304174039e-42
4.503230886e-42
4.707197595e-42
4.935889111e-42
5.166512283e-42
5.425936995e-42
5.690741832e-42
5.982726859e-42
6.286586677e-42
6.616870903e-42
6.96528088e-42
7.340691872e-42
7.73983311e-42
8.168458823e-42
8.625258806e-42
9.116631625e-42
9.638822882e-42
1.020411165e-41
1.080028657e-41
2.422612471e-39
5.898926127e-39
1.406240887e-38
2.321103344e-38
3.348717741e-38
4.411116847e-38
5.575183593e-38
6.810515549e-38
8.126926152e-38
9.563271449e-38
2.17998523e-37
2.506368972e-36
8.622487368e-36
2.096603389e-35
3.437302578e-35
4.83955962e-35
6.374225471e-35
2.183824261e-33
6.02742004e-33
1.68382143e-32
2.823471131e-32
4.027031647e-32
2.234599077e-30
5.616653211e-30
1.02567858e-29
1.993979297e-28
7.534971125e-28
4.598556721e-27
2.894432493e-26
1.027319229e-25
1.191014695e-24
4.248279543e-24
1.088329404e-23
1.470191366e-22
1.191449334e-21
4.28606037e-21
3.169472973e-20
1.510477318e-19
6.091467955e-19
2.275109328e-18
9.186592877e-18
4.274304088e-17
1.617106865e-16
5.306533931e-16
1.547880233e-15
4.009990908e-15
1.135065291e-14
2.883770183e-14
6.772105798e-14
1.644655161e-13
3.928508218e-13
9.380794652e-13
2.290293858e-12
5.792229922e-12
1.708693683e-11
4.841255309e-11
1.502571779e-10
4.539894133e-10
1.319962082e-09
3.693169837e-09
9.924883169e-09
2.550347755e-08
6.116551465e-08
1.347228554e-07
2.700078542e-07
4.880179213e-07
7.894173302e-07
1.13670638e-06
1.453480051e-06
1.65276339e-06
1.681104822e-06
1.544837881e-06
1.297499062e-06
1.00730139e-06
7.327167843e-07
5.07362538e-07
3.357210131e-07
2.151362865e-07
1.372644709e-07
8.612609902e-08
5.350803264e-08
3.341053116e-08
2.142412646e-08
1.384089269e-08
8.783867396e-09
6.156176694e-09
4.264509417e-09
3.100703032e-09
2.320968675e-09
1.741372883e-09
1.365887287e-09
1.050310411e-09
8.405018679e-10
6.764150688e-10
5.409211416e-10
4.418499666e-10
3.480802818e-10
2.781626555e-10
2.352416007e-10
1.957929636e-10
1.582311997e-10
1.34001866e-10
1.130796422e-10
9.284093985e-11
7.355391586e-11
6.085042919e-11
5.183464141e-11
4.306394666e-11
3.453205413e-11
2.62032597e-11
2.244038885e-11
1.919387244e-11
1.600905104e-11
1.288861869e-11
9.822176144e-12
7.905119005e-12
6.885444473e-12
5.881463131e-12
4.891665382e-12
3.916270137e-12
2.954515929e-12
2.428312953e-12
2.113271642e-12
1.801863293e-12
1.494128824e-12
1.19006799e-12
8.895992793e-13
6.609366964e-13
5.889965944e-13
5.179354004e-13
4.476404544e-13
3.781636769e-13
3.093787044e-13
2.412627105e-13
1.932213516e-13
1.71288836e-13
1.495641188e-13
1.280291068e-13
1.0668805e-13
8.55586416e-14
6.462709815e-14
4.574450504e-14
4.021803987e-14
3.547558068e-14
3.077933252e-14
2.613537711e-14
2.154151052e-14
1.69998555e-14
1.251651794e-14
8.833093135e-15
7.68842813e-15
6.851708034e-15
6.027653486e-15
5.215053327e-15
4.414236003e-15
3.624680818e-15
2.846698211e-15
2.079703121e-15
1.491599004e-15
1.393353516e-15
1.29962479e-15
1.2071835e-15
1.115974341e-15
1.025862749e-15
9.367518655e-16
8.485209469e-16
7.609705908e-16
6.738820478e-16
5.949157913e-16
5.441643395e-16
4.940409241e-16
4.439087382e-16
3.937977401e-16
3.437486858e-16
2.938022708e-16
2.440035647e-16
1.944133504e-16
1.451056267e-16
9.694716103e-17
7.671636065e-17
7.066193572e-17
6.467262351e-17
5.874881088e-17
5.289060347e-17
4.709775032e-17
4.136954339e-17
3.570468513e-17
3.010111388e-17
2.455577334e-17
1.906430639e-17
1.468436464e-17
1.398912768e-17
1.32996446e-17
1.261611342e-17
1.193874378e-17
1.126776149e-17
1.060341468e-17
9.946099632e-18
9.296036363e-18
8.653595101e-18
8.019235558e-18
7.393527273e-18
6.777375808e-18
6.299658331e-18
6.169597553e-18
6.042010518e-18
5.916919401e-18
5.794319041e-18
5.674184465e-18
5.556510162e-18
5.441357083e-18
5.328611651e-18
5.218233333e-18
5.110207202e-18
5.004409125e-18
4.900743398e-18
4.799091636e-18
4.699144171e-18
4.600591915e-18
4.502940218e-18
4.430854731e-18
4.369145133e-18
4.307415623e-18
4.245705853e-18
4.184000795e-18
4.122315203e-18
4.060657421e-18
3.999060041e-18
3.937524231e-18
3.876059372e-18
3.814677057e-18
3.753416908e-18
3.692279787e-18
3.631293065e-18
3.570478506e-18
3.50990298e-18
3.449591457e-18
3.389630177e-18
3.330136211e-18
3.277001362e-18
3.23232677e-18
3.188231324e-18
3.144729559e-18
3.10183912e-18
3.059553171e-18
3.017885814e-18
2.976847121e-18
2.936434571e-18
2.896658359e-18
2.85752938e-18
2.819043139e-18
2.781204462e-18
2.744032579e-18
2.707514154e-18
2.671649087e-18
2.636468385e-18
2.601945458e-18
2.568086811e-18
2.534900531e-18
2.50237599e-18
2.470512188e-18
2.43928739e-18
2.408669854e-18
2.381158823e-18
2.358150833e-18
2.335554459e-18
2.313370418e-18
2.29159635e-18
2.27024651e-18
2.249309703e-18
2.228794386e-18
2.208696472e-18
2.189015992e-18
2.169759319e-18
2.15091626e-18
2.132502734e-18
2.114501484e-18
2.096921613e-18
2.079756771e-18
2.06300635e-18
2.046672358e-18
2.030745023e-18
2.015234104e-18
2.000122728e-18
1.985425363e-18
1.971121699e-18
1.957221933e-18
1.943712193e-18
1.930596427e-18
1.917865644e-18
1.905518376e-18
1.893549706e-18
1.881953617e-18
1.870728443e-18
1.859864509e-18
1.84936257e-18
1.839210176e-18
1.8294097e-18
1.819946778e-18
1.810824626e-18
1.802027785e-18
1.793559598e-18
1.785404277e-18
1.777564638e-18
1.77002526e-18
1.76278785e-18
1.755837985e-18
1.749175757e-18
1.742788282e-18
1.736673625e-18
1.730820899e-18
1.725225819e-18
1.719879871e-18
1.714776215e-18
1.709909109e-18
1.705269374e-18
1.700855563e-18
1.696660204e-18
1.692702394e-18
1.689024993e-18
1.685869902e-18
1.68395765e-18
1.68395765e-18
1.68395765e-18
1.68395765e-18
1.68395765e-18
)
;

boundaryField
{
    bottom
    {
        type            calculated;
        value           uniform 6.340154617e-44;
    }
    top
    {
        type            calculated;
        value           uniform 1.68395765e-18;
    }
    frontAndBack
    {
        type            empty;
    }
}


// ************************************************************************* //
