/*--------------------------------*- C++ -*----------------------------------*\
| =========                 |                                                 |
| \\      /  F ield         | OpenFOAM: The Open Source CFD Toolbox           |
|  \\    /   O peration     | Version:  v2006                                 |
|   \\  /    A nd           | Website:  www.openfoam.com                      |
|    \\/     M anipulation  |                                                 |
\*---------------------------------------------------------------------------*/
FoamFile
{
    version     2.0;
    format      ascii;
    class       volScalarField;
    location    "0.03302";
    object      CH2;
}
// * * * * * * * * * * * * * * * * * * * * * * * * * * * * * * * * * * * * * //

dimensions      [0 0 0 0 0 0 0];


internalField   nonuniform List<scalar> 
500
(
5.67944035e-29
5.744917227e-29
5.811277135e-29
5.878531982e-29
5.946693838e-29
6.015774934e-29
6.085787668e-29
6.156744604e-29
6.228410836e-29
6.301033634e-29
6.374635834e-29
6.449230643e-29
6.524831448e-29
6.601451817e-29
6.679061124e-29
6.757369439e-29
6.836733832e-29
6.917168545e-29
6.998688012e-29
7.081306862e-29
7.165039922e-29
7.249752967e-29
7.335573595e-29
7.422551614e-29
7.51070263e-29
7.600042463e-29
7.690587006e-29
7.781894997e-29
7.87443438e-29
7.968221762e-29
8.063273975e-29
8.159608075e-29
8.258323597e-29
8.359150315e-29
8.461336797e-29
8.56490138e-29
8.669862651e-29
8.77595623e-29
8.883229797e-29
8.991950071e-29
9.102136562e-29
9.213809044e-29
9.330347957e-29
9.449421473e-29
9.570100832e-29
9.692407691e-29
9.816171718e-29
9.941172997e-29
1.006786006e-28
1.019625565e-28
1.032690247e-28
1.046600174e-28
1.060697691e-28
1.07498533e-28
1.089461062e-28
1.104063457e-28
1.118862783e-28
1.133861694e-28
1.149314505e-28
1.165779534e-28
1.182466613e-28
1.199378735e-28
1.216467289e-28
1.233751986e-28
1.251269787e-28
1.269191741e-28
1.288628186e-28
1.308326753e-28
1.328290978e-28
1.348444838e-28
1.368848875e-28
1.389528084e-28
1.411583962e-28
1.43472324e-28
1.458174579e-28
1.481881153e-28
1.505849125e-28
1.530140332e-28
1.556068198e-28
1.583430014e-28
1.611160836e-28
1.639167659e-28
1.667509391e-28
1.696233343e-28
1.728137741e-28
1.760659549e-28
1.793574317e-28
1.826812581e-28
1.8604991e-28
1.897171742e-28
1.935464175e-28
1.974234553e-28
2.013370568e-28
2.053034378e-28
2.096647507e-28
2.14187313e-28
2.187612348e-28
2.233834292e-28
2.28136668e-28
2.334195619e-28
2.387737018e-28
2.44175473e-28
2.496475647e-28
2.556645982e-28
2.619305072e-28
2.68260865e-28
2.746648122e-28
2.815885249e-28
2.889322306e-28
2.963538382e-28
3.038593259e-28
3.120103005e-28
3.206272908e-28
3.293301585e-28
3.381369813e-28
3.479352639e-28
3.580559311e-28
3.682621698e-28
3.788582932e-28
3.905960593e-28
4.024651554e-28
4.144615042e-28
4.276964894e-28
4.414986105e-28
4.554208869e-28
4.702225659e-28
4.862537936e-28
5.024372544e-28
5.192204573e-28
5.378445505e-28
5.566590873e-28
5.759545509e-28
5.975996652e-28
6.194696564e-28
6.419522305e-28
6.671171206e-28
6.925343572e-28
7.190573182e-28
7.483228603e-28
7.778570509e-28
8.094935969e-28
8.435174064e-28
8.778468759e-28
9.159400046e-28
9.554568295e-28
9.961468819e-28
1.041619249e-27
1.087503972e-27
1.137486946e-27
1.190304097e-27
1.244595013e-27
1.305351e-27
1.36663976e-27
1.43439737e-27
1.504893667e-27
1.57970387e-27
1.6607546e-27
1.74380685e-27
1.8369438e-27
1.930867436e-27
2.036536538e-27
2.144398701e-27
2.263343501e-27
2.387129605e-27
2.521689036e-27
2.663638103e-27
2.816594763e-27
2.979225509e-27
3.153875677e-27
3.340011126e-27
3.540239783e-27
3.753031138e-27
3.983390214e-27
4.226339148e-27
1.716261638e-26
3.570382691e-26
7.896664184e-26
1.274283191e-25
1.819576923e-25
2.383522222e-25
3.002094557e-25
3.658900515e-25
4.359212236e-25
5.123847966e-25
6.241107431e-25
1.393783525e-24
3.316210682e-24
7.113690608e-24
1.124084685e-23
1.555871552e-23
2.028685907e-23
7.941228694e-23
1.830880984e-22
4.664755283e-22
7.65231278e-22
1.080774356e-21
1.038734526e-20
2.458967989e-20
4.397788857e-20
2.434857079e-19
7.974631526e-19
2.429555717e-18
9.462875598e-18
2.945040089e-17
1.30417507e-16
3.81706816e-16
8.591829087e-16
4.309191036e-15
1.578707048e-14
4.262642311e-14
1.441404231e-13
4.049529098e-13
1.053278495e-12
2.536972453e-12
6.473102001e-12
1.655460202e-11
3.781187768e-11
7.95143647e-11
1.569148599e-10
2.939594911e-10
5.584975747e-10
1.001777222e-09
1.720956848e-09
2.954455073e-09
5.051876563e-09
8.632387125e-09
1.499066462e-08
2.67461377e-08
5.069480095e-08
9.528050289e-08
1.842597142e-07
3.514047419e-07
6.545186877e-07
1.185253013e-06
2.073745521e-06
3.477689697e-06
5.524853026e-06
8.23009178e-06
1.1414e-05
1.464479354e-05
1.729589156e-05
1.87428833e-05
1.862146419e-05
1.699433924e-05
1.431736667e-05
1.121655212e-05
8.231206049e-06
5.727020022e-06
3.8085359e-06
2.457424612e-06
1.53524206e-06
9.408306784e-07
5.826610009e-07
3.572000259e-07
2.180591016e-07
1.345121319e-07
8.566437699e-08
5.513996422e-08
3.4970994e-08
2.458111083e-08
1.710655759e-08
1.250992377e-08
9.421455576e-09
7.119223435e-09
5.616045648e-09
4.350642864e-09
3.504968937e-09
2.841213198e-09
2.289396309e-09
1.879518951e-09
1.491574925e-09
1.201234853e-09
1.021332211e-09
8.558331174e-10
6.98221662e-10
5.943162989e-10
5.039259532e-10
4.164886279e-10
3.331241081e-10
2.774186812e-10
2.37223763e-10
1.981215387e-10
1.600839621e-10
1.229518543e-10
1.057069398e-10
9.072514844e-11
7.60280629e-11
6.16281154e-11
4.747731626e-11
3.853333044e-11
3.365420485e-11
2.885017095e-11
2.411400532e-11
1.944675545e-11
1.484477773e-11
1.228424891e-11
1.071396659e-11
9.161792307e-12
7.627929998e-12
6.112378448e-12
4.614731373e-12
3.471058523e-12
3.099690951e-12
2.732860459e-12
2.369985476e-12
2.011334025e-12
1.656253794e-12
1.304626952e-12
1.054453477e-12
9.362033387e-13
8.190735539e-13
7.029665741e-13
5.879053118e-13
4.739851622e-13
3.611318103e-13
2.591979967e-13
2.283682754e-13
2.017249781e-13
1.753412959e-13
1.492513964e-13
1.234428974e-13
9.792772482e-14
7.274018178e-14
5.200442474e-14
4.539086453e-14
4.049322817e-14
3.5669728e-14
3.091327468e-14
2.622579072e-14
2.160422827e-14
1.705040448e-14
1.256089473e-14
9.115773203e-15
8.530223703e-15
7.971204563e-15
7.419863987e-15
6.875872124e-15
6.338426394e-15
5.80694911e-15
5.280720136e-15
4.75855019e-15
4.239134601e-15
3.763892164e-15
3.441714416e-15
3.122912352e-15
2.804054506e-15
2.48533142e-15
2.16700232e-15
1.84932604e-15
1.532589239e-15
1.217178517e-15
9.035645326e-16
5.972418102e-16
4.678972861e-16
4.283951994e-16
3.893179404e-16
3.506680333e-16
3.124461674e-16
2.746507053e-16
2.372770274e-16
2.003166677e-16
1.637561751e-16
1.275756086e-16
9.174654036e-17
6.327294776e-17
5.919394899e-17
5.514870863e-17
5.113838836e-17
4.716421833e-17
4.322752324e-17
3.932975895e-17
3.547325042e-17
3.165928854e-17
2.789004545e-17
2.416821832e-17
2.049714865e-17
1.688214946e-17
1.418870588e-17
1.38225268e-17
1.346331241e-17
1.311112514e-17
1.276595046e-17
1.242771806e-17
1.209641242e-17
1.177220517e-17
1.14547765e-17
1.114401232e-17
1.08398706e-17
1.054200184e-17
1.025013659e-17
9.963941557e-18
9.682544879e-18
9.405076336e-18
9.130143267e-18
8.983638694e-18
8.889555136e-18
8.795441223e-18
8.701357402e-18
8.607280767e-18
8.51323381e-18
8.419229252e-18
8.325316785e-18
8.231498188e-18
8.137787765e-18
8.044203189e-18
7.95080487e-18
7.857594122e-18
7.764612674e-18
7.67189371e-18
7.579539178e-18
7.487587151e-18
7.396169112e-18
7.305463547e-18
7.225014049e-18
7.158214241e-18
7.092280516e-18
7.027234495e-18
6.963102558e-18
6.899874485e-18
6.837571362e-18
6.776208249e-18
6.715781376e-18
6.656305989e-18
6.597798375e-18
6.540251815e-18
6.483673527e-18
6.428092263e-18
6.373488081e-18
6.319860834e-18
6.267256883e-18
6.21563647e-18
6.165009322e-18
6.115387531e-18
6.066755205e-18
6.019110849e-18
5.972421966e-18
5.926641088e-18
5.8837408e-18
5.844796574e-18
5.806549065e-18
5.768999485e-18
5.732143845e-18
5.696006266e-18
5.660567805e-18
5.625842773e-18
5.591824255e-18
5.558512303e-18
5.525917702e-18
5.494023202e-18
5.462855744e-18
5.432386123e-18
5.402629743e-18
5.373575858e-18
5.345223437e-18
5.31757588e-18
5.290616648e-18
5.264362258e-18
5.23878415e-18
5.213906812e-18
5.189695869e-18
5.16616858e-18
5.143301465e-18
5.121101204e-18
5.099552582e-18
5.07865311e-18
5.058394468e-18
5.038766474e-18
5.019766304e-18
5.001377583e-18
4.983601588e-18
4.966417249e-18
4.949828579e-18
4.933811264e-18
4.918370752e-18
4.903480873e-18
4.889147287e-18
4.875343271e-18
4.862073589e-18
4.849312143e-18
4.83706182e-18
4.825298205e-18
4.814021456e-18
4.803209765e-18
4.792859856e-18
4.782953303e-18
4.773482851e-18
4.764434089e-18
4.755795442e-18
4.747557186e-18
4.739703788e-18
4.732232799e-18
4.725131569e-18
4.718432425e-18
4.712207912e-18
4.706867482e-18
4.703630728e-18
4.703630728e-18
4.703630728e-18
4.703630728e-18
4.703630728e-18
)
;

boundaryField
{
    bottom
    {
        type            calculated;
        value           uniform 5.64692119e-29;
    }
    top
    {
        type            calculated;
        value           uniform 4.703630728e-18;
    }
    frontAndBack
    {
        type            empty;
    }
}


// ************************************************************************* //
