/*--------------------------------*- C++ -*----------------------------------*\
| =========                 |                                                 |
| \\      /  F ield         | OpenFOAM: The Open Source CFD Toolbox           |
|  \\    /   O peration     | Version:  v2006                                 |
|   \\  /    A nd           | Website:  www.openfoam.com                      |
|    \\/     M anipulation  |                                                 |
\*---------------------------------------------------------------------------*/
FoamFile
{
    version     2.0;
    format      ascii;
    class       volScalarField;
    location    "0.03302";
    object      CH2(S);
}
// * * * * * * * * * * * * * * * * * * * * * * * * * * * * * * * * * * * * * //

dimensions      [0 0 0 0 0 0 0];


internalField   nonuniform List<scalar> 
500
(
3.019811267e-30
3.057657405e-30
3.096013942e-30
3.13488776e-30
3.174285837e-30
3.214215241e-30
3.254683139e-30
3.295696793e-30
3.337029784e-30
3.378910818e-30
3.421356665e-30
3.464374943e-30
3.507973372e-30
3.552159775e-30
3.596916492e-30
3.642076322e-30
3.687845184e-30
3.734231291e-30
3.781242968e-30
3.828888652e-30
3.877176892e-30
3.925953068e-30
3.975348899e-30
4.025410889e-30
4.076148023e-30
4.127569405e-30
4.179684182e-30
4.232238377e-30
4.285501326e-30
4.339482586e-30
4.394191846e-30
4.449638922e-30
4.506381047e-30
4.564282795e-30
4.622965414e-30
4.682439435e-30
4.742715532e-30
4.803641879e-30
4.865245858e-30
4.927680637e-30
4.990957421e-30
5.055087564e-30
5.121885942e-30
5.190101938e-30
5.259237905e-30
5.32930625e-30
5.400209391e-30
5.471821342e-30
5.544399061e-30
5.617955574e-30
5.692788049e-30
5.772285587e-30
5.852855239e-30
5.934511466e-30
6.017242676e-30
6.10069779e-30
6.185278391e-30
6.270999658e-30
6.35926412e-30
6.453150212e-30
6.548302466e-30
6.644737958e-30
6.742179487e-30
6.840739452e-30
6.940628611e-30
7.042795433e-30
7.153393992e-30
7.265484099e-30
7.37908587e-30
7.49376671e-30
7.609871128e-30
7.727541348e-30
7.852904039e-30
7.984328618e-30
8.117525608e-30
8.252172267e-30
8.388303587e-30
8.526270794e-30
8.673397668e-30
8.828554412e-30
8.985803621e-30
9.144617917e-30
9.305331327e-30
9.468212142e-30
9.648892372e-30
9.833054708e-30
1.001944227e-29
1.020766171e-29
1.03984195e-29
1.060591364e-29
1.08225009e-29
1.104179149e-29
1.126315017e-29
1.148749412e-29
1.173398636e-29
1.198953965e-29
1.224799507e-29
1.25091782e-29
1.277773521e-29
1.307601101e-29
1.337830941e-29
1.36832971e-29
1.399225514e-29
1.433180906e-29
1.468535115e-29
1.504252964e-29
1.540386027e-29
1.579438971e-29
1.62085183e-29
1.662703996e-29
1.705029181e-29
1.750981425e-29
1.799552965e-29
1.848608571e-29
1.898250143e-29
1.953463476e-29
2.010490106e-29
2.067998903e-29
2.127700648e-29
2.193819597e-29
2.260678329e-29
2.328253877e-29
2.402793193e-29
2.4805221e-29
2.558927683e-29
2.642278796e-29
2.732543842e-29
2.823666048e-29
2.918161918e-29
3.023009939e-29
3.128930101e-29
3.237556037e-29
3.359396184e-29
3.48250216e-29
3.609054478e-29
3.750693087e-29
3.893752008e-29
4.04303105e-29
4.207736472e-29
4.373953838e-29
4.551997401e-29
4.743469694e-29
4.936662118e-29
5.151026049e-29
5.373399195e-29
5.60237284e-29
5.858248917e-29
6.116445343e-29
6.397696895e-29
6.694892612e-29
7.000379758e-29
7.342237204e-29
7.687092423e-29
8.068339902e-29
8.464994959e-29
8.885919606e-29
9.341952559e-29
9.809246242e-29
1.033327536e-28
1.086173071e-28
1.145626535e-28
1.206313838e-28
1.273236217e-28
1.342882329e-28
1.418589537e-28
1.498454181e-28
1.584511748e-28
1.676012005e-28
1.774274468e-28
1.878998626e-28
1.991651735e-28
2.111372721e-28
2.240977464e-28
2.37766538e-28
1.032373357e-27
2.171809477e-27
4.83230882e-27
7.81267191e-27
1.116623927e-26
1.463452322e-26
1.843879638e-26
2.247822671e-26
2.678524099e-26
3.148788124e-26
3.837280794e-26
8.599621627e-26
2.050004863e-25
4.401119549e-25
6.956356851e-25
9.629675221e-25
1.255701872e-24
4.711697275e-24
1.075836978e-23
2.725384528e-23
4.464384731e-23
6.301103387e-23
6.028546796e-22
1.426651881e-21
2.551229066e-21
1.45214969e-20
4.78410306e-20
1.493551159e-19
5.985166089e-19
1.881881988e-18
8.667079424e-18
2.570021456e-17
5.822112094e-17
3.034289813e-16
1.136021135e-15
3.099809838e-15
1.068392996e-14
3.039950769e-14
7.990271331e-14
1.940878564e-13
4.994906136e-13
1.286011799e-12
2.945304802e-12
6.188862225e-12
1.216679019e-11
2.265704366e-11
4.250532909e-11
7.500299185e-11
1.263382911e-10
2.112326858e-10
3.504604808e-10
5.796417737e-10
9.72503102e-10
1.675301064e-09
3.055843627e-09
5.55702377e-09
1.042092298e-08
1.940913384e-08
3.559659875e-08
6.403065387e-08
1.123222833e-07
1.906922692e-07
3.094198715e-07
4.742854765e-07
6.806802733e-07
9.071106581e-07
1.114573372e-06
1.256170549e-06
1.29533558e-06
1.222914377e-06
1.061513194e-06
8.532565324e-07
6.400271718e-07
4.532922188e-07
3.058563253e-07
1.996337776e-07
1.258825144e-07
7.768997925e-08
4.833247576e-08
2.973384234e-08
1.820157228e-08
1.125295812e-08
7.179768787e-09
4.629873633e-09
2.942267496e-09
2.070284909e-09
1.441924222e-09
1.054132405e-09
7.928179096e-10
5.976393201e-10
4.702654303e-10
3.630346332e-10
2.913318451e-10
2.350319474e-10
1.884005536e-10
1.540603973e-10
1.215578493e-10
9.730111734e-11
8.237659083e-11
6.865643618e-11
5.559208671e-11
4.712975799e-11
3.981199416e-11
3.273329904e-11
2.598690755e-11
2.153193165e-11
1.836071992e-11
1.527571718e-11
1.22747107e-11
9.345141908e-12
8.013208001e-12
6.862200699e-12
5.733066508e-12
4.62676056e-12
3.53959595e-12
2.857594913e-12
2.491916703e-12
2.131866423e-12
1.776902698e-12
1.427104037e-12
1.082197358e-12
8.921795983e-13
7.772702967e-13
6.636860951e-13
5.514419176e-13
4.405376751e-13
3.309436367e-13
2.474078105e-13
2.207369284e-13
1.943918903e-13
1.683309291e-13
1.425732934e-13
1.170721358e-13
9.181899349e-14
7.392229907e-14
6.559229928e-14
5.734122157e-14
4.916219421e-14
4.105683125e-14
3.303185269e-14
2.508202352e-14
1.790507943e-14
1.576307355e-14
1.391714409e-14
1.208920156e-14
1.028161319e-14
8.493521121e-15
6.725751603e-15
4.980681263e-15
3.545072045e-15
3.091321086e-15
2.756798898e-15
2.427340419e-15
2.102461426e-15
1.78229323e-15
1.466627659e-15
1.155588824e-15
8.489428188e-16
6.137050436e-16
5.739932447e-16
5.360910587e-16
4.987094887e-16
4.618261705e-16
4.253866881e-16
3.893518737e-16
3.536729012e-16
3.182691358e-16
2.830521192e-16
2.509003968e-16
2.293771412e-16
2.080888538e-16
1.867968415e-16
1.655138279e-16
1.44257123e-16
1.230440108e-16
1.018936332e-16
8.083180561e-17
5.98899567e-17
3.943549404e-17
3.081679716e-17
2.820631251e-17
2.562390249e-17
2.306973391e-17
2.054385231e-17
1.804614948e-17
1.557632016e-17
1.313380486e-17
1.071771466e-17
8.326731774e-18
5.958977552e-18
4.078057386e-18
3.811812964e-18
3.547772021e-18
3.286010383e-18
3.026608343e-18
2.769652368e-18
2.515237484e-18
2.263515446e-18
2.014570513e-18
1.768544465e-18
1.525613352e-18
1.28599528e-18
1.050037039e-18
8.744828523e-19
8.514972096e-19
8.289487515e-19
8.068413969e-19
7.851742338e-19
7.639428488e-19
7.431462679e-19
7.227952629e-19
7.028697614e-19
6.833626e-19
6.642711408e-19
6.455734453e-19
6.272526002e-19
6.092876831e-19
5.916239665e-19
5.742068251e-19
5.569488396e-19
5.479864396e-19
5.424107664e-19
5.368332941e-19
5.312576054e-19
5.256823424e-19
5.201088383e-19
5.145378469e-19
5.08972313e-19
5.034123421e-19
4.978587821e-19
4.9231268e-19
4.867776161e-19
4.812536682e-19
4.757433093e-19
4.70248506e-19
4.647753001e-19
4.593259478e-19
4.539082412e-19
4.485327579e-19
4.437715221e-19
4.398278344e-19
4.359352794e-19
4.32095132e-19
4.283089498e-19
4.245761294e-19
4.208979156e-19
4.172751976e-19
4.137077527e-19
4.10196481e-19
4.067423442e-19
4.033449456e-19
4.000047111e-19
3.967233383e-19
3.934996499e-19
3.903336372e-19
3.872280372e-19
3.841805027e-19
3.811916081e-19
3.78262067e-19
3.753909414e-19
3.725781429e-19
3.698217531e-19
3.671189696e-19
3.645746501e-19
3.622456307e-19
3.599582776e-19
3.577126635e-19
3.555085498e-19
3.53347379e-19
3.512280182e-19
3.491513234e-19
3.471168808e-19
3.451246937e-19
3.431754071e-19
3.412679893e-19
3.394040514e-19
3.37581847e-19
3.358022972e-19
3.340647595e-19
3.323691721e-19
3.307157383e-19
3.291034691e-19
3.275333523e-19
3.260036798e-19
3.245159161e-19
3.230680056e-19
3.216609801e-19
3.202934358e-19
3.18965772e-19
3.176770788e-19
3.164272073e-19
3.152156601e-19
3.14041828e-19
3.129055424e-19
3.118058238e-19
3.107427487e-19
3.097150569e-19
3.087229885e-19
3.077650894e-19
3.068416854e-19
3.059512115e-19
3.050940061e-19
3.042684711e-19
3.034748915e-19
3.027117063e-19
3.019790883e-19
3.012755773e-19
3.00601183e-19
2.999546009e-19
2.993356352e-19
2.987431839e-19
2.981768133e-19
2.976356614e-19
2.97119036e-19
2.966263555e-19
2.961566912e-19
2.957098963e-19
2.952852145e-19
2.948845791e-19
2.945123284e-19
2.941929495e-19
2.939993788e-19
2.939993788e-19
2.939993788e-19
2.939993788e-19
2.939993788e-19
)
;

boundaryField
{
    bottom
    {
        type            calculated;
        value           uniform 3.001014943e-30;
    }
    top
    {
        type            calculated;
        value           uniform 2.939993788e-19;
    }
    frontAndBack
    {
        type            empty;
    }
}


// ************************************************************************* //
