/*--------------------------------*- C++ -*----------------------------------*\
| =========                 |                                                 |
| \\      /  F ield         | OpenFOAM: The Open Source CFD Toolbox           |
|  \\    /   O peration     | Version:  v2006                                 |
|   \\  /    A nd           | Website:  www.openfoam.com                      |
|    \\/     M anipulation  |                                                 |
\*---------------------------------------------------------------------------*/
FoamFile
{
    version     2.0;
    format      ascii;
    class       volScalarField;
    location    "0.03302";
    object      CH2O;
}
// * * * * * * * * * * * * * * * * * * * * * * * * * * * * * * * * * * * * * //

dimensions      [0 0 0 0 0 0 0];


internalField   nonuniform List<scalar> 
500
(
8.604445262e-07
8.604760049e-07
8.60507908e-07
8.605402415e-07
8.60573011e-07
8.606062224e-07
8.606398817e-07
8.606739949e-07
8.613027239e-07
8.619637707e-07
8.626337325e-07
8.633127295e-07
8.640008835e-07
8.646983181e-07
8.654047545e-07
8.661175536e-07
8.668399655e-07
8.675721201e-07
8.683141486e-07
8.690661842e-07
8.698283618e-07
8.712121277e-07
8.727573701e-07
8.743234519e-07
8.759106541e-07
8.775192615e-07
8.791495603e-07
8.807936054e-07
8.824598223e-07
8.8414851e-07
8.858599716e-07
8.875945143e-07
8.898784608e-07
8.925722715e-07
8.953024112e-07
8.980693701e-07
9.008736445e-07
9.03708171e-07
9.065742236e-07
9.094789282e-07
9.124228061e-07
9.154063855e-07
9.192661325e-07
9.234174739e-07
9.276248009e-07
9.318888685e-07
9.362037384e-07
9.405617434e-07
9.449785211e-07
9.494548641e-07
9.540831328e-07
9.599525415e-07
9.65901106e-07
9.719298937e-07
9.780380489e-07
9.841996507e-07
9.904443489e-07
9.967732639e-07
1.003543958e-06
1.011544583e-06
1.019653104e-06
1.027870979e-06
1.036174584e-06
1.044573498e-06
1.053085681e-06
1.061917314e-06
1.072419411e-06
1.083063141e-06
1.093850414e-06
1.104740152e-06
1.115765068e-06
1.126938668e-06
1.1394636e-06
1.153017037e-06
1.166753258e-06
1.180638979e-06
1.194677808e-06
1.208905968e-06
1.224647313e-06
1.241695369e-06
1.258973336e-06
1.27642327e-06
1.294081872e-06
1.31197862e-06
1.332770512e-06
1.354020617e-06
1.375527487e-06
1.397245732e-06
1.419256873e-06
1.443862143e-06
1.469820227e-06
1.496102305e-06
1.522632246e-06
1.549519973e-06
1.579760812e-06
1.611306632e-06
1.643210695e-06
1.675451469e-06
1.708712635e-06
1.746390153e-06
1.784575796e-06
1.823101144e-06
1.862128018e-06
1.905612679e-06
1.951083394e-06
1.997021805e-06
2.043494241e-06
2.094151019e-06
2.148172036e-06
2.202766108e-06
2.25797721e-06
2.318343771e-06
2.382410291e-06
2.447115302e-06
2.512593209e-06
2.585956419e-06
2.661835486e-06
2.73835612e-06
2.817917045e-06
2.906502341e-06
2.996078789e-06
3.086615617e-06
3.186894525e-06
3.291602386e-06
3.397221789e-06
3.509712425e-06
3.631831028e-06
3.755109274e-06
3.883047067e-06
4.025377493e-06
4.169163342e-06
4.316671642e-06
4.482514007e-06
4.650079352e-06
4.82238966e-06
5.015591508e-06
5.210730729e-06
5.414449757e-06
5.639495074e-06
5.866606236e-06
6.110038207e-06
6.372006356e-06
6.63632795e-06
6.9298615e-06
7.234430028e-06
7.548083002e-06
7.898832589e-06
8.252762862e-06
8.638460732e-06
9.046121838e-06
9.465190747e-06
9.934361717e-06
1.040764688e-05
1.093104421e-05
1.147564838e-05
1.205365682e-05
1.267999433e-05
1.332182043e-05
1.40417367e-05
1.476773377e-05
1.558466616e-05
1.641856838e-05
1.733826112e-05
1.829542458e-05
1.933597455e-05
2.043371805e-05
2.161665398e-05
2.287446074e-05
2.422528517e-05
2.566499322e-05
2.721376307e-05
2.885974994e-05
3.064168199e-05
3.252103703e-05
3.457612615e-05
3.671737281e-05
3.90920699e-05
4.153153483e-05
4.427758353e-05
4.711779295e-05
5.023391653e-05
5.354308431e-05
5.707192433e-05
6.092551602e-05
6.493278777e-05
6.938907145e-05
7.406335411e-05
7.907173017e-05
8.451575978e-05
9.021176681e-05
9.644986651e-05
0.0001030801174
0.0001100399021
0.0001177161644
0.000125788431
0.0001343147109
0.0001436363279
0.000153446936
0.0001637771177
0.0001750544422
0.0001869328511
0.0001994369965
0.0002128907354
0.0002271959668
0.0002422451483
0.0002581336594
0.0002752364472
0.0002932397684
0.0003121651175
0.0003321168858
0.0003534493733
0.0003758614454
0.0003993558662
0.0004239815367
0.0004498961299
0.0004770491264
0.000505227235
0.0005342855814
0.0005640721655
0.0005943372047
0.0006247400551
0.0006549640739
0.0006847684057
0.00071371935
0.0007416201302
0.0007685219771
0.0007942884004
0.0008188651469
0.0008422249413
0.000864483357
0.0008851417155
0.0009038213069
0.0009197726813
0.0009318502797
0.0009385257491
0.0009378632223
0.0009277674346
0.0009061291459
0.0008708508718
0.0008202653163
0.0007536402755
0.0006718447552
0.0005780040841
0.0004776077804
0.0003778203859
0.0002857704342
0.0002066276917
0.0001437825827
9.660286591e-05
6.340710526e-05
4.057165714e-05
2.565120883e-05
1.648504607e-05
1.059149493e-05
6.850513423e-06
4.515207857e-06
3.075699289e-06
2.126097272e-06
1.463084242e-06
1.084961408e-06
8.009745364e-07
6.106183016e-07
4.732588987e-07
3.652101142e-07
2.903262627e-07
2.265977724e-07
1.82661883e-07
1.474524981e-07
1.18125077e-07
9.624591567e-08
7.553755107e-08
6.010505692e-08
5.064423505e-08
4.194998279e-08
3.367264813e-08
2.841703938e-08
2.390374135e-08
1.953789121e-08
1.537902592e-08
1.267456003e-08
1.07839941e-08
8.944822978e-09
7.155727522e-09
5.409220749e-09
4.636537986e-09
3.973491286e-09
3.323044767e-09
2.68574864e-09
2.059479035e-09
1.66976659e-09
1.464752831e-09
1.262894315e-09
1.063887528e-09
8.677764808e-10
6.744080753e-10
5.684610498e-10
5.048990311e-10
4.420699911e-10
3.799821851e-10
3.186355638e-10
2.580136814e-10
2.116402595e-10
1.963487455e-10
1.812440514e-10
1.663022303e-10
1.515343183e-10
1.369134557e-10
1.224347906e-10
1.119025978e-10
1.064993446e-10
1.011472844e-10
9.584195959e-11
9.058441722e-11
8.53790162e-11
8.022236083e-11
7.548582111e-11
7.343789818e-11
7.155617031e-11
6.96927782e-11
6.785013498e-11
6.602736617e-11
6.422531404e-11
6.24464013e-11
6.084998078e-11
5.981078915e-11
5.884859186e-11
5.790095947e-11
5.696649922e-11
5.604558878e-11
5.51376294e-11
5.424297805e-11
5.336096194e-11
5.253804245e-11
5.186163532e-11
5.119537139e-11
5.05382591e-11
4.988990533e-11
4.924935353e-11
4.861591518e-11
4.798873201e-11
4.736638656e-11
4.674732387e-11
4.613820449e-11
4.555935163e-11
4.498082104e-11
4.440218921e-11
4.382380194e-11
4.324612964e-11
4.266964201e-11
4.209485925e-11
4.152248293e-11
4.095336716e-11
4.038969635e-11
3.987175369e-11
3.937976227e-11
3.889306202e-11
3.841168436e-11
3.793563787e-11
3.746490217e-11
3.699941971e-11
3.653908507e-11
3.608373068e-11
3.563310822e-11
3.51868636e-11
3.475298127e-11
3.435162937e-11
3.395359911e-11
3.355900481e-11
3.31679675e-11
3.278061753e-11
3.239709814e-11
3.201763809e-11
3.164236442e-11
3.127149084e-11
3.090528273e-11
3.05440689e-11
3.018837209e-11
2.984823393e-11
2.953956979e-11
2.923677642e-11
2.893990643e-11
2.864894757e-11
2.83638406e-11
2.808457241e-11
2.781128767e-11
2.754371683e-11
2.72817637e-11
2.702539284e-11
2.677430968e-11
2.652828706e-11
2.628704405e-11
2.604984573e-11
2.581595857e-11
2.558420862e-11
2.536587596e-11
2.515273819e-11
2.493953166e-11
2.47263933e-11
2.451327123e-11
2.430021638e-11
2.408725758e-11
2.387450741e-11
2.366196989e-11
2.344967744e-11
2.323767007e-11
2.302608465e-11
2.281492416e-11
2.260428313e-11
2.239423673e-11
2.218501592e-11
2.197670695e-11
2.176960768e-11
2.156412245e-11
2.137012989e-11
2.119133625e-11
2.101485828e-11
2.084075634e-11
2.066910103e-11
2.0499865e-11
2.033310469e-11
2.016886041e-11
2.000712206e-11
1.984793046e-11
1.96913292e-11
1.953730029e-11
1.938586305e-11
1.923709444e-11
1.909094109e-11
1.894740259e-11
1.880660305e-11
1.866843604e-11
1.853292761e-11
1.84001101e-11
1.8269941e-11
1.814241629e-11
1.801744899e-11
1.789491207e-11
1.777970215e-11
1.767447793e-11
1.757113617e-11
1.746968017e-11
1.737009914e-11
1.727245825e-11
1.717670633e-11
1.708288204e-11
1.699096669e-11
1.690096042e-11
1.681289238e-11
1.672671596e-11
1.664250394e-11
1.656017744e-11
1.647977804e-11
1.640127674e-11
1.632467074e-11
1.624996922e-11
1.61771275e-11
1.610619021e-11
1.603708018e-11
1.596986358e-11
1.590444752e-11
1.584087865e-11
1.57790935e-11
1.571911015e-11
1.566088748e-11
1.560441876e-11
1.554968151e-11
1.549664821e-11
1.544531125e-11
1.539562638e-11
1.534759705e-11
1.530116632e-11
1.525634504e-11
1.521306752e-11
1.517134847e-11
1.51311172e-11
1.509238898e-11
1.505509162e-11
1.501923798e-11
1.498475756e-11
1.495165816e-11
1.49198738e-11
1.488940492e-11
1.486019257e-11
1.483222794e-11
1.480546122e-11
1.47798728e-11
1.475542376e-11
1.473208282e-11
1.47098237e-11
1.468860444e-11
1.466841842e-11
1.464923146e-11
1.46311309e-11
1.461431275e-11
1.459988333e-11
1.459113788e-11
1.459113788e-11
1.459113788e-11
1.459113788e-11
1.459113788e-11
)
;

boundaryField
{
    bottom
    {
        type            calculated;
        value           uniform 8.604288923e-07;
    }
    top
    {
        type            calculated;
        value           uniform 1.459113788e-11;
    }
    frontAndBack
    {
        type            empty;
    }
}


// ************************************************************************* //
