/*--------------------------------*- C++ -*----------------------------------*\
| =========                 |                                                 |
| \\      /  F ield         | OpenFOAM: The Open Source CFD Toolbox           |
|  \\    /   O peration     | Version:  v2006                                 |
|   \\  /    A nd           | Website:  www.openfoam.com                      |
|    \\/     M anipulation  |                                                 |
\*---------------------------------------------------------------------------*/
FoamFile
{
    version     2.0;
    format      ascii;
    class       volScalarField;
    location    "0.03302";
    object      CH3;
}
// * * * * * * * * * * * * * * * * * * * * * * * * * * * * * * * * * * * * * //

dimensions      [0 0 0 0 0 0 0];


internalField   nonuniform List<scalar> 
500
(
3.07500384e-17
3.093659962e-17
3.112567683e-17
3.131730396e-17
3.151151541e-17
3.170834601e-17
3.19078311e-17
3.211000648e-17
3.233304951e-17
3.255982839e-17
3.278966564e-17
3.302260251e-17
3.32586808e-17
3.349794288e-17
3.37402931e-17
3.398482612e-17
3.423265695e-17
3.448383006e-17
3.473839052e-17
3.499638403e-17
3.525785687e-17
3.554337212e-17
3.583753088e-17
3.61356567e-17
3.643780309e-17
3.674402427e-17
3.705437471e-17
3.736734194e-17
3.76845299e-17
3.800599549e-17
3.833179642e-17
3.866199115e-17
3.901656816e-17
3.939028877e-17
3.976904942e-17
4.01529181e-17
4.054196368e-17
4.093520624e-17
4.13328225e-17
4.173580106e-17
4.214421426e-17
4.255813537e-17
4.301255235e-17
4.34831024e-17
4.395999835e-17
4.444332579e-17
4.493241162e-17
4.542638676e-17
4.592702373e-17
4.643441235e-17
4.695278236e-17
4.753142513e-17
4.811787156e-17
4.871222689e-17
4.931440677e-17
4.992185575e-17
5.053749687e-17
5.116144063e-17
5.181098347e-17
5.252418265e-17
5.324700013e-17
5.397956564e-17
5.471977343e-17
5.546847736e-17
5.622727842e-17
5.700671328e-17
5.787549996e-17
5.875600321e-17
5.964838106e-17
6.054923535e-17
6.146127229e-17
6.238560909e-17
6.338611069e-17
6.44457101e-17
6.551959942e-17
6.660517657e-17
6.770272368e-17
6.881507246e-17
7.00150284e-17
7.129130569e-17
7.258479505e-17
7.389115837e-17
7.521314331e-17
7.655295672e-17
7.806089873e-17
7.959923145e-17
8.115615181e-17
8.2728374e-17
8.432179942e-17
8.606967503e-17
8.790021473e-17
8.975360222e-17
9.162446871e-17
9.352056597e-17
9.561862025e-17
9.779788493e-17
1.000018979e-16
1.022291719e-16
1.045215556e-16
1.07082497e-16
1.096779757e-16
1.122965442e-16
1.149492013e-16
1.178760369e-16
1.209272168e-16
1.240097801e-16
1.271281777e-16
1.305065353e-16
1.34094671e-16
1.377208695e-16
1.413880519e-16
1.453770497e-16
1.495980368e-16
1.538610904e-16
1.581750659e-16
1.629824132e-16
1.679494636e-16
1.729585111e-16
1.781605787e-16
1.839295789e-16
1.897631265e-16
1.956592176e-16
2.021694379e-16
2.089604201e-16
2.158105217e-16
2.230958964e-16
2.309901238e-16
2.389593151e-16
2.472249599e-16
2.564016754e-16
2.656722288e-16
2.751803068e-16
2.858505917e-16
2.96631733e-16
3.077154377e-16
3.20125273e-16
3.326595506e-16
3.457400896e-16
3.601760385e-16
3.747445049e-16
3.903516171e-16
4.071381685e-16
4.240755254e-16
4.428721286e-16
4.62371885e-16
4.824509834e-16
5.048922438e-16
5.275370072e-16
5.522057803e-16
5.782742168e-16
6.05070344e-16
6.350592174e-16
6.653110654e-16
6.987573124e-16
7.335558786e-16
7.704845638e-16
8.104947472e-16
8.514931502e-16
8.974711474e-16
9.438375005e-16
9.960033485e-16
1.049251976e-15
1.107972696e-15
1.16908378e-15
1.235514148e-15
1.305593093e-15
1.381106928e-15
1.461397237e-15
1.547621968e-15
1.639517394e-15
1.738371105e-15
1.843427431e-15
1.957157488e-15
2.077103536e-15
2.885397865e-15
3.998130067e-15
6.445824383e-15
9.175156089e-15
1.224708647e-14
1.542426774e-14
1.890981163e-14
2.261112722e-14
2.655797439e-14
3.086781582e-14
3.569758029e-14
4.804268296e-14
7.304259968e-14
1.186081181e-13
1.681347544e-13
2.199525749e-13
2.766994882e-13
4.674589533e-13
7.680330916e-13
1.507168937e-12
2.286262506e-12
3.109160915e-12
9.7025924e-12
1.944242187e-11
3.251523252e-11
8.076035519e-11
1.970781726e-10
4.176137152e-10
9.710720349e-10
2.309017025e-09
5.491028037e-09
1.172423297e-08
2.228858316e-08
5.430141041e-08
1.171796894e-07
2.241284006e-07
4.485918635e-07
8.354252283e-07
1.48301272e-06
2.525056676e-06
4.321317933e-06
7.195578731e-06
1.134061881e-05
1.710699046e-05
2.489542589e-05
3.51264909e-05
4.858302012e-05
6.486369444e-05
8.409115785e-05
0.0001067181344
0.0001331855334
0.0001640208982
0.0002003881003
0.0002439025025
0.0002967337354
0.0003591548214
0.0004328721451
0.0005175078182
0.0006118671807
0.0007131618165
0.0008161126215
0.0009124173146
0.000991454312
0.001041618183
0.00105223478
0.001016639932
0.0009349922806
0.0008155063743
0.0006731914354
0.0005258924057
0.0003895661756
0.0002745787217
0.0001846782509
0.0001199206406
7.543961673e-05
4.658648999e-05
2.806100501e-05
1.669021126e-05
1.011425267e-05
6.083929962e-06
3.652442278e-06
2.221196484e-06
1.399130628e-06
8.921554327e-07
5.609643567e-07
3.928583818e-07
2.72256988e-07
1.984586479e-07
1.489649317e-07
1.121518671e-07
8.832162097e-08
6.827399605e-08
5.486249272e-08
4.432870124e-08
3.560436087e-08
2.918039553e-08
2.310018907e-08
1.854984523e-08
1.57305223e-08
1.313694032e-08
1.066721972e-08
9.058927038e-09
7.665623424e-09
6.317838547e-09
5.03310021e-09
4.180112247e-09
3.569114275e-09
2.974726209e-09
2.396521724e-09
1.832081157e-09
1.572881764e-09
1.348327748e-09
1.128041034e-09
9.122079625e-10
7.001092424e-10
5.666090001e-10
4.944711874e-10
4.234436043e-10
3.53419453e-10
2.844142206e-10
2.163740362e-10
1.787148068e-10
1.557900049e-10
1.331295651e-10
1.107364649e-10
8.861068629e-11
6.674629807e-11
5.006536375e-11
4.469484814e-11
3.938994532e-11
3.414224491e-11
2.895562294e-11
2.382064603e-11
1.873561013e-11
1.512296227e-11
1.342497484e-11
1.17430749e-11
1.007586171e-11
8.423664283e-12
6.787852415e-12
5.167359001e-12
3.703877518e-12
3.262929416e-12
2.882163868e-12
2.505108539e-12
2.132251725e-12
1.763416475e-12
1.398773219e-12
1.038812194e-12
7.424931363e-13
6.480659411e-13
5.781682666e-13
5.09328643e-13
4.414458928e-13
3.745474536e-13
3.085898278e-13
2.435989487e-13
1.795259414e-13
1.303619134e-13
1.220195938e-13
1.140557808e-13
1.062013571e-13
9.845162347e-14
9.079514635e-14
8.3223696e-14
7.572701333e-14
6.828815576e-14
6.08885369e-14
5.410821271e-14
4.947283017e-14
4.48846713e-14
4.029570961e-14
3.570868738e-14
3.112733533e-14
2.65553786e-14
2.199694272e-14
1.745759162e-14
1.294409891e-14
8.535475441e-15
6.671575918e-15
6.099520767e-15
5.53361782e-15
4.973903629e-15
4.42038818e-15
3.873047759e-15
3.331815466e-15
2.7965687e-15
2.267112666e-15
1.743158589e-15
1.224294782e-15
8.120951965e-16
7.53665282e-16
6.957189422e-16
6.382728179e-16
5.813445304e-16
5.249530552e-16
4.691192473e-16
4.138764104e-16
3.592430361e-16
3.052502393e-16
2.519366559e-16
1.993501515e-16
1.475668326e-16
1.092783109e-16
1.050996661e-16
1.010004987e-16
9.698152113e-17
9.30425676e-17
8.918283578e-17
8.540214861e-17
8.170246433e-17
7.808013388e-17
7.453385505e-17
7.106314823e-17
6.766402519e-17
6.433341116e-17
6.106750259e-17
5.785635037e-17
5.469002398e-17
5.155263111e-17
5.02858616e-17
4.978383255e-17
4.928164153e-17
4.877961108e-17
4.827761898e-17
4.777578523e-17
4.727417773e-17
4.677306162e-17
4.62724464e-17
4.577240841e-17
4.527304192e-17
4.47746693e-17
4.427729756e-17
4.378114936e-17
4.328640177e-17
4.27935988e-17
4.230294358e-17
4.181513771e-17
4.133113361e-17
4.094939195e-17
4.070414119e-17
4.04620801e-17
4.022327801e-17
3.998783177e-17
3.975570387e-17
3.952697172e-17
3.930169062e-17
3.907984671e-17
3.886149597e-17
3.86466982e-17
3.843542872e-17
3.822771405e-17
3.802365971e-17
3.782319252e-17
3.762631194e-17
3.743318816e-17
3.724367522e-17
3.705780884e-17
3.68756334e-17
3.669709056e-17
3.652217484e-17
3.635076692e-17
3.618269254e-17
3.602179592e-17
3.587007525e-17
3.572106888e-17
3.557478154e-17
3.543119769e-17
3.529041128e-17
3.515234853e-17
3.501706519e-17
3.488453432e-17
3.475475611e-17
3.46277726e-17
3.450351657e-17
3.438209299e-17
3.426338807e-17
3.414746183e-17
3.40342724e-17
3.392381576e-17
3.381610516e-17
3.371107617e-17
3.360879315e-17
3.35091448e-17
3.341222655e-17
3.331790447e-17
3.32262458e-17
3.313715906e-17
3.305067029e-17
3.29667202e-17
3.28852991e-17
3.280637457e-17
3.272990695e-17
3.265588523e-17
3.258424562e-17
3.251499311e-17
3.244804558e-17
3.238341869e-17
3.232101772e-17
3.226086388e-17
3.220285522e-17
3.214701379e-17
3.209323548e-17
3.204153887e-17
3.199182225e-17
3.194409689e-17
3.189826767e-17
3.18543352e-17
3.181221452e-17
3.177189289e-17
3.173329849e-17
3.169640308e-17
3.166115051e-17
3.162749568e-17
3.159540071e-17
3.156480509e-17
3.153569927e-17
3.150803399e-17
3.148193515e-17
3.145768542e-17
3.143687993e-17
3.142427004e-17
3.142427004e-17
3.142427004e-17
3.142427004e-17
3.142427004e-17
)
;

boundaryField
{
    bottom
    {
        type            calculated;
        value           uniform 3.065738258e-17;
    }
    top
    {
        type            calculated;
        value           uniform 3.142427004e-17;
    }
    frontAndBack
    {
        type            empty;
    }
}


// ************************************************************************* //
