/*--------------------------------*- C++ -*----------------------------------*\
| =========                 |                                                 |
| \\      /  F ield         | OpenFOAM: The Open Source CFD Toolbox           |
|  \\    /   O peration     | Version:  v2006                                 |
|   \\  /    A nd           | Website:  www.openfoam.com                      |
|    \\/     M anipulation  |                                                 |
\*---------------------------------------------------------------------------*/
FoamFile
{
    version     2.0;
    format      ascii;
    class       volScalarField;
    location    "0.03302";
    object      CH3OH;
}
// * * * * * * * * * * * * * * * * * * * * * * * * * * * * * * * * * * * * * //

dimensions      [0 0 0 0 0 0 0];


internalField   nonuniform List<scalar> 
500
(
4.108595804e-07
4.108599733e-07
4.108603716e-07
4.108607752e-07
4.108611843e-07
4.108615989e-07
4.108620191e-07
4.10862445e-07
4.111464375e-07
4.114456371e-07
4.117488717e-07
4.120561958e-07
4.123676645e-07
4.126833337e-07
4.130030772e-07
4.133257006e-07
4.13652675e-07
4.139840589e-07
4.14319912e-07
4.146602944e-07
4.150052673e-07
4.156464247e-07
4.163643371e-07
4.170919312e-07
4.178293378e-07
4.185766892e-07
4.193341183e-07
4.200979339e-07
4.208720504e-07
4.216566067e-07
4.224517436e-07
4.232576039e-07
4.243250583e-07
4.255875906e-07
4.268671497e-07
4.28163965e-07
4.294782694e-07
4.308067523e-07
4.321500108e-07
4.335113847e-07
4.348911183e-07
4.362894591e-07
4.381049163e-07
4.400589803e-07
4.420393971e-07
4.440465221e-07
4.4607756e-07
4.48128902e-07
4.502079087e-07
4.523149531e-07
4.544940138e-07
4.572637812e-07
4.60070902e-07
4.6291588e-07
4.657983115e-07
4.687059645e-07
4.716528304e-07
4.746394383e-07
4.778359879e-07
4.816176448e-07
4.854503016e-07
4.893346462e-07
4.932595132e-07
4.972294299e-07
5.012528855e-07
5.054279836e-07
5.10397581e-07
5.154341991e-07
5.205387418e-07
5.256917711e-07
5.309087668e-07
5.361961198e-07
5.421259001e-07
5.485445406e-07
5.550497439e-07
5.616257475e-07
5.682742604e-07
5.750124361e-07
5.824698191e-07
5.905482162e-07
5.987355597e-07
6.07004391e-07
6.153721018e-07
6.238526606e-07
6.337092612e-07
6.437833245e-07
6.539791126e-07
6.642751076e-07
6.747099558e-07
6.863774788e-07
6.986876473e-07
7.111514646e-07
7.237328262e-07
7.364838618e-07
7.508280509e-07
7.657920446e-07
7.809259735e-07
7.962196243e-07
8.119977768e-07
8.298740609e-07
8.479914274e-07
8.662699689e-07
8.847864614e-07
9.054205188e-07
9.269978094e-07
9.487970365e-07
9.708496757e-07
9.948897684e-07
1.02052772e-06
1.046437638e-06
1.072640394e-06
1.101291737e-06
1.131700283e-06
1.162411882e-06
1.19349033e-06
1.228313813e-06
1.264331969e-06
1.300654662e-06
1.338421058e-06
1.380473284e-06
1.422996019e-06
1.465974654e-06
1.513579789e-06
1.563288084e-06
1.613429119e-06
1.666833104e-06
1.724809228e-06
1.783335896e-06
1.844075132e-06
1.911649081e-06
1.979914018e-06
2.049946485e-06
2.128685211e-06
2.208241975e-06
2.290051807e-06
2.3817822e-06
2.47443244e-06
2.571156739e-06
2.678007892e-06
2.785839906e-06
2.901421782e-06
3.025805498e-06
3.15130664e-06
3.290678931e-06
3.43529105e-06
3.584216767e-06
3.750757523e-06
3.918808512e-06
4.101943992e-06
4.295508439e-06
4.494489674e-06
4.717261263e-06
4.941986351e-06
5.190506495e-06
5.449096362e-06
5.723547707e-06
6.020947356e-06
6.325701466e-06
6.667535428e-06
7.012256711e-06
7.400157085e-06
7.796115241e-06
8.232809515e-06
8.687296063e-06
9.181377164e-06
9.702615553e-06
1.026430597e-05
1.086154739e-05
1.150295647e-05
1.218657024e-05
1.292196989e-05
1.370353117e-05
1.454964337e-05
1.544201497e-05
1.641610482e-05
1.743034306e-05
1.855206601e-05
1.970383535e-05
2.100035576e-05
2.234133336e-05
2.381258157e-05
2.537497399e-05
2.704108282e-05
2.886052042e-05
3.075242313e-05
3.285443699e-05
3.505603941e-05
3.740995083e-05
3.996861743e-05
4.264571227e-05
4.557758817e-05
4.869030439e-05
5.195505942e-05
5.554506576e-05
5.932022503e-05
6.330771288e-05
6.765756583e-05
7.223088493e-05
7.704166334e-05
8.228874471e-05
8.780627599e-05
9.360620528e-05
9.98396922e-05
0.0001064513378
0.0001133927963
0.0001207061562
0.0001285584128
0.0001367747998
0.0001453641826
0.0001543742206
0.0001639227094
0.0001738745655
0.0001842168436
0.0001949586805
0.0002061460526
0.0002177888142
0.0002298398085
0.0002422858502
0.0002551345469
0.0002683830437
0.0002821078416
0.0002962474082
0.0003108028155
0.00032574031
0.0003410474511
0.0003567257392
0.000372722623
0.0003889657939
0.0004053110948
0.0004215964663
0.0004374299931
0.0004524502033
0.0004661074232
0.0004776357725
0.0004860530659
0.0004901554918
0.0004886960655
0.0004805246439
0.000464685567
0.0004407264422
0.0004089354245
0.000370460412
0.0003272526351
0.0002817674809
0.0002365763424
0.0001939163399
0.0001553554008
0.0001220317153
9.408474375e-05
7.145246105e-05
5.336942615e-05
3.939154116e-05
2.90200176e-05
2.119077233e-05
1.535633373e-05
1.108054386e-05
8.005739467e-06
5.736102795e-06
4.007284127e-06
2.922041648e-06
2.095655349e-06
1.53159674e-06
1.127826639e-06
8.132341312e-07
6.03978706e-07
4.293152054e-07
3.196972958e-07
2.374892927e-07
1.724530409e-07
1.297898158e-07
8.940958471e-08
6.181672081e-08
4.877658373e-08
3.714426299e-08
2.60879686e-08
2.050484354e-08
1.614560113e-08
1.192877371e-08
7.93393286e-09
5.790372734e-09
4.673043632e-09
3.586089025e-09
2.528729289e-09
1.496539595e-09
1.202783115e-09
9.87344341e-10
7.759996544e-10
5.689278317e-10
3.654387776e-10
2.548991332e-10
2.169912728e-10
1.796668313e-10
1.428696868e-10
1.066079777e-10
7.085339514e-11
5.409981873e-11
4.652384254e-11
3.90352306e-11
3.163496681e-11
2.43230453e-11
1.709750587e-11
1.172126574e-11
1.038970967e-11
9.074421552e-12
7.773316138e-12
6.48735444e-12
5.214197556e-12
3.953422989e-12
3.085112557e-12
2.727484064e-12
2.373243914e-12
2.02209708e-12
1.674112859e-12
1.329579758e-12
9.882730196e-13
6.811015093e-13
5.968688451e-13
5.256509774e-13
4.551270654e-13
3.853884388e-13
3.164020007e-13
2.481996285e-13
1.808730149e-13
1.256883421e-13
1.090608078e-13
9.710111971e-14
8.532246734e-14
7.370753891e-14
6.226102903e-14
5.097549509e-14
3.985537438e-14
2.889230424e-14
2.050291093e-14
1.916278117e-14
1.788664845e-14
1.662804445e-14
1.538621617e-14
1.415933146e-14
1.29460716e-14
1.174479263e-14
1.055277966e-14
9.367054369e-15
8.285297887e-15
7.564111359e-15
6.850902146e-15
6.137568145e-15
5.424535633e-15
4.712384531e-15
4.001693895e-15
3.293105024e-15
2.587482799e-15
1.885880153e-15
1.200765402e-15
9.17811428e-16
8.389511817e-16
7.609390443e-16
6.837800544e-16
6.074755881e-16
5.320223762e-16
4.574111967e-16
3.836251481e-16
3.10637377e-16
2.384080743e-16
1.668804876e-16
1.101663177e-16
1.025949792e-16
9.508630227e-17
8.764244324e-17
8.026568545e-17
7.295848777e-17
6.572355254e-17
5.856519528e-17
5.148581208e-17
4.448943484e-17
3.758106997e-17
3.076691988e-17
2.405684643e-17
1.906797554e-17
1.842687618e-17
1.779797046e-17
1.718136771e-17
1.657704246e-17
1.598487163e-17
1.540482804e-17
1.483721216e-17
1.42814641e-17
1.37373841e-17
1.320489858e-17
1.268339563e-17
1.217240354e-17
1.167133872e-17
1.117867479e-17
1.069288816e-17
1.021154059e-17
9.962423119e-18
9.808117575e-18
9.653762245e-18
9.49945627e-18
9.34516208e-18
9.190916565e-18
9.036740588e-18
8.882715647e-18
8.728844663e-18
8.575151094e-18
8.421663924e-18
8.268482233e-18
8.115608175e-18
7.963110192e-18
7.811042705e-18
7.65957292e-18
7.50876328e-18
7.358829425e-18
7.210064095e-18
7.084969902e-18
6.991435703e-18
6.899115636e-18
6.808038526e-18
6.718241313e-18
6.629709684e-18
6.542473166e-18
6.456552846e-18
6.371943443e-18
6.288666307e-18
6.206744244e-18
6.126167842e-18
6.04694721e-18
5.969122604e-18
5.892666104e-18
5.817577503e-18
5.743921718e-18
5.671643077e-18
5.6007552e-18
5.531275019e-18
5.463180282e-18
5.396468896e-18
5.331095357e-18
5.266993204e-18
5.20971966e-18
5.162384934e-18
5.115897032e-18
5.070257428e-18
5.025461272e-18
4.981537883e-18
4.938464237e-18
4.896257727e-18
4.85490995e-18
4.814420966e-18
4.774803886e-18
4.736037745e-18
4.698155284e-18
4.66112101e-18
4.624953644e-18
4.589640126e-18
4.555179201e-18
4.521575e-18
4.488807426e-18
4.45689655e-18
4.425807661e-18
4.395570523e-18
4.366143355e-18
4.33754713e-18
4.309753314e-18
4.282770027e-18
4.256578774e-18
4.231176529e-18
4.206553181e-18
4.182696352e-18
4.159602612e-18
4.137252057e-18
4.11564624e-18
4.094759549e-18
4.074596864e-18
4.055128634e-18
4.036361476e-18
4.018263586e-18
4.000841842e-18
3.984063763e-18
3.967935139e-18
3.952424252e-18
3.937534606e-18
3.92323653e-18
3.909530216e-18
3.896389154e-18
3.883809368e-18
3.871768457e-18
3.860257604e-18
3.849259294e-18
3.838759458e-18
3.828746277e-18
3.819200871e-18
3.810120265e-18
3.801489081e-18
3.793346612e-18
3.785781032e-18
3.779290011e-18
3.775355902e-18
3.775355902e-18
3.775355902e-18
3.775355902e-18
3.775355902e-18
)
;

boundaryField
{
    bottom
    {
        type            calculated;
        value           uniform 4.108593852e-07;
    }
    top
    {
        type            calculated;
        value           uniform 3.775355902e-18;
    }
    frontAndBack
    {
        type            empty;
    }
}


// ************************************************************************* //
