/*--------------------------------*- C++ -*----------------------------------*\
| =========                 |                                                 |
| \\      /  F ield         | OpenFOAM: The Open Source CFD Toolbox           |
|  \\    /   O peration     | Version:  v2006                                 |
|   \\  /    A nd           | Website:  www.openfoam.com                      |
|    \\/     M anipulation  |                                                 |
\*---------------------------------------------------------------------------*/
FoamFile
{
    version     2.0;
    format      ascii;
    class       volScalarField;
    location    "0.03302";
    object      CH3O2;
}
// * * * * * * * * * * * * * * * * * * * * * * * * * * * * * * * * * * * * * //

dimensions      [0 0 0 0 0 0 0];


internalField   nonuniform List<scalar> 
500
(
2.163793394e-07
2.163277705e-07
2.162755061e-07
2.162225368e-07
2.161688532e-07
2.161144456e-07
2.160593042e-07
2.160034192e-07
2.160955257e-07
2.161948424e-07
2.162954984e-07
2.163975119e-07
2.165009012e-07
2.166056848e-07
2.167118208e-07
2.168189127e-07
2.16927449e-07
2.170374489e-07
2.171489324e-07
2.172619193e-07
2.1737643e-07
2.176446362e-07
2.179520052e-07
2.182635195e-07
2.185792348e-07
2.18899208e-07
2.192234959e-07
2.195505181e-07
2.198819505e-07
2.202178527e-07
2.205582849e-07
2.209033083e-07
2.213833966e-07
2.21963939e-07
2.225523107e-07
2.231486172e-07
2.237529656e-07
2.243638337e-07
2.249814959e-07
2.25607488e-07
2.262419223e-07
2.268849127e-07
2.277430527e-07
2.286719333e-07
2.296133409e-07
2.305674446e-07
2.315329154e-07
2.325080379e-07
2.334963111e-07
2.344979122e-07
2.355355572e-07
2.368773292e-07
2.382371966e-07
2.396154034e-07
2.41011754e-07
2.424203226e-07
2.438478875e-07
2.452947046e-07
2.468484836e-07
2.487025788e-07
2.505816786e-07
2.524861201e-07
2.544104293e-07
2.563568257e-07
2.583294715e-07
2.603787867e-07
2.6283526e-07
2.653248616e-07
2.678480384e-07
2.703951821e-07
2.729739444e-07
2.755874844e-07
2.785292317e-07
2.817203952e-07
2.849545952e-07
2.882239951e-07
2.915294445e-07
2.948794717e-07
2.985963454e-07
3.026297788e-07
3.067176077e-07
3.108461223e-07
3.150240061e-07
3.192582335e-07
3.24194343e-07
3.292402233e-07
3.34347073e-07
3.395041142e-07
3.447307039e-07
3.505849936e-07
3.567658777e-07
3.630239083e-07
3.693409573e-07
3.75743199e-07
3.829560898e-07
3.904835468e-07
3.980964876e-07
4.057897746e-07
4.137284727e-07
4.227340733e-07
4.318611248e-07
4.410693721e-07
4.503974928e-07
4.608014991e-07
4.716840484e-07
4.826785317e-07
4.93800824e-07
5.059321227e-07
5.188743907e-07
5.319539502e-07
5.451813369e-07
5.596514013e-07
5.750129316e-07
5.905275558e-07
6.06227501e-07
6.238277655e-07
6.420334965e-07
6.603931591e-07
6.79484501e-07
7.007498778e-07
7.222531861e-07
7.439870386e-07
7.680670847e-07
7.932131769e-07
8.185781804e-07
8.455972185e-07
8.74934282e-07
9.045499312e-07
9.352867481e-07
9.69488419e-07
1.004039825e-06
1.039486661e-06
1.079346616e-06
1.119620687e-06
1.161036233e-06
1.207479841e-06
1.254389172e-06
1.30336283e-06
1.357468563e-06
1.412070971e-06
1.470600399e-06
1.533589971e-06
1.597145424e-06
1.667729622e-06
1.740968658e-06
1.816393086e-06
1.900743e-06
1.985857822e-06
2.07861552e-06
2.176657168e-06
2.277443058e-06
2.390282641e-06
2.504111723e-06
2.629996547e-06
2.760983023e-06
2.900005445e-06
3.050654351e-06
3.205029086e-06
3.378189716e-06
3.552812956e-06
3.749311903e-06
3.94989297e-06
4.171111826e-06
4.401344522e-06
4.651636489e-06
4.915686743e-06
5.20023054e-06
5.50278494e-06
5.827715168e-06
6.174026758e-06
6.546573562e-06
6.942506263e-06
7.371140982e-06
7.823211053e-06
8.333650138e-06
8.871920486e-06
9.497730437e-06
1.014571767e-05
1.087513993e-05
1.162957336e-05
1.245729551e-05
1.333629443e-05
1.427364312e-05
1.529725301e-05
1.636247138e-05
1.756282419e-05
1.884916216e-05
2.026992683e-05
2.181427506e-05
2.343010279e-05
2.519970821e-05
2.710682312e-05
2.912892684e-05
3.144127577e-05
3.387328422e-05
3.644207674e-05
3.931618807e-05
4.237338504e-05
4.562500062e-05
4.920411811e-05
5.303063337e-05
5.710812936e-05
6.152883161e-05
6.630885468e-05
7.138725362e-05
7.678759417e-05
8.265091948e-05
8.886091554e-05
9.538788803e-05
0.0001022136004
0.0001093058966
0.0001164249666
0.0001233219584
0.0001296794141
0.0001346761118
0.0001375759487
0.0001379851296
0.0001352870926
0.000128936187
0.0001185818907
0.0001041978514
8.771471394e-05
7.039241419e-05
5.38209529e-05
3.925890611e-05
2.737666874e-05
1.854047876e-05
1.254869218e-05
8.683835092e-06
6.072152043e-06
4.345717557e-06
3.152839278e-06
2.300398068e-06
1.682013317e-06
1.226773341e-06
8.885387975e-07
6.357947739e-07
4.468735629e-07
3.073767727e-07
2.063125814e-07
1.348887187e-07
8.5870849e-08
5.327056649e-08
3.2256655e-08
1.909764103e-08
1.105984234e-08
6.252646622e-09
3.501773525e-09
1.93697762e-09
1.06990688e-09
5.821328479e-10
3.1601789e-10
1.782169219e-10
1.001736299e-10
5.636937479e-11
3.22636168e-11
1.926981618e-11
1.164615896e-11
6.889928391e-12
4.638397512e-12
3.055776222e-12
2.127466476e-12
1.524175003e-12
1.088775235e-12
8.268319734e-13
6.095771815e-13
4.701339122e-13
3.637832735e-13
2.789776638e-13
2.221450937e-13
1.68353746e-13
1.291761906e-13
1.065684578e-13
8.592030691e-14
6.627575326e-14
5.486360718e-14
4.538474021e-14
3.621554462e-14
2.749441955e-14
2.209815957e-14
1.855662149e-14
1.511135974e-14
1.17599032e-14
8.488226735e-15
7.165221261e-15
6.057923207e-15
4.971667656e-15
3.907373472e-15
2.861493754e-15
2.232100544e-15
1.927969424e-15
1.628519006e-15
1.333299033e-15
1.042374798e-15
7.555191827e-16
6.066676747e-16
5.246235406e-16
4.435255161e-16
3.633842569e-16
2.841996993e-16
2.059506155e-16
1.470155001e-16
1.302769379e-16
1.137428745e-16
9.738709698e-17
8.122168584e-17
6.521723956e-17
4.93684471e-17
3.845144749e-17
3.395177295e-17
2.949473033e-17
2.507660768e-17
2.069827689e-17
1.636336793e-17
1.206905295e-17
8.207544734e-18
7.174633948e-18
6.306531365e-18
5.44688767e-18
4.596816117e-18
3.755913277e-18
2.924567716e-18
2.103897115e-18
1.432933893e-18
1.237646033e-18
1.099827411e-18
9.640949687e-19
8.302492131e-19
6.983442431e-19
5.682942935e-19
4.401504977e-19
3.13816488e-19
2.171940893e-19
2.019569258e-19
1.874554292e-19
1.731531218e-19
1.590414472e-19
1.450995856e-19
1.313125513e-19
1.176616633e-19
1.041160703e-19
9.064192813e-20
7.863428922e-20
7.173968411e-20
6.496043362e-20
5.817999691e-20
5.140242587e-20
4.463323282e-20
3.787792185e-20
3.114258868e-20
2.443545428e-20
1.776652705e-20
1.12546054e-20
8.575365525e-21
7.841086154e-21
7.114703641e-21
6.396264901e-21
5.685782749e-21
4.983226748e-21
4.288511028e-21
3.60147822e-21
2.921878288e-21
2.249340564e-21
1.583336618e-21
1.055975693e-21
9.886321859e-22
9.21846023e-22
8.556363845e-22
7.900235797e-22
7.25029479e-22
6.606781186e-22
5.970078832e-22
5.340400849e-22
4.718105855e-22
4.103639147e-22
3.497552402e-22
2.900722787e-22
2.455651181e-22
2.393783481e-22
2.333092498e-22
2.27358878e-22
2.215269873e-22
2.158123897e-22
2.102148232e-22
2.04737187e-22
1.993740784e-22
1.941235695e-22
1.889849501e-22
1.839523155e-22
1.790211131e-22
1.741857116e-22
1.694313806e-22
1.647434173e-22
1.600982921e-22
1.574259161e-22
1.555581774e-22
1.53689836e-22
1.51822092e-22
1.499544906e-22
1.480874785e-22
1.46221308e-22
1.443569656e-22
1.424944869e-22
1.406341556e-22
1.387763225e-22
1.36922187e-22
1.350717752e-22
1.332259154e-22
1.313852664e-22
1.295518521e-22
1.277264284e-22
1.259116052e-22
1.24110926e-22
1.2250824e-22
1.211690148e-22
1.198471519e-22
1.18543086e-22
1.172573461e-22
1.159897271e-22
1.147406518e-22
1.135104222e-22
1.122989626e-22
1.111065789e-22
1.099335974e-22
1.087798834e-22
1.076455816e-22
1.065312686e-22
1.054365444e-22
1.043614063e-22
1.033067835e-22
1.02271879e-22
1.012568878e-22
1.002620524e-22
9.928705421e-23
9.833186313e-23
9.739582772e-23
9.647799634e-23
9.563290446e-23
9.489071624e-23
9.416180585e-23
9.344619643e-23
9.27438119e-23
9.205511199e-23
9.137973567e-23
9.071795568e-23
9.006964025e-23
8.943479033e-23
8.88136115e-23
8.820577502e-23
8.761179426e-23
8.703111271e-23
8.646402391e-23
8.591032306e-23
8.536999052e-23
8.484309107e-23
8.432930955e-23
8.382896069e-23
8.334150023e-23
8.286739486e-23
8.240598946e-23
8.195761292e-23
8.15218178e-23
8.109873143e-23
8.068806379e-23
8.028976748e-23
7.990368393e-23
7.952961908e-23
7.916751913e-23
7.8817072e-23
7.847830204e-23
7.815080769e-23
7.783466543e-23
7.752941191e-23
7.723515092e-23
7.695138375e-23
7.667821829e-23
7.641514518e-23
7.616225528e-23
7.59190512e-23
7.568558795e-23
7.546140026e-23
7.524649111e-23
7.50404449e-23
7.484319923e-23
7.46544029e-23
7.447391766e-23
7.430146888e-23
7.413683595e-23
7.397983356e-23
7.383016569e-23
7.368778567e-23
7.355245241e-23
7.342478198e-23
7.330615694e-23
7.320438051e-23
7.314269536e-23
7.314269536e-23
7.314269536e-23
7.314269536e-23
7.314269536e-23
)
;

boundaryField
{
    bottom
    {
        type            calculated;
        value           uniform 2.164049512e-07;
    }
    top
    {
        type            calculated;
        value           uniform 7.314269536e-23;
    }
    frontAndBack
    {
        type            empty;
    }
}


// ************************************************************************* //
