/*--------------------------------*- C++ -*----------------------------------*\
| =========                 |                                                 |
| \\      /  F ield         | OpenFOAM: The Open Source CFD Toolbox           |
|  \\    /   O peration     | Version:  v2006                                 |
|   \\  /    A nd           | Website:  www.openfoam.com                      |
|    \\/     M anipulation  |                                                 |
\*---------------------------------------------------------------------------*/
FoamFile
{
    version     2.0;
    format      ascii;
    class       volScalarField;
    location    "0.03302";
    object      CH3O;
}
// * * * * * * * * * * * * * * * * * * * * * * * * * * * * * * * * * * * * * //

dimensions      [0 0 0 0 0 0 0];


internalField   nonuniform List<scalar> 
500
(
9.239693317e-15
9.385934874e-15
9.534148665e-15
9.684361289e-15
9.836599702e-15
9.990891224e-15
1.014726354e-14
1.030574472e-14
1.047301545e-14
1.064280892e-14
1.081489225e-14
1.098929632e-14
1.116605242e-14
1.134519229e-14
1.152664431e-14
1.170973062e-14
1.189528607e-14
1.208334394e-14
1.227393799e-14
1.246710241e-14
1.266287188e-14
1.287006195e-14
1.30820975e-14
1.329699259e-14
1.35147858e-14
1.373551619e-14
1.395922303e-14
1.418481612e-14
1.441345158e-14
1.464517045e-14
1.488001432e-14
1.511802533e-14
1.536823235e-14
1.562828946e-14
1.589185374e-14
1.615897248e-14
1.642969363e-14
1.670333528e-14
1.698002041e-14
1.726043695e-14
1.754463524e-14
1.783266626e-14
1.814097519e-14
1.845813967e-14
1.877958148e-14
1.91053583e-14
1.943501643e-14
1.976797012e-14
2.010541406e-14
2.044740882e-14
2.079602301e-14
2.117518012e-14
2.15594506e-14
2.19489034e-14
2.234348326e-14
2.274151571e-14
2.314491609e-14
2.355375678e-14
2.397666796e-14
2.443261757e-14
2.489471618e-14
2.536304672e-14
2.5836263e-14
2.631491086e-14
2.680001384e-14
2.729695107e-14
2.784070629e-14
2.839179467e-14
2.89503151e-14
2.951414075e-14
3.00849654e-14
3.066348826e-14
3.128280983e-14
3.193410739e-14
3.259418845e-14
3.326145359e-14
3.393607623e-14
3.461979694e-14
3.535091011e-14
3.612350036e-14
3.690650988e-14
3.769731262e-14
3.849757184e-14
3.930862347e-14
4.021048016e-14
4.112985072e-14
4.206033001e-14
4.299995431e-14
4.395225052e-14
4.498888013e-14
4.60712625e-14
4.716715457e-14
4.827338183e-14
4.939452782e-14
5.062643565e-14
5.19036497e-14
5.319536814e-14
5.450071924e-14
5.584282478e-14
5.733278759e-14
5.884284427e-14
6.036633466e-14
6.190965792e-14
6.360471821e-14
6.536924746e-14
6.715192605e-14
6.895532795e-14
7.090328399e-14
7.296812031e-14
7.505486039e-14
7.716518512e-14
7.945483432e-14
8.187406615e-14
8.431740817e-14
8.678993573e-14
8.953763751e-14
9.237511322e-14
9.523658012e-14
9.820653741e-14
1.014933183e-13
1.04816874e-13
1.081760626e-13
1.118790383e-13
1.157396694e-13
1.196339096e-13
1.237724425e-13
1.282523605e-13
1.3277482e-13
1.374640496e-13
1.426643539e-13
1.479178348e-13
1.53305146e-13
1.593448796e-13
1.654473617e-13
1.717202488e-13
1.78738113e-13
1.858263503e-13
1.932219725e-13
2.013795281e-13
2.096119676e-13
2.184286957e-13
2.279088541e-13
2.374741795e-13
2.480854715e-13
2.590926023e-13
2.70426023e-13
2.830886702e-13
2.958661454e-13
3.097829342e-13
3.244876959e-13
3.396023531e-13
3.565143853e-13
3.735747203e-13
3.924336812e-13
4.120542335e-13
4.328744083e-13
4.554298833e-13
4.785420727e-13
5.044586068e-13
5.305940463e-13
5.599958297e-13
5.900076148e-13
6.231015779e-13
6.575420279e-13
6.949787588e-13
7.344707368e-13
7.770242466e-13
8.222684149e-13
8.708556115e-13
9.226372771e-13
9.783388307e-13
1.037534586e-12
1.10161669e-12
1.169200607e-12
1.509074098e-12
1.969465798e-12
2.956810776e-12
4.055496966e-12
5.292177031e-12
6.571244954e-12
7.974509803e-12
9.464674529e-12
1.105372525e-11
1.27889665e-11
1.470101731e-11
1.898341757e-11
2.720103996e-11
4.181176466e-11
5.76931622e-11
7.430951511e-11
9.25070118e-11
1.264120278e-10
1.732039222e-10
2.70322984e-10
3.726572102e-10
4.807466009e-10
7.484937516e-10
1.103857969e-09
1.552051307e-09
2.311113919e-09
3.630766243e-09
5.623212322e-09
9.087847171e-09
1.590276642e-08
2.806416596e-08
4.825554895e-08
7.970978847e-08
1.454331603e-07
2.482828817e-07
3.916508099e-07
6.120936099e-07
9.075924722e-07
1.287193469e-06
1.756613262e-06
2.318716009e-06
2.918482163e-06
3.499151606e-06
4.004767911e-06
4.373975625e-06
4.543240709e-06
4.450410131e-06
4.174981642e-06
3.767608255e-06
3.287275086e-06
2.792977873e-06
2.335510218e-06
1.95334393e-06
1.675107473e-06
1.504648035e-06
1.406171334e-06
1.356710044e-06
1.332684348e-06
1.320136337e-06
1.311048489e-06
1.300979469e-06
1.289405108e-06
1.279523542e-06
1.276645094e-06
1.285150563e-06
1.304872232e-06
1.328540479e-06
1.342311416e-06
1.330004409e-06
1.279428423e-06
1.187494235e-06
1.061166099e-06
9.137827476e-07
7.599394707e-07
6.128409319e-07
4.815454273e-07
3.692457931e-07
2.77785666e-07
2.071457997e-07
1.525496382e-07
1.111668509e-07
8.047110178e-08
5.821730624e-08
4.171952801e-08
2.911926998e-08
2.11955334e-08
1.516025786e-08
1.104124096e-08
8.09928684e-09
5.813024352e-09
4.3089587e-09
3.055000049e-09
2.268689024e-09
1.679377168e-09
1.215940926e-09
9.169140597e-10
6.338887109e-10
4.400424671e-10
3.476755804e-10
2.651916596e-10
1.867953491e-10
1.474484852e-10
1.168187331e-10
8.718964447e-11
5.91113634e-11
4.385966293e-11
3.572120295e-11
2.780398616e-11
2.01023339e-11
1.258401639e-11
1.027764139e-11
8.527883413e-12
6.811376908e-12
5.129573866e-12
3.476869453e-12
2.547998844e-12
2.184646533e-12
1.826886364e-12
1.474180405e-12
1.126606662e-12
7.838937928e-13
6.152408959e-13
5.307441334e-13
4.472217637e-13
3.646847611e-13
2.831330599e-13
2.025447979e-13
1.421754731e-13
1.260017066e-13
1.100255388e-13
9.422164105e-14
7.86016863e-14
6.313726513e-14
4.782324566e-14
3.727292509e-14
3.292118422e-14
2.86106737e-14
2.43378036e-14
2.010341713e-14
1.591102493e-14
1.175789214e-14
8.023070631e-15
7.02195924e-15
6.180152954e-15
5.346549323e-15
4.522227878e-15
3.70679741e-15
2.900634714e-15
2.104823615e-15
1.453692857e-15
1.262186344e-15
1.126243354e-15
9.923581514e-16
8.603339593e-16
7.302241399e-16
6.019440953e-16
4.75544263e-16
3.50929587e-16
2.554141551e-16
2.395850367e-16
2.244885942e-16
2.095995133e-16
1.949088861e-16
1.803950388e-16
1.660423708e-16
1.518314347e-16
1.377301137e-16
1.237031747e-16
1.110348211e-16
1.030903593e-16
9.525141744e-17
8.741110401e-17
7.957410421e-17
7.1746792e-17
6.393553186e-17
5.614737233e-17
4.839181944e-17
4.068044605e-17
3.31422382e-17
2.973930734e-17
2.843778781e-17
2.715026558e-17
2.587682377e-17
2.461748513e-17
2.33721957e-17
2.214080325e-17
2.092302887e-17
1.971842936e-17
1.85263477e-17
1.734584725e-17
1.633953914e-17
1.590365972e-17
1.54713877e-17
1.504284723e-17
1.461816975e-17
1.419749683e-17
1.378098402e-17
1.336887978e-17
1.296132205e-17
1.255854294e-17
1.216083068e-17
1.176854233e-17
1.138224564e-17
1.104040981e-17
1.080523268e-17
1.057452859e-17
1.034833764e-17
1.012665049e-17
9.909422011e-18
9.696642216e-18
9.488421323e-18
9.284553958e-18
9.084966832e-18
8.889632955e-18
8.698327865e-18
8.51087851e-18
8.327070825e-18
8.146344867e-18
7.968141739e-18
7.791567011e-18
7.649058593e-18
7.520311332e-18
7.391522532e-18
7.262774912e-18
7.134037125e-18
7.00533995e-18
6.876700796e-18
6.748187661e-18
6.619802982e-18
6.491566333e-18
6.363501896e-18
6.23569234e-18
6.108139462e-18
5.980900368e-18
5.854020466e-18
5.727639266e-18
5.601808867e-18
5.476709195e-18
5.352584499e-18
5.244755531e-18
5.158632964e-18
5.073627479e-18
4.989766471e-18
4.907083951e-18
4.825566743e-18
4.745242035e-18
4.666129241e-18
4.588223498e-18
4.511544466e-18
4.436113144e-18
4.361920865e-18
4.288976938e-18
4.217318429e-18
4.146919629e-18
4.07778035e-18
4.009960362e-18
3.943408407e-18
3.878137025e-18
3.814161806e-18
3.751462262e-18
3.690036464e-18
3.629842516e-18
3.57081922e-18
3.519460083e-18
3.479418995e-18
3.440094246e-18
3.401487084e-18
3.363593406e-18
3.326438014e-18
3.29000143e-18
3.254298369e-18
3.219321722e-18
3.18507154e-18
3.151558913e-18
3.118766107e-18
3.086720817e-18
3.055393021e-18
3.024798554e-18
2.994926368e-18
2.965775403e-18
2.937349153e-18
2.909630616e-18
2.882636772e-18
2.856338258e-18
2.830760251e-18
2.805867408e-18
2.781677473e-18
2.758166307e-18
2.735340777e-18
2.713185239e-18
2.691697134e-18
2.670867909e-18
2.650687093e-18
2.631151784e-18
2.612245145e-18
2.59396849e-18
2.576300155e-18
2.559244266e-18
2.542775824e-18
2.526900431e-18
2.511591179e-18
2.496853889e-18
2.482661083e-18
2.469017661e-18
2.45589679e-18
2.443301437e-18
2.431206501e-18
2.419612142e-18
2.40849594e-18
2.397854526e-18
2.387668955e-18
2.377931769e-18
2.368628149e-18
2.359746195e-18
2.351275908e-18
2.34320132e-18
2.335519911e-18
2.328218676e-18
2.32133085e-18
2.314931023e-18
2.309440181e-18
2.306112264e-18
2.306112264e-18
2.306112264e-18
2.306112264e-18
2.306112264e-18
)
;

boundaryField
{
    bottom
    {
        type            calculated;
        value           uniform 9.167062295e-15;
    }
    top
    {
        type            calculated;
        value           uniform 2.306112264e-18;
    }
    frontAndBack
    {
        type            empty;
    }
}


// ************************************************************************* //
