/*--------------------------------*- C++ -*----------------------------------*\
| =========                 |                                                 |
| \\      /  F ield         | OpenFOAM: The Open Source CFD Toolbox           |
|  \\    /   O peration     | Version:  v2006                                 |
|   \\  /    A nd           | Website:  www.openfoam.com                      |
|    \\/     M anipulation  |                                                 |
\*---------------------------------------------------------------------------*/
FoamFile
{
    version     2.0;
    format      ascii;
    class       volScalarField;
    location    "0.03302";
    object      CH3O2H;
}
// * * * * * * * * * * * * * * * * * * * * * * * * * * * * * * * * * * * * * //

dimensions      [0 0 0 0 0 0 0];


internalField   nonuniform List<scalar> 
500
(
7.479057111e-08
7.478076311e-08
7.477082283e-08
7.47607485e-08
7.47505383e-08
7.474019041e-08
7.472970296e-08
7.471907408e-08
7.475992546e-08
7.480339901e-08
7.484745886e-08
7.48921129e-08
7.493736915e-08
7.498323573e-08
7.502969432e-08
7.507657134e-08
7.512408055e-08
7.517223049e-08
7.522102977e-08
7.527048718e-08
7.532061157e-08
7.542435994e-08
7.554187726e-08
7.566097944e-08
7.578168784e-08
7.590402414e-08
7.602801008e-08
7.615304145e-08
7.6279759e-08
7.640818549e-08
7.653834396e-08
7.667025776e-08
7.684938722e-08
7.706367571e-08
7.728085412e-08
7.750096143e-08
7.772403714e-08
7.794951936e-08
7.817750942e-08
7.84085742e-08
7.864275514e-08
7.888009429e-08
7.91926595e-08
7.953007932e-08
7.987204963e-08
8.02186318e-08
8.056934317e-08
8.092356055e-08
8.128255495e-08
8.164639081e-08
8.202300389e-08
8.250602213e-08
8.299555442e-08
8.349168862e-08
8.39943543e-08
8.450141834e-08
8.501532071e-08
8.553615365e-08
8.609458606e-08
8.675822397e-08
8.743081181e-08
8.811247026e-08
8.880123993e-08
8.949791531e-08
9.020398616e-08
9.093710241e-08
9.181293888e-08
9.270058702e-08
9.36002061e-08
9.450837041e-08
9.542780811e-08
9.635964548e-08
9.740668565e-08
9.854132784e-08
9.969127197e-08
1.008537317e-07
1.020290091e-07
1.032201365e-07
1.04540118e-07
1.059713241e-07
1.074218316e-07
1.088867759e-07
1.103692382e-07
1.118716931e-07
1.136206704e-07
1.154083946e-07
1.172177198e-07
1.190448276e-07
1.208965761e-07
1.229689601e-07
1.251562511e-07
1.273708426e-07
1.296063196e-07
1.318719445e-07
1.344226069e-07
1.370840127e-07
1.397756421e-07
1.424956787e-07
1.453021936e-07
1.48483959e-07
1.517086341e-07
1.549619965e-07
1.582577113e-07
1.619319831e-07
1.65774751e-07
1.696570442e-07
1.735844684e-07
1.778670457e-07
1.824351121e-07
1.870516366e-07
1.917203377e-07
1.968265122e-07
2.022465757e-07
2.077206558e-07
2.132601234e-07
2.19468632e-07
2.258904325e-07
2.323665301e-07
2.391003804e-07
2.465997545e-07
2.541830366e-07
2.618476218e-07
2.70338461e-07
2.792048156e-07
2.88148357e-07
2.976745117e-07
3.080171027e-07
3.184579074e-07
3.292937008e-07
3.413499025e-07
3.535293869e-07
3.660243712e-07
3.800738539e-07
3.942693005e-07
4.088669268e-07
4.252357607e-07
4.417687366e-07
4.590289945e-07
4.780971936e-07
4.973404328e-07
5.179671703e-07
5.401652153e-07
5.625626811e-07
5.874363997e-07
6.13245475e-07
6.39824538e-07
6.695481435e-07
6.995412902e-07
7.322271698e-07
7.667747059e-07
8.022891416e-07
8.420503595e-07
8.821602463e-07
9.265176952e-07
9.726726217e-07
1.021658873e-06
1.074741491e-06
1.129136871e-06
1.190151128e-06
1.251680745e-06
1.320917925e-06
1.391593406e-06
1.469540332e-06
1.55066318e-06
1.63885367e-06
1.731891737e-06
1.83215048e-06
1.938755066e-06
2.05324355e-06
2.175265543e-06
2.306531266e-06
2.446036791e-06
2.597064577e-06
2.756349605e-06
2.919659457e-06
3.085472939e-06
3.249879598e-06
3.415320443e-06
3.601555971e-06
3.794177962e-06
4.005514175e-06
4.229943692e-06
4.469272593e-06
4.730627857e-06
5.001871429e-06
5.292791105e-06
5.579422342e-06
5.857680934e-06
6.16014558e-06
6.476610668e-06
6.823195707e-06
7.173802167e-06
7.528169168e-06
7.863496431e-06
8.215872811e-06
8.588068979e-06
8.950958544e-06
9.311229571e-06
9.668797067e-06
1.003960194e-05
1.039248229e-05
1.07310239e-05
1.107262591e-05
1.138215864e-05
1.167179782e-05
1.194688542e-05
1.220289168e-05
1.240833704e-05
1.257036416e-05
1.2701546e-05
1.277343708e-05
1.279097281e-05
1.274437503e-05
1.262218726e-05
1.239126479e-05
1.203666576e-05
1.155073989e-05
1.090637482e-05
1.007279903e-05
9.019983324e-06
7.71057371e-06
6.239028475e-06
4.689437395e-06
3.207434174e-06
1.937731108e-06
9.847500287e-07
4.047052551e-07
1.44353969e-07
5.379400468e-08
2.177416013e-08
1.074116825e-08
6.093288743e-09
3.649725882e-09
2.272872585e-09
1.460320077e-09
9.64796023e-10
6.543597312e-10
4.560457515e-10
3.295703009e-10
2.498130576e-10
2.001745265e-10
1.69114975e-10
1.483776419e-10
1.322918662e-10
1.174169994e-10
1.022249061e-10
8.656985278e-11
7.104597719e-11
5.649743589e-11
4.365470881e-11
3.278649739e-11
2.406666434e-11
1.747547763e-11
1.249600355e-11
8.819285597e-12
6.173584195e-12
4.321474599e-12
2.992164429e-12
2.006709884e-12
1.418398487e-12
9.785950433e-13
6.889410249e-13
4.885731497e-13
3.37100615e-13
2.438014765e-13
1.669157015e-13
1.202870672e-13
8.624951016e-14
6.018201365e-14
4.462447531e-14
2.989945177e-14
1.996617543e-14
1.548943997e-14
1.152160012e-14
7.752174784e-15
6.001135311e-15
4.692000183e-15
3.425634059e-15
2.226758839e-15
1.60055172e-15
1.291517665e-15
9.908846712e-16
6.984371084e-16
4.129511455e-16
3.323338281e-16
2.734301982e-16
2.15645942e-16
1.590299391e-16
1.033935093e-16
7.29105925e-17
6.208214553e-17
5.142035291e-17
4.090918343e-17
3.055096181e-17
2.03376016e-17
1.552143843e-17
1.331247165e-17
1.112897806e-17
8.971244561e-18
6.839269431e-18
4.732481135e-18
3.168632804e-18
2.792512486e-18
2.420987318e-18
2.053468285e-18
1.690226842e-18
1.330602327e-18
9.744753991e-19
7.346544561e-19
6.462342161e-19
5.586517094e-19
4.718339945e-19
3.857982041e-19
3.006156687e-19
2.162308202e-19
1.405874392e-19
1.222092166e-19
1.071448741e-19
9.222732023e-20
7.747587354e-20
6.28835332e-20
4.84570421e-20
3.421579552e-20
2.262312368e-20
1.945401702e-20
1.729916136e-20
1.517692405e-20
1.308418593e-20
1.102179287e-20
8.988403881e-21
6.984818464e-21
5.009529866e-21
3.499251724e-21
3.262764799e-21
3.037764956e-21
2.81585566e-21
2.596904153e-21
2.380587402e-21
2.166672895e-21
1.954870782e-21
1.74470239e-21
1.5356426e-21
1.350557832e-21
1.249156703e-21
1.14965122e-21
1.050128326e-21
9.50647495e-22
8.512896354e-22
7.521355364e-22
6.532746707e-22
5.548277051e-22
4.569415425e-22
3.612655178e-22
3.18506792e-22
3.026344448e-22
2.869327979e-22
2.714028654e-22
2.560449243e-22
2.408583167e-22
2.258411864e-22
2.109901317e-22
1.962997476e-22
1.817620218e-22
1.673655316e-22
1.551285502e-22
1.499685574e-22
1.448512694e-22
1.397781559e-22
1.347507729e-22
1.297707963e-22
1.248400678e-22
1.199615284e-22
1.15136811e-22
1.103686636e-22
1.056604981e-22
1.010165415e-22
9.644351492e-23
9.247103714e-23
8.99563428e-23
8.748947769e-23
8.507087055e-23
8.27004216e-23
8.037764801e-23
7.810244322e-23
7.587598571e-23
7.369607947e-23
7.156194083e-23
6.947328117e-23
6.74277004e-23
6.542334811e-23
6.345793534e-23
6.152547477e-23
5.961999024e-23
5.773191779e-23
5.633028882e-23
5.512603824e-23
5.39213991e-23
5.271714515e-23
5.151298317e-23
5.030920107e-23
4.910596167e-23
4.7903901e-23
4.670304185e-23
4.550356733e-23
4.43057036e-23
4.311022392e-23
4.191714512e-23
4.072700132e-23
3.954021726e-23
3.835809786e-23
3.718113043e-23
3.601099794e-23
3.484998498e-23
3.388602132e-23
3.318484933e-23
3.249278199e-23
3.181003235e-23
3.11368773e-23
3.047320958e-23
2.981925051e-23
2.917515818e-23
2.8540893e-23
2.7916615e-23
2.730249516e-23
2.669846293e-23
2.610459408e-23
2.552119039e-23
2.494804256e-23
2.438514903e-23
2.383299644e-23
2.329116747e-23
2.275976421e-23
2.223891359e-23
2.172844882e-23
2.122835416e-23
2.073828853e-23
2.025775372e-23
1.985657448e-23
1.957423209e-23
1.929694084e-23
1.902470953e-23
1.875750921e-23
1.849551478e-23
1.82385889e-23
1.798683532e-23
1.774020391e-23
1.749869503e-23
1.72623869e-23
1.703115444e-23
1.680519296e-23
1.658429075e-23
1.636855949e-23
1.615792125e-23
1.595236857e-23
1.575192608e-23
1.55564739e-23
1.536613177e-23
1.518069261e-23
1.5000334e-23
1.482480669e-23
1.46542358e-23
1.448845112e-23
1.432750109e-23
1.417127538e-23
1.401975596e-23
1.387288249e-23
1.373058117e-23
1.359283152e-23
1.345951483e-23
1.333064036e-23
1.320605533e-23
1.308578886e-23
1.296966466e-23
1.285772224e-23
1.274977186e-23
1.264585457e-23
1.25457766e-23
1.244957252e-23
1.23570531e-23
1.226823927e-23
1.218295405e-23
1.210119855e-23
1.20228147e-23
1.194777873e-23
1.187595704e-23
1.180729706e-23
1.174169429e-23
1.167906482e-23
1.161933815e-23
1.156240167e-23
1.150823763e-23
1.14567543e-23
1.140818607e-23
1.136305886e-23
1.13243412e-23
1.1300875e-23
1.1300875e-23
1.1300875e-23
1.1300875e-23
1.1300875e-23
)
;

boundaryField
{
    bottom
    {
        type            calculated;
        value           uniform 7.479544227e-08;
    }
    top
    {
        type            calculated;
        value           uniform 1.1300875e-23;
    }
    frontAndBack
    {
        type            empty;
    }
}


// ************************************************************************* //
