/*--------------------------------*- C++ -*----------------------------------*\
| =========                 |                                                 |
| \\      /  F ield         | OpenFOAM: The Open Source CFD Toolbox           |
|  \\    /   O peration     | Version:  v2006                                 |
|   \\  /    A nd           | Website:  www.openfoam.com                      |
|    \\/     M anipulation  |                                                 |
\*---------------------------------------------------------------------------*/
FoamFile
{
    version     2.0;
    format      ascii;
    class       volScalarField;
    location    "0.03302";
    object      CH4;
}
// * * * * * * * * * * * * * * * * * * * * * * * * * * * * * * * * * * * * * //

dimensions      [0 0 0 0 0 0 0];


internalField   nonuniform List<scalar> 
500
(
0.05513979551
0.05513979467
0.05513979382
0.05513979296
0.05513979209
0.0551397912
0.0551397903
0.0551397894
0.05513976957
0.05513974873
0.0551397276
0.05513970619
0.05513968449
0.0551396625
0.05513964022
0.05513961774
0.05513959496
0.05513957187
0.05513954847
0.05513952476
0.05513950072
0.05513945692
0.05513940799
0.0551393584
0.05513930814
0.0551392572
0.05513920557
0.05513915351
0.05513910074
0.05513904727
0.05513899307
0.05513893814
0.05513886575
0.05513878032
0.05513869374
0.055138606
0.05513851707
0.05513842718
0.05513833629
0.05513824418
0.05513815082
0.05513805621
0.05513793373
0.05513780199
0.05513766847
0.05513753316
0.05513739622
0.05513725792
0.05513711776
0.0551369757
0.05513682882
0.05513664248
0.05513645363
0.05513626223
0.05513606831
0.05513587269
0.05513567443
0.0551354735
0.05513525853
0.05513500446
0.05513474696
0.05513448599
0.0551342223
0.05513395558
0.05513368526
0.0551334048
0.05513307122
0.05513273315
0.05513239052
0.05513204464
0.05513169446
0.05513133956
0.05513094171
0.05513051116
0.05513007481
0.0551296337
0.05512918774
0.05512873576
0.05512823568
0.05512769407
0.05512714515
0.05512659078
0.05512602977
0.05512546119
0.05512480059
0.05512412543
0.05512344212
0.05512275208
0.05512205274
0.05512127095
0.05512044616
0.05511961107
0.05511876811
0.05511791378
0.05511695288
0.0551159505
0.05511493674
0.05511391228
0.05511285539
0.05511165813
0.05511044473
0.05510922053
0.05510798039
0.05510659858
0.05510515364
0.05510369385
0.05510221708
0.05510060733
0.05509889065
0.05509715576
0.05509540126
0.05509348292
0.05509144698
0.05508939075
0.05508730996
0.05508497856
0.0550825672
0.05508013545
0.05507760708
0.05507479191
0.05507194523
0.05506906804
0.05506588123
0.05506255366
0.05505919712
0.05505562221
0.0550517413
0.05504782355
0.05504375771
0.05503923445
0.05503466494
0.05502997713
0.05502470664
0.0550193814
0.05501390535
0.05500776536
0.05500156379
0.05499508956
0.05498793755
0.05498071988
0.05497298353
0.05496465808
0.05495625784
0.05494692922
0.0549372499
0.05492728187
0.05491613488
0.05490488681
0.05489262914
0.05487967345
0.05486635522
0.05485144471
0.05483640345
0.05481976959
0.05480246176
0.05478409232
0.05476418694
0.05474378933
0.05472090995
0.05469783733
0.05467187471
0.05464537279
0.05461614438
0.05458572512
0.05455265579
0.05451776881
0.05448017435
0.05444020045
0.05439727038
0.05435151553
0.05430229463
0.0542499841
0.05419335314
0.05413362602
0.05406827789
0.05400017571
0.05392458402
0.05384691919
0.05375949371
0.05366907045
0.05356986297
0.05346450959
0.05335216254
0.05322947643
0.05310189609
0.05295998925
0.05281108648
0.05265145688
0.05247794192
0.05229639581
0.05209757185
0.05188620228
0.05166429134
0.05141938959
0.05116185316
0.05088983195
0.05059232818
0.0502791648
0.0499493626
0.04958927587
0.04920990772
0.04881047775
0.04838066218
0.04792352023
0.04744251303
0.04693459154
0.04638773764
0.04581183451
0.04520616146
0.04456733719
0.04388354885
0.04316416763
0.04240846359
0.04161394486
0.04077289064
0.03988365924
0.03895002067
0.0379711472
0.03694439428
0.03586783166
0.03473043052
0.03353987172
0.03229490638
0.03099487541
0.02963856285
0.0282244448
0.02675175006
0.02521879112
0.02362373816
0.02197226613
0.02026900694
0.01851912465
0.01673152138
0.01491978601
0.01310298028
0.01130704787
0.009562028571
0.007901924095
0.006363469744
0.004981002679
0.003781511449
0.002780349805
0.001978388206
0.001362726648
0.0009093884303
0.0005882538786
0.0003685169045
0.0002259761928
0.0001354532279
8.018181337e-05
4.63367777e-05
2.640278922e-05
1.533262868e-05
8.769331223e-06
4.950309088e-06
2.795985321e-06
1.622338679e-06
9.364437858e-07
5.137900595e-07
3.2304866e-07
1.930993191e-07
1.225386564e-07
8.044424528e-08
5.241124458e-08
3.757973991e-08
2.565321676e-08
1.878615734e-08
1.399059414e-08
1.03155101e-08
8.117663228e-09
6.037427399e-09
4.571720643e-09
3.804258525e-09
3.110860216e-09
2.451063088e-09
2.059776456e-09
1.732130527e-09
1.415188674e-09
1.113352847e-09
9.187153508e-10
7.840320343e-10
6.530100682e-10
5.255554766e-10
4.011348895e-10
3.446838592e-10
2.959266077e-10
2.480959128e-10
2.012322345e-10
1.551793933e-10
1.260919407e-10
1.102491203e-10
9.46501273e-11
7.927150686e-11
6.411666026e-11
4.917375643e-11
4.081735709e-11
3.565640351e-11
3.055496456e-11
2.551371053e-11
2.053263741e-11
1.561040988e-11
1.184302789e-11
1.059470684e-11
9.361636804e-12
8.141862888e-12
6.936286029e-12
5.742713535e-12
4.560749318e-12
3.714371448e-12
3.304302316e-12
2.898118363e-12
2.495481304e-12
2.096470599e-12
1.701417056e-12
1.310062968e-12
9.560312801e-13
8.447047979e-13
7.477227045e-13
6.516856153e-13
5.567179e-13
4.627744885e-13
3.698987906e-13
2.782156704e-13
2.025153225e-13
1.774799338e-13
1.586162304e-13
1.400380695e-13
1.217181456e-13
1.036638639e-13
8.58634849e-14
6.832400772e-14
5.103224213e-14
3.773987548e-14
3.539558007e-14
3.315425056e-14
3.094370745e-14
2.876262826e-14
2.660779511e-14
2.447689183e-14
2.236703112e-14
2.027344466e-14
1.819090151e-14
1.626765228e-14
1.48946264e-14
1.353359113e-14
1.21723177e-14
1.081161961e-14
9.452603511e-15
8.096374454e-15
6.744156236e-15
5.39759934e-15
4.058713102e-15
2.750641404e-15
2.18704055e-15
2.001478224e-15
1.81791154e-15
1.636352355e-15
1.456803906e-15
1.279258504e-15
1.103694447e-15
9.300719656e-16
7.583278722e-16
5.883684947e-16
4.200602908e-16
2.860310035e-16
2.656592355e-16
2.454560672e-16
2.254273006e-16
2.055790794e-16
1.859180194e-16
1.664513919e-16
1.471908081e-16
1.281427155e-16
1.09317962e-16
9.073001843e-17
7.239557314e-17
5.434116094e-17
4.098572769e-17
3.950696932e-17
3.805633678e-17
3.66340822e-17
3.52401469e-17
3.387424694e-17
3.253631968e-17
3.12270581e-17
2.994517086e-17
2.869019711e-17
2.746196715e-17
2.625906959e-17
2.508041631e-17
2.392466131e-17
2.278828374e-17
2.166776934e-17
2.055749408e-17
2.014974538e-17
2.002929499e-17
1.990880574e-17
1.978835502e-17
1.966791349e-17
1.954750996e-17
1.942716071e-17
1.930692936e-17
1.918681819e-17
1.906684551e-17
1.894703394e-17
1.882746083e-17
1.870812786e-17
1.858908845e-17
1.847038508e-17
1.835214828e-17
1.823442678e-17
1.811738891e-17
1.80012632e-17
1.792305569e-17
1.789551695e-17
1.786834043e-17
1.784152979e-17
1.781509593e-17
1.778903461e-17
1.776335455e-17
1.773806193e-17
1.771315522e-17
1.768864068e-17
1.766452506e-17
1.764080554e-17
1.761748513e-17
1.759457568e-17
1.757206896e-17
1.754996491e-17
1.752828264e-17
1.750700577e-17
1.74861383e-17
1.746568522e-17
1.744563997e-17
1.742600195e-17
1.740675775e-17
1.738788782e-17
1.736918286e-17
1.735049938e-17
1.733215016e-17
1.731413577e-17
1.729645429e-17
1.727911731e-17
1.726211572e-17
1.72454564e-17
1.722913604e-17
1.721315464e-17
1.71975174e-17
1.718221603e-17
1.716726345e-17
1.715264567e-17
1.713837006e-17
1.712443148e-17
1.711082941e-17
1.709756551e-17
1.708463184e-17
1.70720363e-17
1.705976522e-17
1.704783033e-17
1.703621514e-17
1.702492793e-17
1.701395745e-17
1.700330689e-17
1.699296894e-17
1.698294244e-17
1.697322336e-17
1.696380684e-17
1.695469152e-17
1.694586953e-17
1.693734151e-17
1.692909734e-17
1.692113893e-17
1.691345463e-17
1.690604705e-17
1.689890363e-17
1.68920271e-17
1.688540464e-17
1.687903851e-17
1.687291622e-17
1.686703913e-17
1.686139554e-17
1.685598553e-17
1.685079862e-17
1.684583326e-17
1.684108059e-17
1.683653715e-17
1.683219601e-17
1.682805162e-17
1.682409932e-17
1.682033166e-17
1.681674746e-17
1.681334065e-17
1.681012674e-17
1.680714053e-17
1.680457846e-17
1.680302563e-17
1.680302563e-17
1.680302563e-17
1.680302563e-17
1.680302563e-17
)
;

boundaryField
{
    bottom
    {
        type            calculated;
        value           uniform 0.05513979593;
    }
    top
    {
        type            calculated;
        value           uniform 1.680302563e-17;
    }
    frontAndBack
    {
        type            empty;
    }
}


// ************************************************************************* //
