/*--------------------------------*- C++ -*----------------------------------*\
| =========                 |                                                 |
| \\      /  F ield         | OpenFOAM: The Open Source CFD Toolbox           |
|  \\    /   O peration     | Version:  v2006                                 |
|   \\  /    A nd           | Website:  www.openfoam.com                      |
|    \\/     M anipulation  |                                                 |
\*---------------------------------------------------------------------------*/
FoamFile
{
    version     2.0;
    format      ascii;
    class       volScalarField;
    location    "0.03302";
    object      CO;
}
// * * * * * * * * * * * * * * * * * * * * * * * * * * * * * * * * * * * * * //

dimensions      [0 0 0 0 0 0 0];


internalField   nonuniform List<scalar> 
500
(
2.181270575e-05
2.181400079e-05
2.18153133e-05
2.181664351e-05
2.181799165e-05
2.181935798e-05
2.182074274e-05
2.182214617e-05
2.183863471e-05
2.185595011e-05
2.187349902e-05
2.189128461e-05
2.190931005e-05
2.192757858e-05
2.194608291e-05
2.19647539e-05
2.198367669e-05
2.200285468e-05
2.20222913e-05
2.204199005e-05
2.206195446e-05
2.209769642e-05
2.213754348e-05
2.217792792e-05
2.221885698e-05
2.226033803e-05
2.230237843e-05
2.23447733e-05
2.238773991e-05
2.243128598e-05
2.247541932e-05
2.252014785e-05
2.257882844e-05
2.264792006e-05
2.271794346e-05
2.27889112e-05
2.286083603e-05
2.293353677e-05
2.30070461e-05
2.308154679e-05
2.31570522e-05
2.323357589e-05
2.33323521e-05
2.343854129e-05
2.354616256e-05
2.365523524e-05
2.37656074e-05
2.387708294e-05
2.399006186e-05
2.410456443e-05
2.422293609e-05
2.437283533e-05
2.452475614e-05
2.467872577e-05
2.483472238e-05
2.499208396e-05
2.515156774e-05
2.531320235e-05
2.548606992e-05
2.569018937e-05
2.58970616e-05
2.610672374e-05
2.631857313e-05
2.653285413e-05
2.675002496e-05
2.697532396e-05
2.724307484e-05
2.751443664e-05
2.778945808e-05
2.806709185e-05
2.834817201e-05
2.863304285e-05
2.895226521e-05
2.929763587e-05
2.964766425e-05
3.000150221e-05
3.035924171e-05
3.072180574e-05
3.112284139e-05
3.155710105e-05
3.199721721e-05
3.244171379e-05
3.289152571e-05
3.334740385e-05
3.387688898e-05
3.441803474e-05
3.496571915e-05
3.551878636e-05
3.607931231e-05
3.670580225e-05
3.736669796e-05
3.803584261e-05
3.871129785e-05
3.939586238e-05
4.016569632e-05
4.09687235e-05
4.178087008e-05
4.260158796e-05
4.344826492e-05
4.440725611e-05
4.53791804e-05
4.63597511e-05
4.735308691e-05
4.845979929e-05
4.961703022e-05
5.078616402e-05
5.19688888e-05
5.325804277e-05
5.46327689e-05
5.60220781e-05
5.742708949e-05
5.896323479e-05
6.05934951e-05
6.224000268e-05
6.390617766e-05
6.577292572e-05
6.770367486e-05
6.96507487e-05
7.167516474e-05
7.392913413e-05
7.620832246e-05
7.851194675e-05
8.106338691e-05
8.372749415e-05
8.641479398e-05
8.927688835e-05
9.238390155e-05
9.552041905e-05
9.877547279e-05
0.0001023966528
0.0001060548617
0.0001098077698
0.0001140270729
0.0001182902114
0.0001226740611
0.00012758937
0.0001325539683
0.000137736833
0.0001434622217
0.0001492401676
0.0001554333062
0.0001620979946
0.0001688225567
0.0001762902558
0.0001840386816
0.0001920182146
0.0002009414696
0.0002099456429
0.000219757974
0.000230129044
0.0002407903277
0.000252726194
0.0002647667268
0.0002780821024
0.0002919369769
0.0003066416515
0.0003225758095
0.000338903997
0.0003572187869
0.0003756882738
0.0003964711444
0.0004176857268
0.0004410828129
0.0004654331515
0.000491904837
0.0005198315225
0.0005499254985
0.0005819241846
0.000616289236
0.0006529154831
0.0006923162581
0.0007341902307
0.0007795226445
0.0008273334966
0.0008796438199
0.0009341587039
0.000994668713
0.00105683822
0.001126820959
0.001199203369
0.001278617404
0.00136295114
0.001452883186
0.001551091476
0.001653217524
0.001766811673
0.001886005915
0.00201378675
0.002152682585
0.002298007221
0.002457162482
0.002626360277
0.002803996246
0.003000035949
0.0032061895
0.003423937859
0.003662084452
0.003912766237
0.004176767032
0.004465010152
0.004768687868
0.005088424952
0.005432485818
0.005798422514
0.006183463414
0.006590048537
0.007027798099
0.007488801615
0.00797363654
0.008485010341
0.009032381397
0.009608249206
0.01021320081
0.01084923516
0.01152254596
0.01223446254
0.01298197888
0.01376577898
0.01458800872
0.01545025102
0.01636142414
0.01731540011
0.01831323831
0.01935558443
0.0204435253
0.02157840195
0.02276105621
0.02399316915
0.02527678581
0.02660772598
0.02798332575
0.02940025488
0.03085235678
0.0323296546
0.03381721514
0.03529311939
0.03672934158
0.03809028414
0.03933214909
0.04040586908
0.04126147032
0.04185441216
0.0421532243
0.04214562352
0.04184344774
0.04128199773
0.04051361435
0.03958716362
0.0385682658
0.03750496613
0.03644186111
0.03540504287
0.03441109086
0.03347001826
0.03258563607
0.03175888816
0.0309891982
0.03027489
0.02961325642
0.02900564541
0.02844386544
0.02792264185
0.02743847158
0.02698752815
0.02657010809
0.02618241498
0.02581909214
0.02547779525
0.02515722
0.0248562485
0.02457138257
0.02430074632
0.02404437444
0.02380057718
0.02356751021
0.02334376107
0.02312866211
0.02292059037
0.02271928267
0.02252454839
0.02233486527
0.02215033867
0.02197083624
0.02179560679
0.02162456481
0.02145675981
0.02129214368
0.02113085569
0.0209723583
0.02081692412
0.02066367361
0.02051278168
0.02036402146
0.02021742585
0.02007288039
0.0199301927
0.01978918391
0.01964980119
0.01951206286
0.01937596881
0.01924148256
0.01910864737
0.01897731472
0.01884758658
0.0187192573
0.01859242165
0.01846684895
0.01834249753
0.01821925383
0.01809702983
0.01797596383
0.01785595501
0.01773702705
0.01761927854
0.0175026327
0.01738709325
0.01727268602
0.01715936511
0.01704714841
0.01693618125
0.01682641095
0.01671788825
0.01661075904
0.01650499999
0.01640070054
0.01629781505
0.01619648696
0.01609656734
0.01599809656
0.01590101061
0.01580534765
0.01571103576
0.01561799124
0.01552625231
0.01543576849
0.01534652752
0.01525847604
0.01517148412
0.01508545827
0.01500028191
0.01491576256
0.01483168903
0.01474779612
0.01466384554
0.01457983735
0.01449581447
0.01441182709
0.01432794353
0.01424423201
0.01416076804
0.01407765351
0.01399501245
0.01391299676
0.01383177465
0.01375141102
0.01367191167
0.01359328173
0.0135155226
0.01343863096
0.01336259739
0.0132874047
0.01321302549
0.01313941921
0.01306652803
0.01299427306
0.0129225969
0.01285151395
0.01278104462
0.01271121051
0.01264203491
0.01257354341
0.01250577685
0.01243875793
0.01237252479
0.01230712486
0.01224261684
0.01217909408
0.01211665067
0.01205536011
0.01199523529
0.01193628666
0.0118785118
0.01182189892
0.01176644543
0.01171218006
0.01165904929
0.01160703399
0.01155612717
0.0115062703
0.01145741829
0.01140951536
0.01136241556
0.01131597326
0.01126995533
0.01122405245
0.01117813302
0.01113219878
0.01108627922
0.01104036317
0.01099446161
0.01094858073
0.01090274481
0.0108569547
0.01081121739
0.0107655415
0.01071995651
0.01067446309
0.01062908156
0.01058382815
0.01053875261
0.01049387352
0.01044925505
0.01040498433
0.01036117146
0.01031793058
0.01027524938
0.01023314282
0.01019162798
0.01015069825
0.01011036727
0.01007064479
0.01003152836
0.009993027869
0.009955153852
0.009917901957
0.009881276859
0.00984529717
0.009809949978
0.009775235192
0.00974118282
0.009707767128
0.009674994409
0.009642872493
0.009611391094
0.009580549242
0.009550325899
0.009520690341
0.009491612873
0.009463039743
0.009434977789
0.009407427902
0.009380387154
0.009353873243
0.00932787227
0.009302394735
0.009277435566
0.009252994799
0.009229080348
0.009205679557
0.009182812191
0.009160456825
0.009138624759
0.009117308109
0.009096506119
0.009076221282
0.009056441466
0.009037178787
0.009018412292
0.009000159948
0.008982396535
0.008965134712
0.008948357255
0.008932069065
0.008916258979
0.00890092517
0.008886061534
0.008871660599
0.008857720296
0.008844228608
0.008831186474
0.008818578434
0.008806407433
0.008794655631
0.008783327026
0.008772402416
0.008761885957
0.008751758038
0.008742022156
0.008732659165
0.008723671181
0.008715040292
0.008706766613
0.008698834144
0.008691240482
0.008683972107
0.008677023697
0.008670384678
0.008664046558
0.008658002202
0.008652240214
0.008646758797
0.00864154867
0.008636633551
0.008632066665
0.008628148425
0.00862577364
0.00862577364
0.00862577364
0.00862577364
0.00862577364
)
;

boundaryField
{
    bottom
    {
        type            calculated;
        value           uniform 2.181206257e-05;
    }
    top
    {
        type            calculated;
        value           uniform 0.00862577364;
    }
    frontAndBack
    {
        type            empty;
    }
}


// ************************************************************************* //
