/*--------------------------------*- C++ -*----------------------------------*\
| =========                 |                                                 |
| \\      /  F ield         | OpenFOAM: The Open Source CFD Toolbox           |
|  \\    /   O peration     | Version:  v2006                                 |
|   \\  /    A nd           | Website:  www.openfoam.com                      |
|    \\/     M anipulation  |                                                 |
\*---------------------------------------------------------------------------*/
FoamFile
{
    version     2.0;
    format      ascii;
    class       volScalarField;
    location    "0.03302";
    object      CO2;
}
// * * * * * * * * * * * * * * * * * * * * * * * * * * * * * * * * * * * * * //

dimensions      [0 0 0 0 0 0 0];


internalField   nonuniform List<scalar> 
500
(
3.374328478e-05
3.374328478e-05
3.374328478e-05
3.374328478e-05
3.374328478e-05
3.374328478e-05
3.374328478e-05
3.374328478e-05
3.376657209e-05
3.379110779e-05
3.381597439e-05
3.384117634e-05
3.386671816e-05
3.389260445e-05
3.391882485e-05
3.394528141e-05
3.397209477e-05
3.399926974e-05
3.402681119e-05
3.405472407e-05
3.408301339e-05
3.413562555e-05
3.419454044e-05
3.425424988e-05
3.431476456e-05
3.437609535e-05
3.443825317e-05
3.450093508e-05
3.456446232e-05
3.462884631e-05
3.469409859e-05
3.476023086e-05
3.484784508e-05
3.495147879e-05
3.505651012e-05
3.516295792e-05
3.527084129e-05
3.537988849e-05
3.549014853e-05
3.560189555e-05
3.571514961e-05
3.582993103e-05
3.597896574e-05
3.613938228e-05
3.630196222e-05
3.646673473e-05
3.663347036e-05
3.680187281e-05
3.697254637e-05
3.714552165e-05
3.732441018e-05
3.75518069e-05
3.778227033e-05
3.801584182e-05
3.825248822e-05
3.849120529e-05
3.873314174e-05
3.897834097e-05
3.924077972e-05
3.955126635e-05
3.986594025e-05
4.018485789e-05
4.050710255e-05
4.083304594e-05
4.116338505e-05
4.150617603e-05
4.191420947e-05
4.23277457e-05
4.274685895e-05
4.316995323e-05
4.359829955e-05
4.40324226e-05
4.451929972e-05
4.504632025e-05
4.558044826e-05
4.612038953e-05
4.666628438e-05
4.721954124e-05
4.783185676e-05
4.849516754e-05
4.916742382e-05
4.9846371e-05
5.053343709e-05
5.122976905e-05
5.203909657e-05
5.286628057e-05
5.370345943e-05
5.45488663e-05
5.540567445e-05
5.636370474e-05
5.737450596e-05
5.839792345e-05
5.943099264e-05
6.047799394e-05
6.165581801e-05
6.288453719e-05
6.412721003e-05
6.538299792e-05
6.667857021e-05
6.814643146e-05
6.963408851e-05
7.113498001e-05
7.265541018e-05
7.43497245e-05
7.612149209e-05
7.791148346e-05
7.972228316e-05
8.169628238e-05
8.380148942e-05
8.592902848e-05
8.80806133e-05
9.043326322e-05
9.293020532e-05
9.545203208e-05
9.800398187e-05
0.0001008634543
0.0001038210264
0.0001068036051
0.0001099047325
0.0001133577891
0.0001168494808
0.0001203786082
0.0001242876384
0.0001283693683
0.0001324866319
0.0001368718307
0.0001416324681
0.0001464383127
0.0001514258407
0.0001569745971
0.0001625800932
0.0001683307286
0.0001747962729
0.0001813289895
0.0001880467149
0.0001955790605
0.0002031869384
0.0002111293545
0.0002199033301
0.0002287578481
0.0002382487403
0.0002484623889
0.000258767794
0.000270212218
0.0002820869064
0.0002943158023
0.0003079911436
0.0003217904964
0.0003368285003
0.0003527228707
0.0003690620361
0.0003873547276
0.0004058078289
0.0004262148423
0.0004474487228
0.0004699850558
0.0004944057702
0.0005194303901
0.000547499792
0.0005758062837
0.0006076583914
0.0006401721572
0.0006760309359
0.0007133507125
0.0007539217634
0.0007967228125
0.0008428455463
0.0008918875214
0.0009445562878
0.001000690658
0.001061077383
0.001125254631
0.001194732424
0.00126800877
0.001348181413
0.001431732953
0.0015244733
0.001619757148
0.001727015959
0.001837952627
0.001959666323
0.002088920199
0.002226754329
0.002377273047
0.002533796322
0.002707896262
0.002890579323
0.003086422852
0.00329930182
0.003522033906
0.00376596354
0.004025284928
0.004297539137
0.004597999994
0.004913961874
0.005247694576
0.005612691173
0.005996900128
0.006401522781
0.006843300301
0.007308733174
0.007798778717
0.008326101865
0.008886947505
0.00947707183
0.01010021737
0.01077112907
0.01147768176
0.01222075931
0.01300450962
0.01384342833
0.01472602135
0.01565319019
0.01662800006
0.01765994423
0.01875106414
0.01989676353
0.02109810911
0.02235841898
0.02368016414
0.02507712815
0.02653999483
0.02807052434
0.02966998966
0.03134038119
0.03308417627
0.03490342375
0.0368019239
0.03878523593
0.04084903276
0.04299495154
0.04522418282
0.04753715675
0.04993339091
0.05241116392
0.05496661976
0.05759453392
0.06028609416
0.06302935434
0.06580934763
0.068608319
0.07140605821
0.07418104538
0.07691210017
0.07957874447
0.0821622306
0.084646162
0.08701594825
0.08925988655
0.09137050747
0.09334522735
0.09518144086
0.09688119901
0.09845768048
0.0999173928
0.1012671355
0.1025135273
0.1036642041
0.1047263195
0.105696845
0.1065923987
0.1074212547
0.1081899226
0.1089051613
0.1095661799
0.1101798201
0.1107540061
0.1112930446
0.1117991263
0.1122739138
0.1127232945
0.1131498925
0.1135535986
0.1139374795
0.1143044617
0.1146565344
0.1149949482
0.1153223062
0.1156390161
0.1159452573
0.1162434833
0.1165336022
0.1168158218
0.1170913232
0.1173601458
0.1176238711
0.1178825847
0.1181360677
0.1183851651
0.1186294244
0.1188702332
0.1191073359
0.1193410889
0.1195714406
0.1197985709
0.1200227727
0.1202443322
0.1204633365
0.1206797572
0.1208935944
0.1211049053
0.1213136205
0.1215199717
0.1217238018
0.121925434
0.1221247195
0.1223220205
0.1225174027
0.1227110439
0.1229030823
0.1230933013
0.1232818592
0.123468719
0.1236537254
0.1238369995
0.1240185351
0.1241982914
0.1243763408
0.1245526554
0.1247270066
0.1248994774
0.1250699879
0.125238309
0.1254044773
0.1255683521
0.1257300054
0.1258892115
0.1260462049
0.1262009217
0.1263534628
0.1265037679
0.1266519504
0.1267981415
0.1269422811
0.1270844489
0.1272246638
0.1273630098
0.127499691
0.1276348544
0.127768683
0.1279014793
0.1280335752
0.1281653872
0.1282972899
0.128429283
0.1285612993
0.1286932598
0.1288250571
0.1289565842
0.1290877223
0.1292183114
0.1293481565
0.1294770191
0.1296046347
0.1297309016
0.1298558105
0.1299793534
0.1301015281
0.1302223397
0.1303418033
0.1304599455
0.1305768098
0.1306924595
0.1308069857
0.1309205123
0.1310331294
0.1311448145
0.1312555354
0.1313652584
0.1314739466
0.13158156
0.1316880344
0.1317933341
0.1318973992
0.1320001552
0.1321015097
0.1322013163
0.132299427
0.1323957263
0.132490194
0.1325828136
0.1326735892
0.132762539
0.1328496671
0.1329349285
0.1330184072
0.1331001333
0.1331801177
0.1332584525
0.1333352084
0.1334104732
0.1334844761
0.1335574459
0.133629749
0.1337018713
0.1337740195
0.1338461911
0.1339183395
0.1339904825
0.1340626027
0.1341346904
0.1342067075
0.1342786525
0.1343505147
0.1344222803
0.1344939031
0.134565382
0.1346366851
0.1347077869
0.1347786093
0.134849123
0.1349192272
0.1349887851
0.1350576235
0.1351255633
0.1351926237
0.1352587813
0.135324009
0.1353883176
0.1354516853
0.135514097
0.1355755564
0.1356360481
0.1356955556
0.1357540855
0.1358116306
0.1358681616
0.1359236989
0.1359782425
0.1360317454
0.1360842478
0.1361357401
0.1361862098
0.1362356732
0.1362841317
0.1363316184
0.1363781816
0.1364238679
0.1364687617
0.1365128525
0.1365561386
0.1365986248
0.1366402833
0.1366811358
0.1367211659
0.1367603816
0.1367987827
0.136836357
0.1368731241
0.1369090531
0.1369441777
0.13697848
0.1370119726
0.1370446565
0.1370765279
0.1371076058
0.1371378711
0.1371673569
0.1371960349
0.1372239446
0.1372510662
0.1372774269
0.1373030187
0.1373278594
0.1373519517
0.1373753054
0.137397932
0.1374198349
0.1374410329
0.1374615247
0.1374813343
0.1375004573
0.1375189216
0.1375367211
0.1375538857
0.1375704091
0.137586322
0.137601619
0.13761633
0.1376304518
0.1376440127
0.1376570121
0.1376694756
0.1376814067
0.1376928268
0.137703744
0.1377141752
0.1377241336
0.1377336304
0.1377426837
0.137751296
0.1377594821
0.1377672047
0.1377743802
0.1377805365
0.1377842677
0.1377842677
0.1377842677
0.1377842677
0.1377842677
)
;

boundaryField
{
    bottom
    {
        type            calculated;
        value           uniform 3.374328478e-05;
    }
    top
    {
        type            calculated;
        value           uniform 0.1377842677;
    }
    frontAndBack
    {
        type            empty;
    }
}


// ************************************************************************* //
