/*--------------------------------*- C++ -*----------------------------------*\
| =========                 |                                                 |
| \\      /  F ield         | OpenFOAM: The Open Source CFD Toolbox           |
|  \\    /   O peration     | Version:  v2006                                 |
|   \\  /    A nd           | Website:  www.openfoam.com                      |
|    \\/     M anipulation  |                                                 |
\*---------------------------------------------------------------------------*/
FoamFile
{
    version     2.0;
    format      ascii;
    class       volScalarField;
    location    "0.03302";
    object      H;
}
// * * * * * * * * * * * * * * * * * * * * * * * * * * * * * * * * * * * * * //

dimensions      [0 0 0 0 0 0 0];


internalField   nonuniform List<scalar> 
500
(
2.539118483e-19
2.548305393e-19
2.5576162e-19
2.567052574e-19
2.576616208e-19
2.586308818e-19
2.596132144e-19
2.60608795e-19
2.617486953e-19
2.629092202e-19
2.640853961e-19
2.652774341e-19
2.664855481e-19
2.677099548e-19
2.68950165e-19
2.702015455e-19
2.714698022e-19
2.727551629e-19
2.740578581e-19
2.753781217e-19
2.767161905e-19
2.782108676e-19
2.797580734e-19
2.813261451e-19
2.82915364e-19
2.845260153e-19
2.861583856e-19
2.878045196e-19
2.894728536e-19
2.911636869e-19
2.928773231e-19
2.946140697e-19
2.965085199e-19
2.985252871e-19
3.005692527e-19
3.026407835e-19
3.047402513e-19
3.068623679e-19
3.090080869e-19
3.111827434e-19
3.133867277e-19
3.156204352e-19
3.181183102e-19
3.207169385e-19
3.233506122e-19
3.260198041e-19
3.287207968e-19
3.314487909e-19
3.342135752e-19
3.370156458e-19
3.398830711e-19
3.431440517e-19
3.464490105e-19
3.497985403e-19
3.531921659e-19
3.566154859e-19
3.600849733e-19
3.636012508e-19
3.672786196e-19
3.713687063e-19
3.755139525e-19
3.797151021e-19
3.839600791e-19
3.8825378e-19
3.926053864e-19
3.970840048e-19
4.021409588e-19
4.072661117e-19
4.124603831e-19
4.177039934e-19
4.230126947e-19
4.283929899e-19
4.342615861e-19
4.405069744e-19
4.468365888e-19
4.532350926e-19
4.597041485e-19
4.66260447e-19
4.733761867e-19
4.809780324e-19
4.886823977e-19
4.964634438e-19
5.043375363e-19
5.123178199e-19
5.213739296e-19
5.306170433e-19
5.399718413e-19
5.494185809e-19
5.589927205e-19
5.695497169e-19
5.80628514e-19
5.918455906e-19
6.031684537e-19
6.146440186e-19
6.274021235e-19
6.406706195e-19
6.540897961e-19
6.676505972e-19
6.816177072e-19
6.972870559e-19
7.131677239e-19
7.291896688e-19
7.454201883e-19
7.633835576e-19
7.821281585e-19
8.010655597e-19
8.202231049e-19
8.410191e-19
8.631356122e-19
8.854867361e-19
9.080904758e-19
9.327201367e-19
9.588079886e-19
9.851558334e-19
1.011818401e-18
1.041585402e-18
1.072352214e-18
1.103379163e-18
1.135614663e-18
1.171413232e-18
1.20761234e-18
1.244199551e-18
1.284642382e-18
1.326844326e-18
1.369413663e-18
1.414711216e-18
1.463827368e-18
1.513409929e-18
1.564847791e-18
1.621998134e-18
1.679732877e-18
1.738952586e-18
1.805456098e-18
1.872650534e-18
1.941737089e-18
2.019130962e-18
2.09730092e-18
2.178889052e-18
2.268964226e-18
2.359866262e-18
2.457268788e-18
2.562053436e-18
2.667779439e-18
2.785141445e-18
2.90690214e-18
3.032285884e-18
3.172450677e-18
3.31388652e-18
3.467984699e-18
3.630838486e-18
3.798242662e-18
3.985619547e-18
4.174639552e-18
4.383640218e-18
4.601098307e-18
4.831878244e-18
5.081930836e-18
5.338162456e-18
5.625536834e-18
5.915338536e-18
6.241408781e-18
6.57424918e-18
6.941308897e-18
7.323315782e-18
7.738585102e-18
8.176669226e-18
8.648737687e-18
9.150673282e-18
9.689716e-18
1.026421674e-17
1.088222602e-17
1.153901871e-17
1.22500456e-17
1.299993894e-17
1.916235867e-17
2.771771105e-17
4.678056169e-17
6.805855233e-17
9.200649412e-17
1.167747478e-16
1.439462277e-16
1.727993833e-16
2.035661495e-16
2.371620313e-16
2.74738586e-16
3.694471005e-16
5.602337625e-16
9.07154353e-16
1.284230944e-15
1.678750452e-15
2.110795367e-15
3.277139546e-15
5.045358156e-15
9.20530933e-15
1.358977019e-14
1.822075309e-14
4.10522658e-14
7.382109857e-14
1.171169289e-13
2.404847151e-13
5.171535577e-13
1.020697752e-12
2.220425378e-12
5.055668292e-12
1.186232388e-11
2.528115158e-11
4.811381427e-11
1.215815376e-10
2.723964036e-10
5.382881256e-10
1.130313721e-09
2.19675926e-09
4.064870497e-09
7.196196756e-09
1.287625095e-08
2.24252723e-08
3.671429323e-08
5.722039968e-08
8.571191131e-08
1.24202103e-07
1.771555453e-07
2.450633557e-07
3.320744584e-07
4.484458508e-07
6.070820851e-07
8.261704473e-07
1.138455177e-06
1.595764318e-06
2.293366337e-06
3.301522653e-06
4.807784205e-06
6.989438783e-06
1.010224314e-05
1.449066083e-05
2.058250656e-05
2.887873321e-05
3.98669218e-05
5.394012787e-05
7.134505373e-05
9.204010695e-05
0.0001155967278
0.0001411726927
0.0001675891288
0.000193533235
0.0002177914173
0.0002394642978
0.0002580772521
0.0002733314823
0.0002854301517
0.0002945475795
0.0003011660689
0.0003054977513
0.0003077169595
0.0003083803658
0.0003077578998
0.0003060534332
0.0003034073631
0.0003000761373
0.0002963332718
0.0002916616052
0.0002867427616
0.0002814522069
0.0002760165349
0.0002706387737
0.0002650170793
0.0002595658193
0.0002537557144
0.00024802842
0.000242468476
0.0002369761102
0.0002317776519
0.0002264555765
0.0002209478675
0.0002156829633
0.0002106470772
0.0002055999186
0.0002007052865
0.0001959705606
0.0001913864125
0.0001868842585
0.0001824607023
0.0001781574
0.000173971265
0.0001698847794
0.0001659888448
0.0001621761103
0.000158435831
0.0001547711709
0.000151169917
0.0001477780427
0.0001445454329
0.0001413625743
0.0001382246812
0.0001351324475
0.0001320834592
0.000129259535
0.0001265588667
0.0001238893417
0.0001212513109
0.0001186447722
0.0001160690267
0.0001136175349
0.0001114033796
0.0001092162752
0.0001070527542
0.0001049144147
0.0001027973673
0.0001007009097
9.871159006e-05
9.685556317e-05
9.501712113e-05
9.319473282e-05
9.138875787e-05
8.960069358e-05
8.782937351e-05
8.609838654e-05
8.455185937e-05
8.302931966e-05
8.152161576e-05
8.003070015e-05
7.85558653e-05
7.709779268e-05
7.565844256e-05
7.427480251e-05
7.303523249e-05
7.182715639e-05
7.063736711e-05
6.946411594e-05
6.830787711e-05
6.716789881e-05
6.604462928e-05
6.493722377e-05
6.387721454e-05
6.29249665e-05
6.198635831e-05
6.106064262e-05
6.014726562e-05
5.924487974e-05
5.835251504e-05
5.746896239e-05
5.659222495e-05
5.572011215e-05
5.486665019e-05
5.40723707e-05
5.327894761e-05
5.248538568e-05
5.169215914e-05
5.089991314e-05
5.010929186e-05
4.932100872e-05
4.853602588e-05
4.775551469e-05
4.69827593e-05
4.628291676e-05
4.562374117e-05
4.497165472e-05
4.432669954e-05
4.368888713e-05
4.305819016e-05
4.243453156e-05
4.181777004e-05
4.120768114e-05
4.060393212e-05
4.000604858e-05
3.942886074e-05
3.890940492e-05
3.839424819e-05
3.78835385e-05
3.737743249e-05
3.687609889e-05
3.637972307e-05
3.588860113e-05
3.540289744e-05
3.492288866e-05
3.444891823e-05
3.398141171e-05
3.352104571e-05
3.308436249e-05
3.269773844e-05
3.231846794e-05
3.19466169e-05
3.158217e-05
3.122505298e-05
3.087524947e-05
3.053294066e-05
3.019778892e-05
2.986967376e-05
2.954855082e-05
2.923405107e-05
2.892589003e-05
2.86237158e-05
2.832660782e-05
2.80336473e-05
2.774336383e-05
2.747664248e-05
2.721920583e-05
2.696168613e-05
2.670424876e-05
2.644683105e-05
2.618949456e-05
2.593227407e-05
2.567530557e-05
2.541859392e-05
2.516217828e-05
2.490610696e-05
2.465054531e-05
2.439549689e-05
2.41410759e-05
2.388737313e-05
2.363466754e-05
2.33830633e-05
2.313292019e-05
2.28847266e-05
2.26532069e-05
2.244378465e-05
2.223707527e-05
2.203314893e-05
2.183208835e-05
2.163386148e-05
2.143853443e-05
2.124615441e-05
2.10567096e-05
2.087024781e-05
2.06868201e-05
2.050640538e-05
2.032902631e-05
2.015477302e-05
1.998358298e-05
1.981545574e-05
1.965053664e-05
1.948870105e-05
1.932997944e-05
1.917440975e-05
1.902194212e-05
1.887257189e-05
1.872619718e-05
1.858266915e-05
1.844917809e-05
1.83296731e-05
1.821230607e-05
1.809708071e-05
1.798398479e-05
1.787309233e-05
1.77643452e-05
1.76577873e-05
1.755339743e-05
1.745117575e-05
1.735115533e-05
1.725328326e-05
1.71576422e-05
1.706414255e-05
1.697283155e-05
1.688367625e-05
1.679667348e-05
1.671183365e-05
1.662910604e-05
1.654854132e-05
1.647005186e-05
1.639371278e-05
1.631941862e-05
1.624722234e-05
1.617705187e-05
1.610892772e-05
1.604280321e-05
1.59786707e-05
1.591650465e-05
1.585627381e-05
1.579796953e-05
1.574154155e-05
1.568699379e-05
1.56342616e-05
1.55833573e-05
1.553420626e-05
1.548682521e-05
1.544113384e-05
1.539714953e-05
1.535479026e-05
1.531407067e-05
1.527491065e-05
1.523731907e-05
1.520122102e-05
1.516661697e-05
1.513344001e-05
1.510168009e-05
1.507128065e-05
1.504221944e-05
1.501445224e-05
1.498794352e-05
1.496266345e-05
1.493856437e-05
1.491563875e-05
1.489384778e-05
1.487329066e-05
1.485419e-05
1.483780226e-05
1.482786989e-05
1.482786989e-05
1.482786989e-05
1.482786989e-05
1.482786989e-05
)
;

boundaryField
{
    bottom
    {
        type            calculated;
        value           uniform 2.534555794e-19;
    }
    top
    {
        type            calculated;
        value           uniform 1.482786989e-05;
    }
    frontAndBack
    {
        type            empty;
    }
}


// ************************************************************************* //
