/*--------------------------------*- C++ -*----------------------------------*\
| =========                 |                                                 |
| \\      /  F ield         | OpenFOAM: The Open Source CFD Toolbox           |
|  \\    /   O peration     | Version:  v2006                                 |
|   \\  /    A nd           | Website:  www.openfoam.com                      |
|    \\/     M anipulation  |                                                 |
\*---------------------------------------------------------------------------*/
FoamFile
{
    version     2.0;
    format      ascii;
    class       volScalarField;
    location    "0.03302";
    object      H2;
}
// * * * * * * * * * * * * * * * * * * * * * * * * * * * * * * * * * * * * * //

dimensions      [0 0 0 0 0 0 0];


internalField   nonuniform List<scalar> 
500
(
7.856944801e-07
7.857198977e-07
7.85745658e-07
7.857717658e-07
7.857982256e-07
7.858250423e-07
7.858522206e-07
7.858797654e-07
7.864501709e-07
7.870500347e-07
7.876579884e-07
7.882741411e-07
7.888986032e-07
7.89531487e-07
7.901725393e-07
7.908193655e-07
7.914749149e-07
7.921393051e-07
7.928126553e-07
7.934950865e-07
7.94186721e-07
7.954457824e-07
7.968522075e-07
7.982775999e-07
7.997222153e-07
8.01186313e-07
8.026701535e-07
8.041665053e-07
8.056830371e-07
8.072200211e-07
8.087777331e-07
8.103564525e-07
8.124366622e-07
8.148909744e-07
8.173783858e-07
8.198993428e-07
8.224542977e-07
8.250368152e-07
8.276480558e-07
8.30294512e-07
8.329766587e-07
8.356949772e-07
8.392130406e-07
8.429972161e-07
8.468324255e-07
8.507193571e-07
8.546525977e-07
8.586251584e-07
8.626512937e-07
8.66731726e-07
8.709507618e-07
8.763026468e-07
8.817267081e-07
8.872239191e-07
8.927934996e-07
8.984118141e-07
9.041058981e-07
9.098767733e-07
9.160508105e-07
9.233474064e-07
9.307424053e-07
9.382371343e-07
9.4581005e-07
9.534698879e-07
9.612330274e-07
9.692876549e-07
9.788668785e-07
9.885752889e-07
9.984146284e-07
1.008347429e-06
1.018403529e-06
1.028595247e-06
1.040020232e-06
1.052383841e-06
1.064914187e-06
1.077580909e-06
1.090387298e-06
1.103366397e-06
1.117726438e-06
1.133278978e-06
1.149041262e-06
1.164960426e-06
1.181069952e-06
1.197396735e-06
1.216365644e-06
1.235752648e-06
1.255373904e-06
1.275188003e-06
1.295269318e-06
1.317717986e-06
1.341401164e-06
1.365379942e-06
1.38958486e-06
1.414116209e-06
1.441707503e-06
1.47048963e-06
1.499598615e-06
1.529014814e-06
1.559362117e-06
1.593739602e-06
1.628580707e-06
1.663731765e-06
1.69934042e-06
1.739017013e-06
1.780505926e-06
1.82242158e-06
1.864824496e-06
1.911045765e-06
1.960337003e-06
2.010151121e-06
2.060528246e-06
2.115609876e-06
2.174067803e-06
2.233108325e-06
2.292854082e-06
2.359795384e-06
2.429032424e-06
2.49885487e-06
2.571451605e-06
2.652283269e-06
2.734019332e-06
2.816631716e-06
2.908133912e-06
3.003677568e-06
3.100052988e-06
3.202698479e-06
3.314129615e-06
3.426618905e-06
3.543360052e-06
3.673234645e-06
3.804437292e-06
3.939036678e-06
4.090366078e-06
4.24326768e-06
4.400499068e-06
4.576794154e-06
4.754857077e-06
4.940749107e-06
5.146101511e-06
5.353338986e-06
5.575469273e-06
5.814513913e-06
6.055706059e-06
6.323554245e-06
6.60147188e-06
6.887679087e-06
7.207737095e-06
7.53069747e-06
7.882645875e-06
8.254635792e-06
8.637035345e-06
9.065153169e-06
9.497025188e-06
9.974624675e-06
1.047157544e-05
1.099900767e-05
1.157054026e-05
1.215620623e-05
1.28131296e-05
1.347560171e-05
1.422105246e-05
1.498198817e-05
1.582120789e-05
1.669461968e-05
1.764412177e-05
1.864581303e-05
1.972524248e-05
2.087299167e-05
2.210561958e-05
2.341935391e-05
2.483260724e-05
2.633457122e-05
2.796058532e-05
2.967549801e-05
3.155180051e-05
3.350717758e-05
3.567759101e-05
3.790752825e-05
4.041771629e-05
4.301397745e-05
4.586245407e-05
4.888739405e-05
5.211313829e-05
5.563574081e-05
5.929886827e-05
6.337334151e-05
6.764868242e-05
7.223201259e-05
7.721402343e-05
8.242662699e-05
8.813531715e-05
9.420421984e-05
0.0001005757888
0.0001076074753
0.0001150019323
0.00012281228
0.0001313542847
0.0001403459096
0.0001498152693
0.0001601541706
0.000171046693
0.0001825152469
0.0001948562714
0.000207981973
0.0002217929247
0.0002363766391
0.0002520781808
0.0002686138269
0.000286004298
0.0003043467189
0.0003239803933
0.0003446363045
0.0003663355546
0.0003891499074
0.0004133017069
0.0004388387753
0.0004656533101
0.0004937698701
0.0005232653254
0.0005541961297
0.0005868808861
0.0006210980445
0.0006568830608
0.0006942536027
0.000733241627
0.0007738850211
0.0008161954017
0.0008602016203
0.0009059122337
0.0009531185428
0.001001569646
0.001050974211
0.001100847044
0.001150444781
0.001198705572
0.001244162563
0.001285063508
0.001319422567
0.00134509631
0.001360125645
0.001363115214
0.001353617459
0.001332428755
0.001301610046
0.001264283859
0.001224066052
0.001184315953
0.001147893811
0.001116462409
0.00109095642
0.00107096967
0.0010561411
0.001045785011
0.001038365395
0.001033014439
0.001029002871
0.001025669267
0.001022460774
0.001019223566
0.00101518123
0.001010715598
0.001005633983
0.001000116748
0.0009944495886
0.0009879417888
0.0009814170885
0.0009738183191
0.0009661101951
0.0009583516177
0.0009502844922
0.0009426490548
0.0009343176846
0.0009251152175
0.0009162872722
0.0009078344044
0.0008986615778
0.0008896314139
0.0008808962628
0.0008724128271
0.0008635527819
0.0008545538816
0.0008457996156
0.000837283705
0.0008289705123
0.0008203330823
0.0008118058137
0.0008034405931
0.0007952444966
0.0007871902095
0.0007792193599
0.0007713028212
0.0007635081213
0.0007558235402
0.0007482507772
0.0007407839206
0.0007334637763
0.0007262543413
0.0007191280437
0.0007120858196
0.0007051276636
0.0006982517102
0.0006915438729
0.0006851013091
0.0006787374556
0.0006724422231
0.0006662202616
0.0006600602544
0.0006539601574
0.0006479720808
0.0006421097283
0.0006363029185
0.0006305468152
0.0006248425543
0.0006191948651
0.0006136000633
0.0006080818002
0.0006027846755
0.0005975471267
0.0005923606131
0.0005872318515
0.0005821584078
0.0005771426263
0.0005721912504
0.0005673510565
0.0005627379971
0.0005582063217
0.0005537432429
0.0005493422011
0.0005450049751
0.0005407287448
0.0005365151915
0.0005323611467
0.0005283025293
0.0005244140029
0.0005205794218
0.0005167975116
0.0005130660097
0.0005093794109
0.0005057337525
0.0005021240948
0.0004985422799
0.0004949793584
0.0004914310378
0.0004879050261
0.0004843771749
0.0004808487065
0.0004773217292
0.0004737991119
0.0004702837186
0.0004667787216
0.0004632883988
0.0004598179588
0.000456376639
0.0004530697441
0.0004498492181
0.0004466633275
0.0004435122779
0.0004403961259
0.0004373147375
0.0004342677365
0.0004312544324
0.0004282737287
0.0004253239996
0.0004224029275
0.0004195269874
0.0004167414641
0.0004139789944
0.0004112403713
0.000408526435
0.0004058380901
0.0004031763308
0.0004005427448
0.0003979382137
0.0003953642207
0.0003928226078
0.0003903156569
0.0003878469961
0.000385445962
0.0003831572557
0.0003809120804
0.0003787108262
0.0003765534025
0.0003744393696
0.0003723686307
0.0003703422582
0.0003683582537
0.0003664159037
0.0003645149457
0.0003626531951
0.000360828968
0.000359040181
0.0003572813849
0.0003555471405
0.0003538287436
0.0003521372119
0.0003504543419
0.000348770929
0.0003470880543
0.0003454053081
0.0003437230927
0.0003420416359
0.0003403618262
0.0003386836955
0.0003370074998
0.0003353335551
0.0003336629419
0.0003319956838
0.0003303325272
0.0003286740657
0.0003270221228
0.0003253773794
0.0003237421875
0.0003221197395
0.0003205385864
0.0003190112232
0.0003175036333
0.0003160163408
0.0003145499491
0.0003131042244
0.000311679649
0.0003102765671
0.0003088948925
0.0003075349739
0.0003061971837
0.0003048813682
0.0003035876924
0.0003023168138
0.0003010682765
0.0002998420769
0.0002986392754
0.0002974589626
0.000296301361
0.0002951667472
0.0002940547577
0.0002929653584
0.0002918978062
0.0002908510157
0.0002898363314
0.0002888589676
0.0002878990891
0.0002869567261
0.0002860317785
0.0002851248518
0.0002842354706
0.0002833639938
0.0002825102481
0.0002816742347
0.0002808562244
0.0002800557841
0.00027927359
0.0002785089092
0.0002777621282
0.0002770329774
0.0002763214309
0.0002756275741
0.0002749509917
0.0002742920984
0.0002736501774
0.0002730258434
0.0002724182335
0.0002718277809
0.0002712538964
0.0002706967476
0.0002701559526
0.000269631449
0.000269123028
0.0002686304341
0.0002681535964
0.0002676921038
0.0002672459886
0.0002668147219
0.0002663984043
0.0002659964258
0.000265608923
0.0002652352391
0.0002648755164
0.0002645290839
0.0002641960613
0.0002638757937
0.0002635683535
0.0002632731279
0.000262990121
0.0002627187854
0.0002624590389
0.0002622104191
0.0002619727439
0.0002617456517
0.0002615288519
0.0002613221005
0.0002611250077
0.000260937512
0.0002607592961
0.000260591171
0.0002604349574
0.0002603009314
0.0002602197002
0.0002602197002
0.0002602197002
0.0002602197002
0.0002602197002
)
;

boundaryField
{
    bottom
    {
        type            calculated;
        value           uniform 7.856818565e-07;
    }
    top
    {
        type            calculated;
        value           uniform 0.0002602197002;
    }
    frontAndBack
    {
        type            empty;
    }
}


// ************************************************************************* //
