/*--------------------------------*- C++ -*----------------------------------*\
| =========                 |                                                 |
| \\      /  F ield         | OpenFOAM: The Open Source CFD Toolbox           |
|  \\    /   O peration     | Version:  v2006                                 |
|   \\  /    A nd           | Website:  www.openfoam.com                      |
|    \\/     M anipulation  |                                                 |
\*---------------------------------------------------------------------------*/
FoamFile
{
    version     2.0;
    format      ascii;
    class       volScalarField;
    location    "0.03302";
    object      H2O;
}
// * * * * * * * * * * * * * * * * * * * * * * * * * * * * * * * * * * * * * //

dimensions      [0 0 0 0 0 0 0];


internalField   nonuniform List<scalar> 
500
(
5.064657299e-05
5.064810616e-05
5.064966001e-05
5.065123481e-05
5.065283085e-05
5.065444842e-05
5.06560878e-05
5.065774929e-05
5.06944008e-05
5.073294957e-05
5.077201822e-05
5.081161375e-05
5.085174328e-05
5.0892414e-05
5.093360965e-05
5.097517634e-05
5.101730361e-05
5.105999901e-05
5.110327021e-05
5.114712497e-05
5.119157116e-05
5.127258891e-05
5.136310313e-05
5.145483805e-05
5.154781011e-05
5.164203601e-05
5.17375325e-05
5.183383419e-05
5.193143463e-05
5.203035131e-05
5.2130602e-05
5.223220469e-05
5.23661279e-05
5.252416108e-05
5.268432552e-05
5.284664997e-05
5.301116354e-05
5.317745186e-05
5.334558967e-05
5.351599501e-05
5.368869846e-05
5.386373101e-05
5.409030594e-05
5.433402987e-05
5.45810407e-05
5.483138275e-05
5.508470738e-05
5.534056447e-05
5.559987208e-05
5.586267676e-05
5.613441199e-05
5.647915664e-05
5.682855056e-05
5.718265646e-05
5.754142407e-05
5.790333093e-05
5.827011851e-05
5.864185264e-05
5.903956732e-05
5.95096264e-05
5.998602477e-05
6.046884791e-05
6.095670798e-05
6.145016772e-05
6.195028232e-05
6.24691798e-05
6.308633014e-05
6.371180347e-05
6.434571202e-05
6.498564188e-05
6.563351543e-05
6.629012631e-05
6.702621324e-05
6.782278771e-05
6.86301049e-05
6.944620863e-05
7.027131102e-05
7.110754085e-05
7.203276235e-05
7.303483125e-05
7.405041419e-05
7.507610512e-05
7.611406136e-05
7.716601563e-05
7.838823574e-05
7.963739659e-05
8.090165103e-05
8.21783309e-05
8.347222826e-05
8.49186821e-05
8.644468863e-05
8.798974195e-05
8.954936642e-05
9.11300242e-05
9.290786917e-05
9.476245143e-05
9.663809482e-05
9.853353355e-05
0.0001004889717
0.000102704119
0.0001049491401
0.0001072141334
0.0001095086124
0.0001120652317
0.0001147386367
0.0001174395394
0.0001201718396
0.0001231501953
0.0001263263797
0.0001295362572
0.0001327824131
0.0001363317273
0.0001400986095
0.0001439030326
0.0001477528993
0.0001520664463
0.0001565279289
0.0001610271339
0.0001657051118
0.0001709137466
0.000176180659
0.0001815040399
0.0001874002765
0.0001935569423
0.0001997672053
0.0002063815079
0.0002135619525
0.0002208105828
0.0002283331994
0.0002367021274
0.0002451566333
0.0002538300217
0.0002635814813
0.0002734342514
0.0002835660289
0.0002949262574
0.0003064004031
0.0003183790497
0.0003316117078
0.0003449658375
0.0003592796475
0.0003746834044
0.0003902255441
0.0004074853766
0.0004253940753
0.0004438369463
0.0004644611336
0.0004852723464
0.0005079515219
0.0005319221544
0.0005565635739
0.0005841510378
0.000611980418
0.0006427564345
0.0006747794293
0.0007087666211
0.0007455955996
0.0007833353187
0.0008256667992
0.0008683558349
0.0009163919355
0.000965425873
0.001019504357
0.001075786147
0.001136971122
0.001201519118
0.001271076489
0.001345036319
0.001424465653
0.001509121406
0.00160019007
0.001696975162
0.001801753925
0.001912261227
0.002033168493
0.002159171318
0.002299031187
0.002442726777
0.002604481527
0.002771782767
0.002955336591
0.003150261588
0.003358126268
0.003585120283
0.003821169624
0.004083725782
0.004359225683
0.004654572151
0.004975609305
0.005311505683
0.005679369512
0.006070445015
0.006481023979
0.006934139918
0.007410632475
0.007913924669
0.008464364102
0.009043776624
0.00965397391
0.01032020307
0.01102210588
0.01176112624
0.01255636481
0.01340216032
0.01429211013
0.0152318562
0.01624363415
0.01730915792
0.01842976091
0.01961169915
0.02087682902
0.02220781334
0.02360600442
0.02507601495
0.02663213524
0.02827740862
0.0300048652
0.03181604523
0.03371585304
0.03570787454
0.0378125502
0.04001568611
0.0423196405
0.04472574933
0.04723641893
0.04985470793
0.0525824884
0.05542364881
0.05838316632
0.06145198009
0.06462523996
0.06789734313
0.07125767748
0.0746892756
0.07816743784
0.08165701533
0.08511550965
0.08849121141
0.09172389228
0.09475053009
0.09751169829
0.09995858478
0.1020599783
0.1038058087
0.105208246
0.10629873
0.1071215043
0.1077146668
0.1081335461
0.1084190977
0.1086142633
0.1087448436
0.1088319969
0.1088974611
0.1089516455
0.1090021597
0.1090553977
0.1091147753
0.1091791222
0.1092614768
0.1093509799
0.1094508101
0.1095569145
0.1096642917
0.1097829943
0.1099003991
0.1100324193
0.1101648835
0.1102966454
0.1104314355
0.1105590127
0.1106951877
0.1108423918
0.1109834437
0.1111184634
0.1112619101
0.1114025809
0.1115386561
0.1116707096
0.1118065935
0.1119435455
0.1120767744
0.1122063759
0.1123328923
0.1124620307
0.1125893006
0.112714152
0.1128364791
0.1129566898
0.1130746185
0.1131909236
0.1133054387
0.113418336
0.1135295905
0.1136392891
0.1137459577
0.1138505865
0.1139540087
0.1140562108
0.1141571928
0.1142569819
0.1143540148
0.1144464855
0.1145378265
0.1146281826
0.114717487
0.1148059022
0.1148934574
0.11497911
0.115062571
0.1151452413
0.1152271897
0.1153084
0.1153888049
0.1154684568
0.1155469481
0.1156217859
0.1156957528
0.1157689991
0.1158414297
0.1159130792
0.1159839142
0.1160538397
0.1161220942
0.1161868039
0.1162503304
0.1163128954
0.1163745907
0.1164353914
0.116495337
0.116554404
0.1166126368
0.1166694485
0.1167236387
0.1167770755
0.1168297784
0.1168817787
0.1169331534
0.1169839574
0.1170342599
0.1170841743
0.1171338254
0.1171832276
0.1172321569
0.1172811079
0.1173300676
0.1173790065
0.1174278849
0.1174766631
0.117525297
0.1175737273
0.1176218817
0.1176696274
0.1177153458
0.1177597851
0.1178037464
0.1178472269
0.1178902259
0.1179327452
0.1179747901
0.1180163699
0.1180574998
0.1180982024
0.1181385096
0.1181781587
0.1182164399
0.1182544043
0.1182920409
0.1183293383
0.1183662839
0.1184028643
0.1184390574
0.1184748512
0.1185102254
0.1185451544
0.1185796072
0.1186135338
0.1186464956
0.1186778203
0.1187085492
0.1187386771
0.118768205
0.118797139
0.1188254805
0.1188532148
0.1188803692
0.1189069534
0.1189329713
0.1189584523
0.1189834199
0.1190079025
0.1190319745
0.1190557105
0.1190792297
0.1191023345
0.1191253016
0.1191482762
0.1191712434
0.1191942089
0.1192171671
0.119240115
0.1192630404
0.1192859429
0.119308819
0.1193316643
0.1193544642
0.1193772183
0.1193999164
0.1194225505
0.1194450955
0.1194675423
0.1194898588
0.1195120014
0.1195335494
0.1195543216
0.1195748249
0.1195950523
0.1196149954
0.1196346574
0.1196540317
0.1196731138
0.1196919046
0.1197103997
0.1197285938
0.119746489
0.1197640831
0.1197813671
0.1197983474
0.1198150238
0.1198313821
0.1198474344
0.1198631779
0.1198786088
0.119893732
0.1199085478
0.1199230667
0.1199373031
0.1199510863
0.1199643356
0.1199773479
0.1199901227
0.1200026615
0.120014956
0.1200270126
0.1200388265
0.1200504001
0.1200617332
0.1200728223
0.1200836732
0.1200942768
0.120104643
0.1201147665
0.120124651
0.1201342968
0.1201437029
0.1201528747
0.1201618069
0.1201705088
0.1201789725
0.1201872093
0.1201952136
0.1202029933
0.1202105461
0.1202178772
0.1202249875
0.1202318798
0.1202385575
0.1202450216
0.1202512777
0.1202573253
0.1202631716
0.1202688153
0.1202742646
0.1202795176
0.1202845834
0.1202894598
0.1202941562
0.1202986707
0.1203030123
0.12030718
0.1203111822
0.1203150187
0.1203186969
0.1203222181
0.1203255884
0.1203288104
0.1203318889
0.1203348279
0.1203376307
0.1203403025
0.1203428442
0.1203452601
0.1203475393
0.1203496569
0.1203514738
0.120352575
0.120352575
0.120352575
0.120352575
0.120352575
)
;

boundaryField
{
    bottom
    {
        type            calculated;
        value           uniform 5.064581154e-05;
    }
    top
    {
        type            calculated;
        value           uniform 0.120352575;
    }
    frontAndBack
    {
        type            empty;
    }
}


// ************************************************************************* //
