/*--------------------------------*- C++ -*----------------------------------*\
| =========                 |                                                 |
| \\      /  F ield         | OpenFOAM: The Open Source CFD Toolbox           |
|  \\    /   O peration     | Version:  v2006                                 |
|   \\  /    A nd           | Website:  www.openfoam.com                      |
|    \\/     M anipulation  |                                                 |
\*---------------------------------------------------------------------------*/
FoamFile
{
    version     2.0;
    format      ascii;
    class       volScalarField;
    location    "0.03302";
    object      H2O2;
}
// * * * * * * * * * * * * * * * * * * * * * * * * * * * * * * * * * * * * * //

dimensions      [0 0 0 0 0 0 0];


internalField   nonuniform List<scalar> 
500
(
2.443503557e-08
2.443891119e-08
2.444283908e-08
2.444681994e-08
2.445085448e-08
2.445494344e-08
2.445908754e-08
2.446328752e-08
2.448446216e-08
2.450660116e-08
2.452903872e-08
2.455177887e-08
2.45748257e-08
2.459818335e-08
2.462184247e-08
2.464571469e-08
2.466990885e-08
2.469442929e-08
2.471928042e-08
2.47444667e-08
2.476999264e-08
2.481331585e-08
2.486130072e-08
2.490993273e-08
2.495922059e-08
2.500917315e-08
2.50597993e-08
2.511085232e-08
2.516259385e-08
2.521503317e-08
2.526817969e-08
2.532204296e-08
2.539167437e-08
2.547308444e-08
2.555559242e-08
2.563921312e-08
2.572396154e-08
2.580962421e-08
2.589623963e-08
2.598402316e-08
2.607299056e-08
2.616315778e-08
2.62784819e-08
2.640222172e-08
2.652763031e-08
2.665473018e-08
2.678334433e-08
2.691324421e-08
2.704489594e-08
2.717832314e-08
2.731617575e-08
2.748969479e-08
2.766555393e-08
2.784378474e-08
2.802436191e-08
2.820651914e-08
2.839113297e-08
2.857823652e-08
2.877809989e-08
2.90133595e-08
2.925179187e-08
2.949343976e-08
2.973760859e-08
2.998457999e-08
3.023488208e-08
3.049444453e-08
3.080211633e-08
3.111393743e-08
3.14299638e-08
3.174899201e-08
3.207198045e-08
3.239932475e-08
3.276564527e-08
3.316165019e-08
3.356299568e-08
3.396870928e-08
3.437889642e-08
3.47946154e-08
3.52540121e-08
3.575113827e-08
3.625496876e-08
3.676381383e-08
3.72787437e-08
3.7800618e-08
3.840605854e-08
3.902479172e-08
3.965100104e-08
4.028336491e-08
4.092425694e-08
4.1640087e-08
4.239503434e-08
4.315940451e-08
4.393098334e-08
4.471296779e-08
4.559185023e-08
4.650849098e-08
4.743554136e-08
4.837237573e-08
4.933876214e-08
5.043281173e-08
5.154161586e-08
5.266028408e-08
5.379351518e-08
5.505565896e-08
5.63752767e-08
5.770846757e-08
5.905715655e-08
6.052689508e-08
6.209397253e-08
6.367767354e-08
6.527927377e-08
6.703004253e-08
6.888788545e-08
7.076424372e-08
7.266301496e-08
7.478995844e-08
7.698974474e-08
7.920813049e-08
8.151454306e-08
8.408212862e-08
8.667844208e-08
8.93025915e-08
9.220872266e-08
9.524307839e-08
9.830384994e-08
1.015635466e-07
1.05101957e-07
1.086739683e-07
1.123808996e-07
1.165044895e-07
1.206702458e-07
1.24943801e-07
1.297481468e-07
1.346024063e-07
1.395940716e-07
1.451906025e-07
1.50843254e-07
1.56744345e-07
1.632629206e-07
1.698413346e-07
1.768923296e-07
1.844800496e-07
1.921359355e-07
2.006376786e-07
2.094589648e-07
2.185433212e-07
2.287018624e-07
2.389525238e-07
2.501230834e-07
2.619296415e-07
2.740665537e-07
2.876542887e-07
3.013611756e-07
3.165191974e-07
3.322913309e-07
3.490307916e-07
3.671697675e-07
3.857572759e-07
4.066061323e-07
4.276310898e-07
4.512893833e-07
4.754391047e-07
5.020731918e-07
5.297923811e-07
5.599263294e-07
5.917165272e-07
6.25973789e-07
6.623992156e-07
7.015183214e-07
7.432113901e-07
7.880627617e-07
8.357294262e-07
8.873329104e-07
9.417576568e-07
9.996924642e-07
1.059425206e-06
1.122839783e-06
1.187482772e-06
1.260250154e-06
1.335512752e-06
1.418086982e-06
1.5057768e-06
1.599287842e-06
1.701404657e-06
1.807506115e-06
1.923737303e-06
2.042614964e-06
2.165252985e-06
2.298558895e-06
2.438034989e-06
2.590785339e-06
2.749911777e-06
2.914465426e-06
3.085876599e-06
3.266085157e-06
3.456429408e-06
3.655830113e-06
3.861412122e-06
4.073577592e-06
4.301090144e-06
4.532813045e-06
4.769788072e-06
5.019741647e-06
5.273620274e-06
5.532531574e-06
5.798702085e-06
6.075831822e-06
6.352031366e-06
6.629168664e-06
6.911421675e-06
7.19600649e-06
7.480342598e-06
7.762200678e-06
8.039760726e-06
8.308382201e-06
8.56706017e-06
8.814589492e-06
9.047226015e-06
9.260975121e-06
9.45101639e-06
9.607747064e-06
9.732929317e-06
9.822507873e-06
9.866889004e-06
9.859559283e-06
9.796834139e-06
9.668116806e-06
9.460962145e-06
9.160214016e-06
8.768303866e-06
8.270801084e-06
7.670987031e-06
6.975202794e-06
6.197720274e-06
5.365575157e-06
4.518998834e-06
3.705661007e-06
2.97293937e-06
2.360012547e-06
1.890273841e-06
1.567801852e-06
1.379336393e-06
1.299879345e-06
1.300042081e-06
1.351291154e-06
1.429340389e-06
1.515806132e-06
1.597298893e-06
1.665824049e-06
1.716665864e-06
1.750083675e-06
1.766227662e-06
1.766169049e-06
1.754758442e-06
1.734632026e-06
1.707901771e-06
1.676208028e-06
1.641701964e-06
1.606124053e-06
1.56726414e-06
1.528530719e-06
1.489254911e-06
1.450515615e-06
1.4131018e-06
1.375865503e-06
1.340331493e-06
1.304121794e-06
1.268989908e-06
1.235360766e-06
1.202836228e-06
1.172052143e-06
1.141264718e-06
1.11022581e-06
1.080599389e-06
1.05226925e-06
1.024469391e-06
9.976235922e-07
9.716548379e-07
9.465279935e-07
9.221752165e-07
8.984279413e-07
8.753262341e-07
8.528535248e-07
8.3091577e-07
8.102859867e-07
7.901265122e-07
7.703501384e-07
7.509735943e-07
7.319323046e-07
7.141000565e-07
6.971898911e-07
6.805399806e-07
6.641252898e-07
6.47949449e-07
6.319998301e-07
6.173334801e-07
6.033619576e-07
5.895515512e-07
5.759040754e-07
5.624195192e-07
5.490942677e-07
5.364398132e-07
5.250762008e-07
5.138514205e-07
5.027476766e-07
4.917731702e-07
4.809079411e-07
4.701483838e-07
4.600029599e-07
4.506259844e-07
4.413378506e-07
4.321308232e-07
4.23006719e-07
4.139731027e-07
4.050240812e-07
3.962909176e-07
3.885755994e-07
3.809853181e-07
3.734689976e-07
3.660363714e-07
3.586839122e-07
3.514150174e-07
3.442394595e-07
3.373570482e-07
3.312443047e-07
3.252937318e-07
3.194332336e-07
3.136541965e-07
3.079589566e-07
3.023438104e-07
2.96810966e-07
2.913562624e-07
2.86154161e-07
2.815372768e-07
2.769869317e-07
2.724990891e-07
2.680710641e-07
2.636963237e-07
2.593701657e-07
2.550867283e-07
2.508363308e-07
2.466083535e-07
2.424902934e-07
2.387286251e-07
2.349727985e-07
2.312163147e-07
2.274614186e-07
2.23711164e-07
2.199686003e-07
2.162371048e-07
2.125212318e-07
2.088265263e-07
2.051693072e-07
2.018845724e-07
1.988059483e-07
1.957604334e-07
1.927482246e-07
1.897693754e-07
1.868237583e-07
1.839110133e-07
1.810304806e-07
1.781811117e-07
1.753613528e-07
1.725689881e-07
1.698836277e-07
1.675033212e-07
1.651427145e-07
1.628024854e-07
1.604833519e-07
1.581860869e-07
1.559115401e-07
1.536610682e-07
1.514354244e-07
1.492358763e-07
1.470639979e-07
1.449217391e-07
1.428122003e-07
1.408189823e-07
1.390756575e-07
1.373654906e-07
1.356887787e-07
1.340454529e-07
1.324351782e-07
1.308578807e-07
1.293143776e-07
1.278031464e-07
1.263236438e-07
1.248756698e-07
1.234575604e-07
1.220680329e-07
1.207055003e-07
1.193658121e-07
1.180448252e-07
1.167359092e-07
1.155517297e-07
1.144170189e-07
1.132819419e-07
1.121472279e-07
1.110126006e-07
1.098783312e-07
1.087445731e-07
1.076119257e-07
1.064804105e-07
1.053501999e-07
1.042215072e-07
1.030950607e-07
1.019708766e-07
1.008494579e-07
9.9731205e-08
9.861734738e-08
9.750834424e-08
9.640578133e-08
9.531181135e-08
9.429794539e-08
9.339033051e-08
9.249447412e-08
9.161067917e-08
9.073930407e-08
8.988020997e-08
8.903368339e-08
8.819992893e-08
8.737889537e-08
8.657078986e-08
8.577583373e-08
8.499393564e-08
8.422519368e-08
8.34699985e-08
8.272807916e-08
8.199943366e-08
8.128469191e-08
8.058331371e-08
7.989543123e-08
7.922120876e-08
7.856043038e-08
7.791307576e-08
7.727870336e-08
7.665666825e-08
7.608316625e-08
7.557820171e-08
7.508227104e-08
7.459538998e-08
7.411750678e-08
7.364893422e-08
7.318942667e-08
7.273916968e-08
7.229807361e-08
7.186613912e-08
7.144350605e-08
7.102995075e-08
7.062582251e-08
7.023074268e-08
6.984491099e-08
6.94681881e-08
6.910056063e-08
6.874207267e-08
6.839250979e-08
6.805208614e-08
6.772043138e-08
6.739786307e-08
6.708393547e-08
6.677887235e-08
6.648236929e-08
6.61945129e-08
6.591510588e-08
6.564411599e-08
6.538143531e-08
6.512693183e-08
6.488056894e-08
6.46421343e-08
6.44116445e-08
6.418882631e-08
6.397373178e-08
6.376604564e-08
6.356583852e-08
6.337277111e-08
6.31869168e-08
6.300792907e-08
6.283586971e-08
6.267040031e-08
6.251155831e-08
6.235902714e-08
6.221280884e-08
6.207262064e-08
6.193842009e-08
6.180996824e-08
6.168717102e-08
6.156984159e-08
6.145782986e-08
6.135100973e-08
6.124917981e-08
6.115230834e-08
6.106023129e-08
6.097336783e-08
6.08926586e-08
6.082341271e-08
6.078144382e-08
6.078144382e-08
6.078144382e-08
6.078144382e-08
6.078144382e-08
)
;

boundaryField
{
    bottom
    {
        type            calculated;
        value           uniform 2.443311074e-08;
    }
    top
    {
        type            calculated;
        value           uniform 6.078144382e-08;
    }
    frontAndBack
    {
        type            empty;
    }
}


// ************************************************************************* //
