/*--------------------------------*- C++ -*----------------------------------*\
| =========                 |                                                 |
| \\      /  F ield         | OpenFOAM: The Open Source CFD Toolbox           |
|  \\    /   O peration     | Version:  v2006                                 |
|   \\  /    A nd           | Website:  www.openfoam.com                      |
|    \\/     M anipulation  |                                                 |
\*---------------------------------------------------------------------------*/
FoamFile
{
    version     2.0;
    format      ascii;
    class       volScalarField;
    location    "0.03302";
    object      HCO;
}
// * * * * * * * * * * * * * * * * * * * * * * * * * * * * * * * * * * * * * //

dimensions      [0 0 0 0 0 0 0];


internalField   nonuniform List<scalar> 
500
(
3.893236313e-18
3.903747e-18
3.914399437e-18
3.925195533e-18
3.936137227e-18
3.947226483e-18
3.95846529e-18
3.969855664e-18
3.983567018e-18
3.997550244e-18
4.01172205e-18
4.026084979e-18
4.040641609e-18
4.055394551e-18
4.07033791e-18
4.085415859e-18
4.100697152e-18
4.116184531e-18
4.131880775e-18
4.147788701e-18
4.163911163e-18
4.18252281e-18
4.201916187e-18
4.221571105e-18
4.241491093e-18
4.261679724e-18
4.282140591e-18
4.302773978e-18
4.32368563e-18
4.344879299e-18
4.366358789e-18
4.388127955e-18
4.412319002e-18
4.438370019e-18
4.464772364e-18
4.491530775e-18
4.518650053e-18
4.546061891e-18
4.573778608e-18
4.601869116e-18
4.630338456e-18
4.659191738e-18
4.692054102e-18
4.726396976e-18
4.761203003e-18
4.796478429e-18
4.832174128e-18
4.868226672e-18
4.904765426e-18
4.941796946e-18
4.979746575e-18
5.023598368e-18
5.068041553e-18
5.113084105e-18
5.158719631e-18
5.20475447e-18
5.251410142e-18
5.298695019e-18
5.348320586e-18
5.404055703e-18
5.460542471e-18
5.517791029e-18
5.575636816e-18
5.63414656e-18
5.693445374e-18
5.754556813e-18
5.824170714e-18
5.894723437e-18
5.966227645e-18
6.038411051e-18
6.111490497e-18
6.185555503e-18
6.266732504e-18
6.353380933e-18
6.441197916e-18
6.529970667e-18
6.619722258e-18
6.710684251e-18
6.809754974e-18
6.915862061e-18
7.023400124e-18
7.132008502e-18
7.241915629e-18
7.353304979e-18
7.48027227e-18
7.60989497e-18
7.741083898e-18
7.873562186e-18
8.007827096e-18
8.156265722e-18
8.31220071e-18
8.470081993e-18
8.629452229e-18
8.790971755e-18
8.970950475e-18
9.158240686e-18
9.347657814e-18
9.539074031e-18
9.73628928e-18
9.957965595e-18
1.018263147e-17
1.040929601e-17
1.063891128e-17
1.089338376e-17
1.115903491e-17
1.142741846e-17
1.169892192e-17
1.199389301e-17
1.230776835e-17
1.262497328e-17
1.29457633e-17
1.329554954e-17
1.366619357e-17
1.404053145e-17
1.441934077e-17
1.484256585e-17
1.528006742e-17
1.572126811e-17
1.617972506e-17
1.668912947e-17
1.720423345e-17
1.772486002e-17
1.830059e-17
1.89014419e-17
1.950752456e-17
2.015257191e-17
2.08521694e-17
2.15584103e-17
2.229113321e-17
2.310544899e-17
2.392809169e-17
2.477192204e-17
2.571976831e-17
2.667746201e-17
2.766215494e-17
2.876545784e-17
2.987982435e-17
3.104297529e-17
3.232728187e-17
3.362337797e-17
3.501225472e-17
3.650649771e-17
3.801416456e-17
3.968790754e-17
4.142442189e-17
4.321263328e-17
4.521179585e-17
4.722908734e-17
4.942707849e-17
5.175001408e-17
5.413787668e-17
5.681075553e-17
5.950707304e-17
6.248850852e-17
6.559062326e-17
6.88828279e-17
7.245003863e-17
7.61054119e-17
8.020516266e-17
8.433954219e-17
8.899143006e-17
9.373991403e-17
9.897665821e-17
1.044266732e-16
1.103512891e-16
1.166014332e-16
1.233364739e-16
1.304976653e-16
1.381883063e-16
1.46384867e-16
1.552022106e-16
1.645729182e-16
1.747174402e-16
1.854165084e-16
2.498078589e-16
3.379519853e-16
5.301445503e-16
7.442994852e-16
9.853323983e-16
1.234622848e-15
1.508105678e-15
1.798516952e-15
2.108191468e-15
2.446344909e-15
2.817071848e-15
3.611871752e-15
5.106560907e-15
7.738121826e-15
1.05984654e-14
1.35911404e-14
1.686850429e-14
2.353836581e-14
3.299064437e-14
5.337334871e-14
7.485224402e-14
9.753890284e-14
1.627447302e-13
2.51243817e-13
3.644206261e-13
5.627901754e-13
9.159797375e-13
1.447033566e-12
2.330224542e-12
4.008423957e-12
6.9487042e-12
1.178145016e-11
1.928416459e-11
3.711321467e-11
6.899294249e-11
1.201233045e-10
2.226690348e-10
3.978485307e-10
6.959362919e-10
1.192194694e-09
2.109800661e-09
3.753094389e-09
6.421694062e-09
1.065139918e-08
1.72382751e-08
2.733261988e-08
4.396299497e-08
6.887175971e-08
1.056456218e-07
1.624896258e-07
2.499548768e-07
3.836768243e-07
5.92724299e-07
9.259171259e-07
1.477947255e-06
2.322664932e-06
3.641117589e-06
5.586049157e-06
8.347672723e-06
1.212914087e-05
1.709237099e-05
2.328786361e-05
3.056134943e-05
3.849564104e-05
4.641071651e-05
5.338731188e-05
5.839104312e-05
6.04946835e-05
5.9156895e-05
5.445503561e-05
4.714470109e-05
3.844168941e-05
2.960380888e-05
2.168309852e-05
1.520528324e-05
1.034391637e-05
6.838017825e-06
4.459722943e-06
2.952436984e-06
1.962975903e-06
1.322941273e-06
9.156743914e-07
6.592203883e-07
4.865678238e-07
3.635550867e-07
2.90416197e-07
2.342401729e-07
1.949382022e-07
1.654989898e-07
1.416842741e-07
1.243945116e-07
1.094036386e-07
9.821689423e-08
8.880742395e-08
8.074806012e-08
7.435776565e-08
6.830942839e-08
6.332826233e-08
5.954005361e-08
5.599221897e-08
5.26080725e-08
4.995123584e-08
4.751572851e-08
4.515978842e-08
4.289520492e-08
4.100390455e-08
3.933050163e-08
3.770259e-08
3.611900206e-08
3.457311081e-08
3.333389534e-08
3.214562753e-08
3.097994096e-08
2.983782169e-08
2.871546344e-08
2.772417791e-08
2.683415863e-08
2.595783712e-08
2.509389574e-08
2.424252556e-08
2.340306192e-08
2.266717228e-08
2.198488124e-08
2.131045821e-08
2.064399179e-08
1.998548145e-08
1.933475065e-08
1.872664185e-08
1.82037793e-08
1.76873047e-08
1.717639922e-08
1.667144021e-08
1.617150927e-08
1.567644049e-08
1.52194643e-08
1.481075382e-08
1.440591566e-08
1.400461264e-08
1.360692396e-08
1.321317935e-08
1.282312193e-08
1.24445059e-08
1.212470425e-08
1.181099971e-08
1.150035193e-08
1.119316323e-08
1.088928781e-08
1.058886608e-08
1.029230195e-08
1.001055302e-08
9.769621575e-09
9.536296974e-09
9.30650424e-09
9.079905634e-09
8.856592744e-09
8.636420372e-09
8.419475086e-09
8.205593737e-09
8.004090846e-09
7.832567005e-09
7.663568689e-09
7.496891695e-09
7.332436306e-09
7.169959892e-09
7.009287811e-09
6.850202358e-09
6.692343998e-09
6.535318313e-09
6.3841034e-09
6.252283642e-09
6.120830644e-09
5.989354645e-09
5.857934213e-09
5.726676234e-09
5.595687436e-09
5.465086017e-09
5.335031386e-09
5.205717611e-09
5.077832628e-09
4.967115224e-09
4.865667542e-09
4.765310886e-09
4.666051738e-09
4.567891867e-09
4.470827071e-09
4.374845484e-09
4.279925364e-09
4.186032167e-09
4.093114681e-09
4.001099898e-09
3.913711205e-09
3.840140633e-09
3.767178944e-09
3.694847088e-09
3.623167252e-09
3.552163332e-09
3.481861583e-09
3.412303941e-09
3.34351369e-09
3.275530005e-09
3.208401534e-09
3.142188547e-09
3.076986871e-09
3.016351254e-09
2.965992027e-09
2.916590627e-09
2.868155641e-09
2.82068507e-09
2.774169245e-09
2.728606032e-09
2.684019031e-09
2.640364264e-09
2.597626039e-09
2.555798576e-09
2.514833809e-09
2.474694684e-09
2.435335361e-09
2.396635938e-09
2.358476736e-09
2.320666228e-09
2.288112834e-09
2.257668408e-09
2.227214159e-09
2.196769649e-09
2.166327463e-09
2.135894881e-09
2.105476019e-09
2.075086956e-09
2.044728269e-09
2.014404586e-09
1.984121625e-09
1.953898935e-09
1.923736941e-09
1.893649146e-09
1.863646289e-09
1.833761357e-09
1.804006673e-09
1.774424779e-09
1.745073436e-09
1.718659282e-09
1.696151064e-09
1.673934595e-09
1.652017238e-09
1.630407882e-09
1.609103086e-09
1.588109953e-09
1.567433558e-09
1.54707263e-09
1.527032307e-09
1.507318077e-09
1.487927674e-09
1.468863534e-09
1.450135341e-09
1.431736378e-09
1.413666595e-09
1.395941612e-09
1.378548035e-09
1.361489139e-09
1.344769e-09
1.328382264e-09
1.312328424e-09
1.296596533e-09
1.281170596e-09
1.267315269e-09
1.2557373e-09
1.244366464e-09
1.233203119e-09
1.22224608e-09
1.211502518e-09
1.2009668e-09
1.190643183e-09
1.180529609e-09
1.170626095e-09
1.160935846e-09
1.151453735e-09
1.14218777e-09
1.133129269e-09
1.124282813e-09
1.115645205e-09
1.10721614e-09
1.098996628e-09
1.090981753e-09
1.083176424e-09
1.075572152e-09
1.068176216e-09
1.060978396e-09
1.053983824e-09
1.047185519e-09
1.040585468e-09
1.034179146e-09
1.027965814e-09
1.021942998e-09
1.016107672e-09
1.010458995e-09
1.004992099e-09
9.997073644e-10
9.945985269e-10
9.896667794e-10
9.849048938e-10
9.803144892e-10
9.758877857e-10
9.716264664e-10
9.675225857e-10
9.635775607e-10
9.597836323e-10
9.561416585e-10
9.526443813e-10
9.492918475e-10
9.460775734e-10
9.430005857e-10
9.400554058e-10
9.372398771e-10
9.345497151e-10
9.319814788e-10
9.295322772e-10
9.271974924e-10
9.249763964e-10
9.228652282e-10
9.208735986e-10
9.190230749e-10
9.174353856e-10
9.164731113e-10
9.164731113e-10
9.164731113e-10
9.164731113e-10
9.164731113e-10
)
;

boundaryField
{
    bottom
    {
        type            calculated;
        value           uniform 3.888016169e-18;
    }
    top
    {
        type            calculated;
        value           uniform 9.164731113e-10;
    }
    frontAndBack
    {
        type            empty;
    }
}


// ************************************************************************* //
