/*--------------------------------*- C++ -*----------------------------------*\
| =========                 |                                                 |
| \\      /  F ield         | OpenFOAM: The Open Source CFD Toolbox           |
|  \\    /   O peration     | Version:  v2006                                 |
|   \\  /    A nd           | Website:  www.openfoam.com                      |
|    \\/     M anipulation  |                                                 |
\*---------------------------------------------------------------------------*/
FoamFile
{
    version     2.0;
    format      ascii;
    class       volScalarField;
    location    "0.03302";
    object      HO2;
}
// * * * * * * * * * * * * * * * * * * * * * * * * * * * * * * * * * * * * * //

dimensions      [0 0 0 0 0 0 0];


internalField   nonuniform List<scalar> 
500
(
5.020109691e-08
5.020616837e-08
5.021130822e-08
5.02165174e-08
5.022179682e-08
5.022714744e-08
5.023257022e-08
5.023806614e-08
5.027823116e-08
5.032032587e-08
5.036298828e-08
5.040622604e-08
5.045004691e-08
5.049445875e-08
5.053944382e-08
5.058483406e-08
5.063083643e-08
5.06774592e-08
5.072471074e-08
5.077259951e-08
5.082113412e-08
5.09059465e-08
5.100022502e-08
5.109577499e-08
5.119261357e-08
5.129075812e-08
5.139022611e-08
5.149053279e-08
5.159219221e-08
5.169522264e-08
5.179964254e-08
5.190547067e-08
5.204342045e-08
5.220535014e-08
5.236946364e-08
5.25357904e-08
5.270436027e-08
5.287474864e-08
5.30470321e-08
5.3221639e-08
5.339860067e-08
5.357794887e-08
5.380855415e-08
5.405626435e-08
5.430731521e-08
5.456175177e-08
5.48192197e-08
5.507926151e-08
5.534281027e-08
5.560991329e-08
5.588597333e-08
5.623469537e-08
5.658812033e-08
5.694631164e-08
5.730921844e-08
5.76753007e-08
5.804631999e-08
5.842234291e-08
5.88243023e-08
5.92983378e-08
5.977876622e-08
6.026567376e-08
6.075766084e-08
6.125529496e-08
6.175964024e-08
6.228277724e-08
6.290385893e-08
6.353331662e-08
6.417126327e-08
6.481526958e-08
6.546727019e-08
6.612806378e-08
6.686815883e-08
6.766863008e-08
6.84798966e-08
6.929999266e-08
7.012913138e-08
7.096945199e-08
7.189861346e-08
7.290450488e-08
7.392396188e-08
7.495356544e-08
7.599548109e-08
7.705144817e-08
7.827740298e-08
7.953032662e-08
8.079838932e-08
8.207891488e-08
8.337670979e-08
8.482688492e-08
8.635656122e-08
8.790533011e-08
8.94687052e-08
9.105316418e-08
9.283462709e-08
9.469280572e-08
9.657208633e-08
9.847120067e-08
1.004303283e-07
1.026489729e-07
1.048975385e-07
1.071661077e-07
1.094642093e-07
1.120243166e-07
1.147011912e-07
1.174055992e-07
1.201414454e-07
1.231232704e-07
1.263028772e-07
1.295162133e-07
1.327658669e-07
1.363186135e-07
1.400889007e-07
1.438967627e-07
1.477501094e-07
1.520670585e-07
1.56531962e-07
1.610346167e-07
1.657160675e-07
1.709281298e-07
1.761985081e-07
1.81525392e-07
1.874251228e-07
1.935853084e-07
1.997991221e-07
2.064170092e-07
2.136010663e-07
2.208533435e-07
2.283796544e-07
2.367523356e-07
2.452106331e-07
2.538878643e-07
2.636432729e-07
2.73500033e-07
2.836358619e-07
2.950002971e-07
3.064786917e-07
3.184616822e-07
3.316988747e-07
3.450575806e-07
3.593761386e-07
3.747848349e-07
3.903319584e-07
4.075970862e-07
4.255112135e-07
4.439596317e-07
4.645897824e-07
4.854070127e-07
5.080925845e-07
5.320698814e-07
5.567181177e-07
5.84313007e-07
6.121498779e-07
6.429340129e-07
6.749654014e-07
7.089614199e-07
7.457998452e-07
7.835492223e-07
8.258913723e-07
8.685911677e-07
9.166392211e-07
9.656853438e-07
1.019777152e-06
1.07607277e-06
1.13727269e-06
1.201836401e-06
1.271410636e-06
1.34538834e-06
1.424836809e-06
1.509512903e-06
1.60060339e-06
1.697411628e-06
1.802215391e-06
1.912749023e-06
2.045726872e-06
2.189117672e-06
2.369847189e-06
2.559349014e-06
2.772664127e-06
2.993293174e-06
3.235353542e-06
3.492408561e-06
3.766526534e-06
4.065869554e-06
4.377780345e-06
4.737272496e-06
5.136180717e-06
5.597618049e-06
6.099191644e-06
6.62397972e-06
7.198710323e-06
7.831667543e-06
8.513079784e-06
9.33369334e-06
1.019695165e-05
1.110876177e-05
1.216311546e-05
1.330105568e-05
1.452770724e-05
1.589338117e-05
1.738304519e-05
1.899616181e-05
2.076422581e-05
2.272109744e-05
2.483418972e-05
2.711468846e-05
2.963429303e-05
3.240398272e-05
3.541801623e-05
3.867651093e-05
4.229869891e-05
4.6216939e-05
5.043696498e-05
5.496670996e-05
5.98271827e-05
6.494334002e-05
7.022167588e-05
7.558650072e-05
8.09593303e-05
8.624793213e-05
9.135517499e-05
9.631042315e-05
0.0001011437017
0.0001058927537
0.0001106420165
0.0001155087333
0.0001205739543
0.0001258854616
0.0001313655138
0.0001367915004
0.0001416998568
0.0001455760713
0.0001477833583
0.0001476307582
0.0001445143894
0.0001380799284
0.000128406987
0.0001160289354
0.0001017898663
8.672663516e-05
7.187361638e-05
5.809187949e-05
4.59746811e-05
3.582796508e-05
2.77043248e-05
2.14609308e-05
1.683063807e-05
1.356041305e-05
1.129219755e-05
9.760542631e-06
8.709400491e-06
7.991099268e-06
7.497642775e-06
7.127390714e-06
6.837721716e-06
6.601590696e-06
6.401047525e-06
6.222828348e-06
6.060984582e-06
5.911700165e-06
5.771462578e-06
5.638453662e-06
5.512417189e-06
5.393333177e-06
5.278872844e-06
5.170727167e-06
5.063570812e-06
4.960679803e-06
4.862579506e-06
4.768278863e-06
4.679024437e-06
4.590399245e-06
4.501788267e-06
4.417250383e-06
4.33640183e-06
4.256315542e-06
4.178830513e-06
4.103876897e-06
4.031305929e-06
3.9600109e-06
3.889948245e-06
3.821790237e-06
3.75548799e-06
3.690764043e-06
3.627996743e-06
3.566459102e-06
3.506090891e-06
3.446943178e-06
3.388818841e-06
3.333100552e-06
3.279189262e-06
3.226107691e-06
3.173776024e-06
3.122205834e-06
3.071356862e-06
3.023102206e-06
2.97635534e-06
2.930147547e-06
2.884484898e-06
2.839367356e-06
2.794782826e-06
2.751833141e-06
2.711830039e-06
2.672315664e-06
2.633227371e-06
2.594594031e-06
2.556345377e-06
2.518468717e-06
2.482030047e-06
2.447346415e-06
2.412991392e-06
2.378936366e-06
2.345188057e-06
2.311774445e-06
2.278673733e-06
2.246205247e-06
2.216320269e-06
2.186844874e-06
2.15765669e-06
2.128793517e-06
2.100241658e-06
2.072014304e-06
2.044149406e-06
2.017188447e-06
1.992434111e-06
1.968230993e-06
1.94439424e-06
1.92088882e-06
1.897724232e-06
1.874885415e-06
1.852381348e-06
1.830195108e-06
1.808818207e-06
1.789201639e-06
1.76986307e-06
1.750790131e-06
1.731971412e-06
1.713379148e-06
1.694993354e-06
1.67678912e-06
1.658725302e-06
1.640756768e-06
1.623106055e-06
1.606437933e-06
1.589781696e-06
1.573122545e-06
1.556470436e-06
1.53983891e-06
1.523241492e-06
1.506693158e-06
1.490214106e-06
1.473828928e-06
1.457600069e-06
1.442672018e-06
1.428483288e-06
1.414447153e-06
1.400564517e-06
1.38683563e-06
1.373259903e-06
1.359835675e-06
1.346559907e-06
1.333427767e-06
1.320432094e-06
1.307562673e-06
1.295089049e-06
1.283688034e-06
1.272381376e-06
1.261172321e-06
1.250064308e-06
1.239061039e-06
1.228166585e-06
1.217387441e-06
1.206727219e-06
1.196191987e-06
1.185789286e-06
1.175528454e-06
1.165424343e-06
1.155792503e-06
1.147134419e-06
1.138641012e-06
1.130313756e-06
1.122152308e-06
1.114155006e-06
1.106321485e-06
1.0986558e-06
1.091150389e-06
1.083802558e-06
1.07661131e-06
1.069568382e-06
1.062667404e-06
1.055900495e-06
1.04924704e-06
1.042686463e-06
1.036185837e-06
1.030136828e-06
1.024264482e-06
1.018390241e-06
1.012517878e-06
1.006645964e-06
1.000775902e-06
9.94908486e-07
9.890468184e-07
9.831910098e-07
9.773419531e-07
9.715007512e-07
9.656711748e-07
9.598533059e-07
9.540497491e-07
9.482625755e-07
9.424981485e-07
9.367588443e-07
9.310528696e-07
9.25391365e-07
9.200570209e-07
9.151555175e-07
9.103174987e-07
9.055446169e-07
9.00838808e-07
8.961993217e-07
8.916277056e-07
8.871250647e-07
8.82691122e-07
8.783269966e-07
8.740338836e-07
8.698112899e-07
8.656597449e-07
8.615813586e-07
8.575746677e-07
8.536396612e-07
8.497797413e-07
8.459919903e-07
8.422771222e-07
8.386360241e-07
8.3506753e-07
8.315715302e-07
8.2814564e-07
8.247863767e-07
8.216240711e-07
8.187293667e-07
8.158864487e-07
8.130954076e-07
8.103559466e-07
8.076698588e-07
8.05035736e-07
8.024546421e-07
7.99926063e-07
7.974500026e-07
7.950272625e-07
7.926565605e-07
7.903398992e-07
7.880751078e-07
7.858633313e-07
7.837037708e-07
7.815963498e-07
7.795413209e-07
7.77537455e-07
7.755859796e-07
7.736847718e-07
7.71835652e-07
7.700360649e-07
7.682872935e-07
7.665875925e-07
7.649374584e-07
7.633357603e-07
7.617823133e-07
7.602764987e-07
7.588175599e-07
7.574052869e-07
7.560384626e-07
7.54717182e-07
7.534398788e-07
7.522068514e-07
7.510162926e-07
7.498686072e-07
7.4876185e-07
7.47696442e-07
7.466703964e-07
7.456840677e-07
7.44735516e-07
7.438249557e-07
7.429505722e-07
7.421123772e-07
7.413087497e-07
7.405394462e-07
7.398030972e-07
7.390991633e-07
7.384265734e-07
7.377844672e-07
7.371721218e-07
7.365883827e-07
7.36033068e-07
7.355052372e-07
7.350072932e-07
7.345446283e-07
7.341476768e-07
7.339070906e-07
7.339070906e-07
7.339070906e-07
7.339070906e-07
7.339070906e-07
)
;

boundaryField
{
    bottom
    {
        type            calculated;
        value           uniform 5.019857816e-08;
    }
    top
    {
        type            calculated;
        value           uniform 7.339070906e-07;
    }
    frontAndBack
    {
        type            empty;
    }
}


// ************************************************************************* //
