/*--------------------------------*- C++ -*----------------------------------*\
| =========                 |                                                 |
| \\      /  F ield         | OpenFOAM: The Open Source CFD Toolbox           |
|  \\    /   O peration     | Version:  v2006                                 |
|   \\  /    A nd           | Website:  www.openfoam.com                      |
|    \\/     M anipulation  |                                                 |
\*---------------------------------------------------------------------------*/
FoamFile
{
    version     2.0;
    format      ascii;
    class       volScalarField;
    location    "0.03302";
    object      O;
}
// * * * * * * * * * * * * * * * * * * * * * * * * * * * * * * * * * * * * * //

dimensions      [0 0 0 0 0 0 0];


internalField   nonuniform List<scalar> 
500
(
6.284547e-14
6.295919573e-14
6.307445519e-14
6.319126905e-14
6.330965828e-14
6.342964412e-14
6.355124812e-14
6.367449208e-14
6.384076528e-14
6.40109406e-14
6.418341092e-14
6.435820721e-14
6.453536083e-14
6.471490356e-14
6.489676365e-14
6.508026172e-14
6.526623446e-14
6.545471526e-14
6.564573794e-14
6.583933678e-14
6.603554652e-14
6.627804599e-14
6.653401192e-14
6.679342984e-14
6.705634631e-14
6.732280852e-14
6.759286385e-14
6.786519621e-14
6.814120129e-14
6.842092861e-14
6.870442838e-14
6.899175146e-14
6.932189352e-14
6.96845524e-14
7.005210215e-14
7.042460872e-14
7.080213898e-14
7.118374198e-14
7.156958922e-14
7.196064006e-14
7.235696467e-14
7.275863416e-14
7.322958604e-14
7.372519029e-14
7.422747833e-14
7.47365403e-14
7.525166726e-14
7.577194386e-14
7.629923699e-14
7.683364127e-14
7.738243895e-14
7.803115609e-14
7.868862193e-14
7.935495445e-14
8.003005907e-14
8.071107089e-14
8.140126694e-14
8.210077107e-14
8.283833596e-14
8.367729824e-14
8.452757489e-14
8.538931849e-14
8.6260052e-14
8.714077981e-14
8.803338525e-14
8.89547888e-14
9.001566871e-14
9.109085581e-14
9.218054303e-14
9.328058087e-14
9.439427391e-14
9.552298637e-14
9.676687063e-14
9.809908846e-14
9.944927278e-14
1.00814152e-13
1.021940809e-13
1.035926197e-13
1.051215263e-13
1.067634117e-13
1.084274399e-13
1.1010803e-13
1.118087167e-13
1.135323391e-13
1.155057159e-13
1.175208827e-13
1.195603987e-13
1.216199596e-13
1.23707296e-13
1.260207055e-13
1.284532771e-13
1.309162106e-13
1.334023717e-13
1.359220615e-13
1.387353655e-13
1.416645e-13
1.446268986e-13
1.476205619e-13
1.507057589e-13
1.541792145e-13
1.576995137e-13
1.6125113e-13
1.648489814e-13
1.688405943e-13
1.730089453e-13
1.772201705e-13
1.814803504e-13
1.861116953e-13
1.910419177e-13
1.960244399e-13
2.010632754e-13
2.065603308e-13
2.123868543e-13
2.182714453e-13
2.242263273e-13
2.308827529e-13
2.377643754e-13
2.447041828e-13
2.519161467e-13
2.59932366e-13
2.680382761e-13
2.762310925e-13
2.852933869e-13
2.947518969e-13
3.042927487e-13
3.144481198e-13
3.254639292e-13
3.36584345e-13
3.481222468e-13
3.609469433e-13
3.739027809e-13
3.871925546e-13
4.021224911e-13
4.172075388e-13
4.327181283e-13
4.50098748e-13
4.676536557e-13
4.859775309e-13
5.062113543e-13
5.266309179e-13
5.485129587e-13
5.720558782e-13
5.958103004e-13
6.221824813e-13
6.495440185e-13
6.777203182e-13
7.092215862e-13
7.410085156e-13
7.756434749e-13
8.122476727e-13
8.498751178e-13
8.919946677e-13
9.344835669e-13
9.814660768e-13
1.030350517e-12
1.082230809e-12
1.138445273e-12
1.196049151e-12
1.26065649e-12
1.325809539e-12
1.399118534e-12
1.473949849e-12
1.5564761e-12
1.642363456e-12
1.735730436e-12
1.834227672e-12
1.94036676e-12
2.053221876e-12
2.174420965e-12
2.303593202e-12
2.44254878e-12
2.590225192e-12
2.750096655e-12
2.918707568e-12
3.331407065e-12
3.852635604e-12
4.83994638e-12
5.926645214e-12
7.149815219e-12
8.414906544e-12
9.80282583e-12
1.127668815e-11
1.284834752e-11
1.456458812e-11
1.63829445e-11
1.907999454e-11
2.307533121e-11
2.917373734e-11
3.580245014e-11
4.273789455e-11
5.033322355e-11
6.139091311e-11
7.529405291e-11
9.995609456e-11
1.259323428e-10
1.533694082e-10
2.016985603e-10
2.615802558e-10
3.337041998e-10
4.292445793e-10
5.622754484e-10
7.332931503e-10
9.548766669e-10
1.279560925e-09
1.709436046e-09
2.269188622e-09
3.011077414e-09
4.165306533e-09
5.77206575e-09
7.884036721e-09
1.108788669e-08
1.557358894e-08
2.191062184e-08
3.088256703e-08
4.466628655e-08
6.547340306e-08
9.515399704e-08
1.372725709e-07
1.968477878e-07
2.807173196e-07
4.062494375e-07
5.807302384e-07
8.211838264e-07
1.164356851e-06
1.652692048e-06
2.341505319e-06
3.329413419e-06
4.769026005e-06
6.936281397e-06
1.002667873e-05
1.457224541e-05
2.106771554e-05
3.024041001e-05
4.311060953e-05
6.105133959e-05
8.591699988e-05
0.0001200113102
0.0001661434604
0.000227805885
0.0003089129766
0.0004132665428
0.000543547787
0.0006999350878
0.0008789158469
0.001072674122
0.001270174469
0.001459871331
0.00163071358
0.001776173698
0.001892132327
0.001980450135
0.002042105903
0.002079040029
0.002098215419
0.002103326657
0.002097324367
0.002082513294
0.00206190637
0.002037962949
0.002007712445
0.001975992409
0.001942044235
0.001907325736
0.001873095953
0.001837662426
0.001803444588
0.001767407106
0.001732029426
0.001697679205
0.001663737332
0.001631611757
0.00159886367
0.001565132934
0.001532897771
0.001502062018
0.001470938371
0.001440713286
0.001411475644
0.001383156752
0.001355119754
0.001327447421
0.001300527358
0.001274340257
0.001248776529
0.001223991866
0.001199693396
0.001175856681
0.001152501885
0.001129551176
0.001107668398
0.001086591601
0.001065839186
0.001045379948
0.001025218412
0.001005338838
0.0009866238808
0.0009685694559
0.0009507232297
0.000933087547
0.0009156623939
0.0008984430991
0.0008819377512
0.0008667562678
0.0008517602601
0.0008369259535
0.0008222643049
0.0008077486476
0.0007933741648
0.0007795962169
0.0007665510004
0.0007536293803
0.0007408205949
0.000728127172
0.0007155596354
0.0007031097867
0.0006909125102
0.0006797919977
0.000668830242
0.0006579752989
0.0006472412258
0.0006366229284
0.0006261253132
0.0006157624936
0.0006057575196
0.0005966454994
0.0005877457361
0.0005789806899
0.0005703374779
0.0005618195941
0.0005534214998
0.0005451464971
0.0005369883629
0.0005291387719
0.0005219675738
0.00051489823
0.000507925989
0.0005010466797
0.0004942501526
0.0004875291022
0.0004808744219
0.0004742710719
0.0004677025533
0.0004612462078
0.0004551347694
0.0004490273284
0.0004429188189
0.0004368128911
0.000430714511
0.0004246286373
0.0004185607616
0.0004125182903
0.00040651024
0.0004005599441
0.0003951020497
0.0003899229247
0.000384799499
0.0003797321034
0.0003747208284
0.0003697654593
0.0003648653903
0.0003600195116
0.0003552260595
0.0003504824196
0.0003457848647
0.0003412310757
0.0003370663901
0.0003329361721
0.0003288416078
0.0003247839531
0.0003207645605
0.0003167849166
0.0003128473951
0.0003089533141
0.0003051048911
0.0003013048803
0.000297556693
0.0002938657543
0.0002903484749
0.0002871899039
0.0002840914085
0.0002810535274
0.0002780761351
0.0002751586254
0.000272300864
0.0002695043317
0.0002667662698
0.000264085694
0.000261462242
0.0002588928991
0.000256375341
0.0002539066927
0.0002514794339
0.0002490860582
0.0002467145529
0.0002445061369
0.0002423614841
0.0002402161393
0.0002380714805
0.0002359269855
0.000233783167
0.000231640315
0.0002294995622
0.0002273609493
0.0002252248021
0.0002230915236
0.000220962491
0.000218837734
0.000216718204
0.0002146046574
0.000212499418
0.0002104033539
0.000208319462
0.0002062518112
0.0002043098535
0.0002025342903
0.0002007817254
0.0001990527563
0.0001973480843
0.0001956674375
0.0001940113766
0.0001923803018
0.000190774113
0.0001891932153
0.0001876380417
0.0001861084136
0.0001846045229
0.0001831271336
0.000181675716
0.000180250266
0.0001788520159
0.000177479909
0.0001761342037
0.0001748152215
0.0001735225401
0.0001722561195
0.0001710150961
0.0001697982081
0.0001686596944
0.0001676291784
0.0001666170983
0.0001656234866
0.0001646482374
0.000163691989
0.0001627542402
0.0001618353696
0.0001609351945
0.0001600537158
0.0001591912194
0.0001583472485
0.0001575225161
0.0001567162495
0.000155928856
0.0001551600517
0.0001544098089
0.0001536782178
0.0001529648406
0.0001522701146
0.0001515932838
0.0001509349964
0.0001502943427
0.0001496717793
0.000149066685
0.0001484792366
0.0001479090314
0.0001473560036
0.000146819933
0.0001463005501
0.0001457977804
0.0001453111904
0.0001448408139
0.0001443860935
0.0001439471352
0.0001435232957
0.0001431147192
0.0001427207133
0.0001423414276
0.0001419761549
0.0001416250215
0.0001412873367
0.0001409631768
0.0001406518959
0.0001403534982
0.0001400674064
0.0001397935341
0.0001395313935
0.0001392807927
0.0001390413505
0.0001388127604
0.0001385947652
0.0001383869538
0.0001381892615
0.0001380013536
0.0001378240853
0.0001376593764
0.0001375180615
0.0001374324127
0.0001374324127
0.0001374324127
0.0001374324127
0.0001374324127
)
;

boundaryField
{
    bottom
    {
        type            calculated;
        value           uniform 6.278898799e-14;
    }
    top
    {
        type            calculated;
        value           uniform 0.0001374324127;
    }
    frontAndBack
    {
        type            empty;
    }
}


// ************************************************************************* //
