/*--------------------------------*- C++ -*----------------------------------*\
| =========                 |                                                 |
| \\      /  F ield         | OpenFOAM: The Open Source CFD Toolbox           |
|  \\    /   O peration     | Version:  v2006                                 |
|   \\  /    A nd           | Website:  www.openfoam.com                      |
|    \\/     M anipulation  |                                                 |
\*---------------------------------------------------------------------------*/
FoamFile
{
    version     2.0;
    format      ascii;
    class       volScalarField;
    location    "0.03302";
    object      O2;
}
// * * * * * * * * * * * * * * * * * * * * * * * * * * * * * * * * * * * * * //

dimensions      [0 0 0 0 0 0 0];


internalField   nonuniform List<scalar> 
500
(
0.2199902742
0.2199902721
0.21999027
0.2199902678
0.2199902657
0.2199902635
0.2199902612
0.219990259
0.2199901995
0.2199901368
0.2199900734
0.219990009
0.2199899438
0.2199898777
0.2199898108
0.2199897433
0.2199896748
0.2199896055
0.2199895352
0.2199894639
0.2199893917
0.2199892597
0.2199891121
0.2199889625
0.2199888109
0.2199886573
0.2199885016
0.2199883445
0.2199881854
0.2199880241
0.2199878606
0.219987695
0.2199874764
0.2199872184
0.219986957
0.219986692
0.2199864234
0.2199861519
0.2199858774
0.2199855992
0.2199853173
0.2199850315
0.2199846614
0.2199842633
0.2199838598
0.2199834508
0.219983037
0.2199826191
0.2199821955
0.2199817661
0.2199813222
0.2199807589
0.2199801879
0.2199796092
0.2199790229
0.2199784315
0.2199778321
0.2199772246
0.2199765746
0.2199758063
0.2199750276
0.2199742384
0.219973441
0.2199726344
0.219971817
0.2199709688
0.2199699599
0.2199689373
0.219967901
0.2199668549
0.2199657957
0.2199647223
0.2199635188
0.2199622164
0.2199608965
0.2199595621
0.2199582131
0.2199568459
0.2199553331
0.2199536945
0.2199520339
0.2199503567
0.2199486595
0.2199469394
0.2199449408
0.2199428981
0.2199408308
0.2199387431
0.2199366273
0.2199342619
0.2199317664
0.2199292397
0.2199266892
0.2199241043
0.2199211969
0.219918164
0.2199150966
0.2199119968
0.2199087989
0.2199051762
0.2199015046
0.2198978004
0.2198940479
0.2198898667
0.2198854944
0.2198810771
0.2198766085
0.2198717375
0.2198665428
0.2198612931
0.219855984
0.2198501791
0.2198440183
0.2198377961
0.2198314995
0.2198244446
0.2198171476
0.219809789
0.2198021379
0.2197936189
0.2197850046
0.2197762979
0.2197666542
0.2197565846
0.2197464273
0.2197356091
0.2197238649
0.2197120092
0.2196997054
0.2196860173
0.2196721892
0.2196580032
0.2196420538
0.2196259387
0.2196093672
0.2195907865
0.2195720195
0.2195524272
0.2195307839
0.2195089418
0.2194855302
0.2194603357
0.2194349149
0.2194066847
0.2193773931
0.2193472278
0.2193134948
0.2192794558
0.2192423615
0.219203155
0.2191628512
0.2191177289
0.2190722109
0.2190218733
0.2189694961
0.2189139063
0.2188536684
0.2187919408
0.2187227029
0.2186528801
0.2185743116
0.2184941111
0.2184056596
0.2183136044
0.2182135294
0.2181079538
0.2179941848
0.217873215
0.2177432993
0.2176048351
0.2174558819
0.2172975788
0.2171262011
0.2169454537
0.216747684
0.2165415746
0.2163127771
0.2160777008
0.2158130811
0.2155393876
0.215239106
0.2149202219
0.2145801694
0.2142088227
0.2138226614
0.2133931243
0.2129423904
0.2124591534
0.2119338821
0.2113842985
0.2107824107
0.2101425236
0.2094707081
0.2087292245
0.2079494869
0.2071258941
0.2062250941
0.2052768523
0.2042782022
0.2031878251
0.2020390147
0.2008294111
0.1995277616
0.1981432894
0.1966864937
0.1951481429
0.1934918232
0.1917474503
0.1899128692
0.1879778801
0.1859067879
0.1837280865
0.1814397529
0.1790344992
0.1764896373
0.1738008458
0.1709798987
0.1680248762
0.1649283489
0.1616849307
0.1582616221
0.1546800392
0.1509353151
0.1470238637
0.1429403867
0.1386786994
0.1342344981
0.1296001449
0.124765538
0.1197442172
0.1145395005
0.109156026
0.1036041287
0.09790144805
0.09207476729
0.0861638723
0.08021821242
0.07430156802
0.06849185235
0.06287609694
0.05754414876
0.05258067208
0.04805535646
0.04401516112
0.04047920685
0.03743760374
0.03485539976
0.03270146797
0.03090755301
0.02942115196
0.02817509799
0.02713071808
0.02625387809
0.02549543567
0.02483161534
0.02424405817
0.0237177756
0.02323884222
0.02279947247
0.02239561463
0.02201932441
0.02166615185
0.02133402478
0.02102174978
0.02072479221
0.02044578557
0.02017432616
0.0199154865
0.01966921876
0.01943326337
0.01920993442
0.0189905455
0.01877394442
0.0185674526
0.01836997205
0.01817433308
0.01798504467
0.01780194024
0.01762462007
0.01744968199
0.01727735929
0.01710972116
0.01694664738
0.0167874555
0.01663021238
0.01647575595
0.01632423474
0.01617577692
0.01602988771
0.01588733312
0.01574719254
0.01560920878
0.01547317438
0.0153391194
0.01520693921
0.01507787673
0.01495102008
0.0148256263
0.01470171188
0.0145792767
0.01445828797
0.01433972255
0.01422462068
0.01411092503
0.01399845536
0.01388729473
0.01377724097
0.01366825756
0.01356109915
0.01345595547
0.01335180796
0.01324856991
0.01314626166
0.01304496805
0.012944623
0.01284548135
0.01274910217
0.01265373758
0.01255930225
0.01246591844
0.01237354187
0.01228221519
0.01219206121
0.0121034965
0.01201761564
0.01193307085
0.01184980582
0.01176769818
0.01168678111
0.01160700201
0.01152839222
0.01145089266
0.01137481303
0.01130088217
0.0112279699
0.01115605913
0.01108510686
0.01101500838
0.01094568836
0.01087705287
0.0108089468
0.01074119998
0.01067375074
0.01060679681
0.01053980963
0.01047281074
0.01040584016
0.01033895237
0.01027220174
0.01020564853
0.01013937395
0.0100734769
0.01000810165
0.009944177185
0.00988134438
0.009819187314
0.009757710003
0.009696913543
0.00963679533
0.009577348015
0.009518558131
0.009460404285
0.009402854757
0.009345864328
0.009289553915
0.0092343211
0.009179545398
0.009125242542
0.009071429189
0.009018123275
0.008965344514
0.008913124389
0.008861480379
0.008810441896
0.008760045461
0.008710336322
0.008661386422
0.0086134716
0.008566979853
0.008521372372
0.008476657087
0.008432832152
0.00838988864
0.008347824582
0.008306661765
0.008266359591
0.008226903568
0.008188288362
0.0081504696
0.008113413071
0.008077076458
0.008041349067
0.008006120408
0.007971213665
0.007936641868
0.007902159357
0.007867665721
0.007833183113
0.00779870314
0.007764234044
0.007729780488
0.007695360682
0.007660975283
0.00762662953
0.0075923299
0.007558098536
0.007523935917
0.007489857341
0.007455874967
0.00742202616
0.007388324875
0.007354819302
0.007321574858
0.007288858159
0.007256817257
0.007225191104
0.007193990753
0.007163228857
0.007132900512
0.007103015836
0.007073582049
0.007044597345
0.007016069036
0.006988004936
0.00696040182
0.006933263151
0.006906602719
0.00688041096
0.006854687804
0.006829455489
0.006804694942
0.006780410831
0.006756608955
0.006733281693
0.006710428324
0.006688033264
0.006666073743
0.006644620873
0.006623688265
0.006603130146
0.006582947164
0.006563137176
0.006543713149
0.006524664898
0.006506000117
0.00648771509
0.006469809842
0.006452290172
0.006435146809
0.006418394231
0.006402016743
0.006386022624
0.006370406097
0.006355166609
0.006340305986
0.00632581534
0.006311703547
0.006297955258
0.006284583634
0.0062715702
0.00625892423
0.006246633105
0.006234700417
0.006223117985
0.006211884473
0.006200995409
0.006190445319
0.006180232686
0.006170348708
0.006160794072
0.006151557451
0.006142641004
0.006134031663
0.006125732354
0.006117729011
0.006110024677
0.006102604989
0.006095472506
0.0060886132
0.006082028625
0.006075705656
0.006069644378
0.00606383307
0.006058269972
0.006052945178
0.00604785479
0.00604299106
0.006038347768
0.006033919687
0.006029698469
0.006025682796
0.00602186587
0.006018265064
0.006014919375
0.006012048882
0.00601030912
0.00601030912
0.00601030912
0.00601030912
0.00601030912
)
;

boundaryField
{
    bottom
    {
        type            calculated;
        value           uniform 0.2199902752;
    }
    top
    {
        type            calculated;
        value           uniform 0.00601030912;
    }
    frontAndBack
    {
        type            empty;
    }
}


// ************************************************************************* //
