/*--------------------------------*- C++ -*----------------------------------*\
| =========                 |                                                 |
| \\      /  F ield         | OpenFOAM: The Open Source CFD Toolbox           |
|  \\    /   O peration     | Version:  v2006                                 |
|   \\  /    A nd           | Website:  www.openfoam.com                      |
|    \\/     M anipulation  |                                                 |
\*---------------------------------------------------------------------------*/
FoamFile
{
    version     2.0;
    format      ascii;
    class       volScalarField;
    location    "0.03302";
    object      OH;
}
// * * * * * * * * * * * * * * * * * * * * * * * * * * * * * * * * * * * * * //

dimensions      [0 0 0 0 0 0 0];


internalField   nonuniform List<scalar> 
500
(
4.805144705e-15
4.812052868e-15
4.819054195e-15
4.826149943e-15
4.833341385e-15
4.840629812e-15
4.848016532e-15
4.85550287e-15
4.866084211e-15
4.87692838e-15
4.887918796e-15
4.89905743e-15
4.910346281e-15
4.921787375e-15
4.933376139e-15
4.945069281e-15
4.956920118e-15
4.968930777e-15
4.981103413e-15
4.993440212e-15
5.005943386e-15
5.021725344e-15
5.038446741e-15
5.055393645e-15
5.072569098e-15
5.089976181e-15
5.107617991e-15
5.125408552e-15
5.143439039e-15
5.161712688e-15
5.180232778e-15
5.199002632e-15
5.220812591e-15
5.244925072e-15
5.269362737e-15
5.294129971e-15
5.31923122e-15
5.344603259e-15
5.370257488e-15
5.396257695e-15
5.422608544e-15
5.449314764e-15
5.480962195e-15
5.514349156e-15
5.548186379e-15
5.582479935e-15
5.617182066e-15
5.65223111e-15
5.68775283e-15
5.723753601e-15
5.760755865e-15
5.804899997e-15
5.849639464e-15
5.894982293e-15
5.940922049e-15
5.987263781e-15
6.034230484e-15
6.081830587e-15
6.132128213e-15
6.18967079e-15
6.247989395e-15
6.307094493e-15
6.366816189e-15
6.427223372e-15
6.488445215e-15
6.551695545e-15
6.624916912e-15
6.699125753e-15
6.774335385e-15
6.850259411e-15
6.927125911e-15
7.005029045e-15
7.091149483e-15
7.183562298e-15
7.277221406e-15
7.371899866e-15
7.467622284e-15
7.564635629e-15
7.670943962e-15
7.785301237e-15
7.901200751e-15
8.018253801e-15
8.136706582e-15
8.256756834e-15
8.394630895e-15
8.535450108e-15
8.677970836e-15
8.821892297e-15
8.967754704e-15
9.129727519e-15
9.300170433e-15
9.472740722e-15
9.646938495e-15
9.823485524e-15
1.00209461e-14
1.022662944e-14
1.043464858e-14
1.064486313e-14
1.086156081e-14
1.110589983e-14
1.135353404e-14
1.160337124e-14
1.185646084e-14
1.21375596e-14
1.243120552e-14
1.272787178e-14
1.302798673e-14
1.335448093e-14
1.370220795e-14
1.405362365e-14
1.440901111e-14
1.479695345e-14
1.520829119e-14
1.562372834e-14
1.604412785e-14
1.651436297e-14
1.70005678e-14
1.749088356e-14
1.800050031e-14
1.856722725e-14
1.914029512e-14
1.971950705e-14
2.036043929e-14
2.102947751e-14
2.17043401e-14
2.242280028e-14
2.320231832e-14
2.398923868e-14
2.480576254e-14
2.571359112e-14
2.663070286e-14
2.757148519e-14
2.862862779e-14
2.969675333e-14
3.079504591e-14
3.202598578e-14
3.326926917e-14
3.456707694e-14
3.600034332e-14
3.744676664e-14
3.899689562e-14
4.066480165e-14
4.234769167e-14
4.421620794e-14
4.615486884e-14
4.815128957e-14
5.038347166e-14
5.263589575e-14
5.509024793e-14
5.768421667e-14
6.035072292e-14
6.33357165e-14
6.634688571e-14
6.96766357e-14
7.314121893e-14
7.681818685e-14
8.080242172e-14
8.48851487e-14
8.946437275e-14
9.408227546e-14
9.927836757e-14
1.045823724e-13
1.104318751e-13
1.165196437e-13
1.231376393e-13
1.301193139e-13
1.376427099e-13
1.456421961e-13
1.542331718e-13
1.633893498e-13
1.732390477e-13
1.837069464e-13
1.950393225e-13
2.069912156e-13
2.466458698e-13
2.985852147e-13
4.038372149e-13
5.203964098e-13
6.515889544e-13
7.872768995e-13
9.361356756e-13
1.094210388e-12
1.262772144e-12
1.446837885e-12
1.643982487e-12
1.978232702e-12
2.527581456e-12
3.425899643e-12
4.40231624e-12
5.423906144e-12
6.542678856e-12
8.605849494e-12
1.144386329e-11
1.730540577e-11
2.348158819e-11
3.000505865e-11
4.734348816e-11
7.061162474e-11
1.001620488e-10
1.495484077e-10
2.345875497e-10
3.59632122e-10
5.592423086e-10
9.257272023e-10
1.529194582e-09
2.474665942e-09
3.900920737e-09
6.896434226e-09
1.182002246e-08
1.916114648e-08
3.221552392e-08
5.241259899e-08
8.314893957e-08
1.288324181e-07
2.008739747e-07
3.074960462e-07
4.527387956e-07
6.458589032e-07
8.983271602e-07
1.223695361e-06
1.6570111e-06
2.205857353e-06
2.903901256e-06
3.831212242e-06
5.091237717e-06
6.840438888e-06
9.376103044e-06
1.319790538e-05
1.926850294e-05
2.835790971e-05
4.248657071e-05
6.371066491e-05
9.509990736e-05
0.0001409838803
0.0002070891798
0.0003006879784
0.0004297724093
0.0006022643611
0.0008255070542
0.001104320629
0.001439131918
0.001824418563
0.00224805467
0.0026924576
0.003136873472
0.003561153669
0.003949639373
0.004289932253
0.004578841848
0.004815651822
0.005007036071
0.005156782724
0.005269236905
0.005354728357
0.005418499251
0.005464666302
0.005496455811
0.005517850891
0.005532013807
0.00553557434
0.005534550608
0.005528287002
0.005518439455
0.005506812308
0.005490958091
0.005474489019
0.005453781057
0.005432302926
0.005409902779
0.005385510492
0.005362423487
0.005336650183
0.005307565809
0.005279634109
0.00525287044
0.005222359228
0.005192062344
0.00516275525
0.005134238878
0.005103370267
0.005071450362
0.005040398196
0.005010191498
0.004980703859
0.004948456381
0.00491646603
0.004885083608
0.004854335659
0.004824119714
0.004793253307
0.004761834856
0.004730899948
0.004700402068
0.004670347963
0.004640714169
0.004610520007
0.004580225238
0.00455027982
0.004520687688
0.004491448818
0.00446255537
0.004433930274
0.004405433526
0.004377284929
0.004349439857
0.004321918876
0.004294671932
0.004267689982
0.004240601028
0.004213277447
0.004186212741
0.004159384371
0.004132797631
0.004106474563
0.004080397996
0.004054540476
0.004028734937
0.004003163241
0.003977840718
0.003952800162
0.003928029689
0.003903540744
0.003879366252
0.003855530339
0.003832121871
0.003809042322
0.003786312133
0.003763897894
0.003741808664
0.003720030082
0.003698570711
0.003677414412
0.003656530794
0.003635907013
0.003615565172
0.003595502742
0.003575707719
0.0035561509
0.003536811264
0.003517662605
0.003498661648
0.003479760918
0.00346076884
0.003441293632
0.003421794036
0.003402291028
0.003382796263
0.003363325596
0.003343894859
0.003324521586
0.003305229422
0.003286047156
0.003267014129
0.003248309579
0.003229876102
0.00321164087
0.003193605059
0.003175768992
0.003158131904
0.00314069164
0.003123444249
0.003106383454
0.003089499951
0.003072780472
0.003056192228
0.003039686429
0.003023317233
0.003007089344
0.002991007737
0.002975077774
0.002959305345
0.00294369986
0.00292826654
0.002913014178
0.002897953685
0.002883098583
0.002868470373
0.002854122901
0.002840125533
0.002826394395
0.002812931872
0.002799737409
0.002786808317
0.002774144004
0.00276175103
0.002749617171
0.002737738065
0.002726112105
0.002714725932
0.002703569247
0.002692629308
0.002681872788
0.002671266423
0.002660756978
0.00265017845
0.002639556939
0.002628932002
0.002618310462
0.002607689733
0.002597072355
0.002586459763
0.002575857568
0.00256526597
0.002554686585
0.002544121407
0.002533577256
0.00252305428
0.002512557192
0.002502089737
0.002491663424
0.002481282552
0.002470961963
0.00246072181
0.002450625982
0.002440713902
0.002430930124
0.002421278071
0.002411761658
0.002402379366
0.002393134327
0.002384028774
0.002375062147
0.00236623671
0.002357554879
0.002349015656
0.002340620114
0.002332372518
0.002324269909
0.002316312266
0.002308506468
0.002300846615
0.002293334151
0.002285970869
0.002278754413
0.002271684559
0.002264756486
0.002257963151
0.002251314496
0.002244807816
0.002238417541
0.002232143874
0.002225986148
0.002219948393
0.002214027445
0.002208225695
0.002202541986
0.002196976329
0.002191530524
0.00218620169
0.002180994328
0.002175903558
0.002170931954
0.002166077721
0.002161340687
0.002156721419
0.002152217155
0.002147830652
0.002143557142
0.002139400713
0.002135355624
0.002131424757
0.002127604191
0.00212389504
0.002120294763
0.002116802944
0.002113418194
0.002110138809
0.00210696432
0.002103891989
0.002100922031
0.002098050926
0.002095279342
0.002092603218
0.002090023466
0.002087535711
0.0020851409
0.002082834568
0.00208061751
0.002078485368
0.002076438622
0.002074473194
0.002072589109
0.002070782725
0.002069053495
0.002067398338
0.002065816045
0.002064304206
0.002062860887
0.002061484465
0.002060172343
0.002058924114
0.002057737663
0.00205661839
0.002055578418
0.002054686156
0.002054145369
0.002054145369
0.002054145369
0.002054145369
0.002054145369
)
;

boundaryField
{
    bottom
    {
        type            calculated;
        value           uniform 4.801713759e-15;
    }
    top
    {
        type            calculated;
        value           uniform 0.002054145369;
    }
    frontAndBack
    {
        type            empty;
    }
}


// ************************************************************************* //
