/*--------------------------------*- C++ -*----------------------------------*\
| =========                 |                                                 |
| \\      /  F ield         | OpenFOAM: The Open Source CFD Toolbox           |
|  \\    /   O peration     | Version:  v2006                                 |
|   \\  /    A nd           | Website:  www.openfoam.com                      |
|    \\/     M anipulation  |                                                 |
\*---------------------------------------------------------------------------*/
FoamFile
{
    version     2.0;
    format      ascii;
    class       volScalarField;
    location    "0.03302";
    object      p;
}
// * * * * * * * * * * * * * * * * * * * * * * * * * * * * * * * * * * * * * //

dimensions      [1 -1 -2 0 0 0 0];


internalField   nonuniform List<scalar> 
500
(
101325.7006
101325.7006
101325.7006
101325.7006
101325.7006
101325.7006
101325.7006
101325.7006
101325.7006
101325.7006
101325.7006
101325.7006
101325.7006
101325.7006
101325.7005
101325.7005
101325.7005
101325.7005
101325.7005
101325.7005
101325.7005
101325.7005
101325.7005
101325.7005
101325.7004
101325.7004
101325.7004
101325.7004
101325.7004
101325.7003
101325.7003
101325.7003
101325.7003
101325.7003
101325.7002
101325.7002
101325.7002
101325.7001
101325.7001
101325.7001
101325.7
101325.7
101325.7
101325.6999
101325.6999
101325.6999
101325.6998
101325.6998
101325.6998
101325.6997
101325.6997
101325.6996
101325.6996
101325.6995
101325.6994
101325.6994
101325.6993
101325.6993
101325.6992
101325.6991
101325.699
101325.6989
101325.6988
101325.6987
101325.6986
101325.6985
101325.6984
101325.6983
101325.6982
101325.6981
101325.698
101325.6978
101325.6977
101325.6976
101325.6975
101325.6973
101325.6972
101325.6971
101325.6969
101325.6968
101325.6966
101325.6964
101325.6963
101325.6961
101325.6959
101325.6957
101325.6955
101325.6953
101325.6951
101325.6948
101325.6946
101325.6944
101325.6942
101325.694
101325.6937
101325.6934
101325.6931
101325.6928
101325.6926
101325.6923
101325.692
101325.6917
101325.6914
101325.6911
101325.6907
101325.6904
101325.69
101325.6897
101325.6893
101325.6889
101325.6886
101325.6881
101325.6877
101325.6873
101325.6869
101325.6864
101325.686
101325.6855
101325.685
101325.6845
101325.684
101325.6834
101325.6829
101325.6824
101325.6818
101325.6813
101325.6807
101325.6801
101325.6795
101325.6788
101325.6782
101325.6775
101325.6769
101325.6762
101325.6755
101325.6748
101325.6741
101325.6733
101325.6726
101325.6718
101325.671
101325.6702
101325.6694
101325.6685
101325.6677
101325.6668
101325.6659
101325.665
101325.664
101325.6631
101325.6622
101325.6612
101325.6603
101325.6592
101325.6582
101325.6572
101325.6562
101325.6552
101325.6541
101325.6531
101325.6521
101325.651
101325.6499
101325.6489
101325.6479
101325.6469
101325.6459
101325.645
101325.644
101325.6431
101325.6423
101325.6415
101325.6408
101325.6402
101325.6396
101325.6391
101325.6387
101325.6383
101325.6382
101325.6381
101325.6382
101325.6383
101325.6385
101325.6389
101325.6393
101325.6398
101325.6404
101325.641
101325.6418
101325.6425
101325.6432
101325.6438
101325.6443
101325.6448
101325.6453
101325.6456
101325.6455
101325.6454
101325.6452
101325.6445
101325.6437
101325.6427
101325.6414
101325.6401
101325.6388
101325.6376
101325.6375
101325.6381
101325.6393
101325.6412
101325.6431
101325.645
101325.6468
101325.6484
101325.6496
101325.6504
101325.6508
101325.6509
101325.6505
101325.6503
101325.6499
101325.6493
101325.6484
101325.6472
101325.6457
101325.6441
101325.642
101325.6398
101325.6369
101325.6335
101325.6293
101325.6238
101325.6171
101325.6086
101325.598
101325.5844
101325.5669
101325.5452
101325.5191
101325.4884
101325.4536
101325.4161
101325.3774
101325.3397
101325.305
101325.2748
101325.2497
101325.2301
101325.215
101325.2033
101325.1944
101325.1873
101325.1814
101325.1762
101325.1715
101325.1671
101325.1629
101325.1591
101325.1556
101325.1523
101325.1491
101325.1458
101325.1426
101325.1396
101325.1367
101325.1343
101325.1321
101325.1295
101325.1271
101325.1246
101325.1225
101325.1212
101325.1194
101325.1171
101325.1154
101325.1139
101325.112
101325.1102
101325.1087
101325.1074
101325.1059
101325.1041
101325.1025
101325.1008
101325.0991
101325.0973
101325.0953
101325.0934
101325.0913
101325.0892
101325.0872
101325.0853
101325.0833
101325.0815
101325.0797
101325.078
101325.0766
101325.0754
101325.0744
101325.0736
101325.0729
101325.0722
101325.0716
101325.0714
101325.0712
101325.0709
101325.0708
101325.0705
101325.0702
101325.0698
101325.0694
101325.0689
101325.0682
101325.0674
101325.0664
101325.0652
101325.0637
101325.0623
101325.0607
101325.0588
101325.0569
101325.0549
101325.0529
101325.0507
101325.0486
101325.0467
101325.0448
101325.0431
101325.0413
101325.0398
101325.0383
101325.0368
101325.0352
101325.0336
101325.032
101325.0303
101325.0283
101325.0262
101325.0239
101325.0215
101325.0189
101325.0163
101325.0136
101325.0109
101325.0083
101325.0058
101325.0033
101325.001
101324.9987
101324.9966
101324.9944
101324.9924
101324.9903
101324.9882
101324.9862
101324.9842
101324.9823
101324.9806
101324.9791
101324.978
101324.9774
101324.9773
101324.9777
101324.9789
101324.9804
101324.9824
101324.9847
101324.987
101324.9894
101324.9915
101324.9934
101324.9948
101324.9958
101324.9962
101324.996
101324.9953
101324.9939
101324.9921
101324.9898
101324.9872
101324.9845
101324.9818
101324.9794
101324.9776
101324.9764
101324.9761
101324.9764
101324.9772
101324.9782
101324.9793
101324.9802
101324.9809
101324.9813
101324.9817
101324.9817
101324.9817
101324.9813
101324.9807
101324.9798
101324.9786
101324.9773
101324.9761
101324.975
101324.9741
101324.9735
101324.9734
101324.9737
101324.9744
101324.9756
101324.9767
101324.9775
101324.9774
101324.9762
101324.9737
101324.97
101324.9655
101324.9605
101324.9551
101324.9493
101324.9432
101324.9368
101324.9301
101324.9233
101324.9165
101324.9099
101324.9034
101324.8973
101324.8913
101324.8854
101324.8786
101324.8704
101324.8606
101324.8493
101324.8381
101324.8291
101324.8245
101324.8257
101324.8336
101324.8469
101324.864
101324.882
101324.898
101324.91
101324.9176
101324.9216
101324.9229
101324.9223
101324.9197
101324.9159
101324.9125
101324.9117
101324.9152
101324.9233
101324.9353
101324.9499
101324.9662
101324.9836
101325.0021
101325.0215
101325.0408
101325.0587
101325.0729
101325.081
101325.0817
101325.0762
101325.0681
101325.0608
101325.0566
101325.0553
101325.0557
101325.0551
101325.0512
101325.0436
101325.0338
101325.0237
101325.0135
101325.0008
101324.9843
101324.9668
101324.9527
101324.944
101324.939
101324.9344
101324.9294
101324.9274
101324.9307
101324.9358
101324.9371
101324.9321
101324.9214
101324.9048
101324.8842
101324.866
101324.8541
101324.8467
101324.8414
101324.8366
101324.8288
101324.8203
101324.8193
)
;

boundaryField
{
    bottom
    {
        type            zeroGradient;
    }
    top
    {
        type            waveTransmissive;
        gamma           1.4;
        fieldInf        101325;
        lInf            0.3;
        value           uniform 101324.8235;
    }
    frontAndBack
    {
        type            empty;
    }
}


// ************************************************************************* //
