/*--------------------------------*- C++ -*----------------------------------*\
| =========                 |                                                 |
| \\      /  F ield         | OpenFOAM: The Open Source CFD Toolbox           |
|  \\    /   O peration     | Version:  v2006                                 |
|   \\  /    A nd           | Website:  www.openfoam.com                      |
|    \\/     M anipulation  |                                                 |
\*---------------------------------------------------------------------------*/
FoamFile
{
    version     2.0;
    format      ascii;
    class       volScalarField;
    location    "0.03302";
    object      p_0;
}
// * * * * * * * * * * * * * * * * * * * * * * * * * * * * * * * * * * * * * //

dimensions      [1 -1 -2 0 0 0 0];


internalField   nonuniform List<scalar> 
500
(
101325.6976
101325.6976
101325.6976
101325.6976
101325.6976
101325.6976
101325.6976
101325.6976
101325.6976
101325.6976
101325.6976
101325.6976
101325.6976
101325.6976
101325.6976
101325.6976
101325.6976
101325.6976
101325.6976
101325.6976
101325.6976
101325.6976
101325.6976
101325.6976
101325.6975
101325.6975
101325.6975
101325.6975
101325.6975
101325.6974
101325.6974
101325.6974
101325.6974
101325.6974
101325.6973
101325.6973
101325.6973
101325.6973
101325.6973
101325.6972
101325.6972
101325.6972
101325.6972
101325.6971
101325.6971
101325.697
101325.697
101325.6969
101325.6969
101325.6968
101325.6968
101325.6967
101325.6967
101325.6966
101325.6966
101325.6965
101325.6965
101325.6964
101325.6964
101325.6963
101325.6962
101325.6962
101325.6961
101325.696
101325.696
101325.6959
101325.6958
101325.6957
101325.6956
101325.6955
101325.6954
101325.6953
101325.6952
101325.6951
101325.695
101325.6949
101325.6948
101325.6947
101325.6945
101325.6944
101325.6942
101325.6941
101325.694
101325.6938
101325.6937
101325.6935
101325.6934
101325.6932
101325.693
101325.6929
101325.6927
101325.6925
101325.6923
101325.692
101325.6918
101325.6916
101325.6914
101325.6912
101325.691
101325.6907
101325.6904
101325.6902
101325.6899
101325.6896
101325.6893
101325.689
101325.6887
101325.6884
101325.6881
101325.6878
101325.6874
101325.6871
101325.6867
101325.6863
101325.6859
101325.6855
101325.6851
101325.6846
101325.6842
101325.6838
101325.6833
101325.6828
101325.6823
101325.6818
101325.6812
101325.6807
101325.6801
101325.6796
101325.679
101325.6784
101325.6778
101325.6771
101325.6765
101325.6758
101325.6751
101325.6743
101325.6736
101325.6728
101325.672
101325.6712
101325.6704
101325.6696
101325.6688
101325.6679
101325.667
101325.6661
101325.6652
101325.6643
101325.6633
101325.6623
101325.6613
101325.6603
101325.6593
101325.6582
101325.6572
101325.6562
101325.6551
101325.6541
101325.653
101325.6519
101325.6509
101325.6499
101325.6488
101325.6478
101325.6468
101325.6458
101325.6448
101325.6438
101325.6429
101325.642
101325.6412
101325.6403
101325.6396
101325.6388
101325.6382
101325.6375
101325.637
101325.6365
101325.6362
101325.636
101325.6359
101325.6359
101325.636
101325.6362
101325.6364
101325.6368
101325.6373
101325.6379
101325.6387
101325.6395
101325.6404
101325.6413
101325.6421
101325.6431
101325.644
101325.645
101325.6456
101325.6463
101325.6469
101325.6471
101325.6472
101325.6472
101325.6467
101325.6459
101325.6445
101325.6424
101325.6391
101325.6404
101325.6442
101325.6469
101325.6486
101325.6499
101325.6509
101325.6516
101325.6519
101325.6518
101325.6515
101325.651
101325.6501
101325.6494
101325.6486
101325.6477
101325.6466
101325.6452
101325.6435
101325.6417
101325.6395
101325.6372
101325.6342
101325.6308
101325.6264
101325.6209
101325.6141
101325.6055
101325.595
101325.5814
101325.5639
101325.5422
101325.5161
101325.4854
101325.4507
101325.4131
101325.3744
101325.3366
101325.3018
101325.2715
101325.2464
101325.2267
101325.2115
101325.1998
101325.1909
101325.1838
101325.1779
101325.1728
101325.1682
101325.164
101325.16
101325.1563
101325.1531
101325.15
101325.1469
101325.1439
101325.1408
101325.1381
101325.1353
101325.133
101325.131
101325.1284
101325.1261
101325.1237
101325.1217
101325.1204
101325.1186
101325.1164
101325.1146
101325.1131
101325.1112
101325.1093
101325.1076
101325.1061
101325.1043
101325.1024
101325.1004
101325.0984
101325.0964
101325.0943
101325.0922
101325.0901
101325.088
101325.0859
101325.084
101325.0822
101325.0805
101325.0791
101325.0777
101325.0764
101325.0755
101325.0748
101325.0742
101325.0737
101325.0733
101325.0728
101325.0725
101325.0723
101325.072
101325.0718
101325.0715
101325.0711
101325.0704
101325.0698
101325.069
101325.0681
101325.067
101325.0658
101325.0645
101325.0628
101325.0611
101325.0593
101325.0574
101325.0553
101325.0533
101325.0512
101325.0493
101325.0472
101325.0452
101325.0435
101325.0418
101325.0402
101325.0387
101325.0372
101325.0358
101325.0343
101325.0327
101325.0309
101325.0291
101325.0271
101325.025
101325.0226
101325.0202
101325.0177
101325.015
101325.0124
101325.0099
101325.0073
101325.005
101325.0026
101325.0004
101324.9983
101324.9962
101324.9942
101324.9921
101324.9901
101324.988
101324.9859
101324.9839
101324.982
101324.9804
101324.9789
101324.9779
101324.9773
101324.9772
101324.9777
101324.9789
101324.9804
101324.9824
101324.9846
101324.987
101324.9892
101324.9914
101324.9931
101324.9945
101324.9955
101324.9958
101324.9956
101324.9949
101324.9935
101324.9916
101324.9893
101324.9867
101324.9839
101324.9812
101324.9788
101324.9769
101324.9757
101324.9752
101324.9755
101324.9763
101324.9774
101324.9786
101324.9796
101324.9805
101324.9811
101324.9816
101324.9819
101324.982
101324.9818
101324.9814
101324.9806
101324.9796
101324.9785
101324.9774
101324.9763
101324.9754
101324.9749
101324.9746
101324.9748
101324.9755
101324.9764
101324.9776
101324.9784
101324.9786
101324.9777
101324.9755
101324.9722
101324.9679
101324.963
101324.9576
101324.952
101324.946
101324.9397
101324.9331
101324.9262
101324.9194
101324.9126
101324.906
101324.8997
101324.8937
101324.8879
101324.882
101324.875
101324.8664
101324.8562
101324.8451
101324.835
101324.8278
101324.8257
101324.8293
101324.8394
101324.8542
101324.8717
101324.889
101324.9035
101324.9136
101324.9198
101324.9226
101324.9231
101324.9212
101324.9176
101324.9132
101324.9105
101324.9113
101324.9169
101324.9272
101324.9408
101324.9561
101324.9725
101324.9898
101325.0082
101325.0275
101325.0467
101325.0639
101325.0766
101325.0822
101325.0806
101325.0738
101325.0654
101325.0588
101325.0555
101325.0549
101325.0553
101325.0541
101325.0493
101325.041
101325.031
101325.0208
101325.0098
101324.9958
101324.979
101324.9627
101324.9503
101324.9427
101324.9375
101324.9325
101324.928
101324.9274
101324.9317
101324.9365
101324.9366
101324.931
101324.9199
101324.9023
101324.8809
101324.8633
101324.8523
101324.8451
101324.8397
101324.8347
101324.8271
101324.8202
101324.8216
)
;

boundaryField
{
    bottom
    {
        type            zeroGradient;
    }
    top
    {
        type            waveTransmissive;
        gamma           1.4;
        fieldInf        101325;
        lInf            0.3;
        value           uniform 101324.8267;
    }
    frontAndBack
    {
        type            empty;
    }
}


// ************************************************************************* //
