/*--------------------------------*- C++ -*----------------------------------*\
| =========                 |                                                 |
| \\      /  F ield         | OpenFOAM: The Open Source CFD Toolbox           |
|  \\    /   O peration     | Version:  v2006                                 |
|   \\  /    A nd           | Website:  www.openfoam.com                      |
|    \\/     M anipulation  |                                                 |
\*---------------------------------------------------------------------------*/
FoamFile
{
    version     2.0;
    format      ascii;
    class       volScalarField;
    location    "0.03302";
    object      rho;
}
// * * * * * * * * * * * * * * * * * * * * * * * * * * * * * * * * * * * * * //

dimensions      [1 -3 0 0 0 0 0];


internalField   nonuniform List<scalar> 
500
(
1.12250118
1.122479856
1.122458244
1.12243634
1.122414141
1.122391643
1.122368841
1.122345732
1.122322175
1.122298295
1.122274094
1.122249565
1.122224706
1.122199512
1.122173993
1.122148243
1.122122147
1.122095698
1.122068893
1.122041726
1.122014193
1.121985854
1.121957032
1.121927821
1.121898216
1.121868211
1.121837802
1.121807137
1.121776058
1.12174456
1.121712637
1.121680283
1.121646923
1.121612701
1.121578017
1.121542866
1.121507241
1.121471232
1.121434822
1.121397921
1.121360522
1.121322619
1.121283005
1.121242513
1.121201474
1.121159882
1.121117795
1.121075287
1.121032205
1.120988543
1.120944131
1.120897047
1.120849328
1.120800966
1.120751967
1.120702539
1.120652445
1.120601675
1.12054949
1.120494266
1.120438297
1.120381573
1.120324258
1.120266285
1.12020753
1.12014751
1.120083095
1.120017812
1.119951649
1.119884857
1.119817236
1.119748703
1.119676197
1.11960053
1.119523844
1.119446322
1.119367946
1.119288513
1.119204392
1.119116142
1.119026702
1.118936371
1.118844961
1.118752317
1.118650714
1.118547225
1.118442484
1.118336714
1.118229518
1.118113875
1.117993561
1.117871744
1.117748779
1.117624156
1.117488384
1.117347941
1.117205903
1.117062367
1.116914983
1.116752665
1.116588158
1.116422188
1.116254057
1.116070521
1.115879833
1.115687183
1.115492294
1.115282667
1.115061086
1.114837155
1.114610693
1.114365949
1.114107941
1.113847362
1.11358367
1.113291992
1.112991055
1.112687574
1.112372942
1.112026119
1.111675416
1.111320953
1.110931615
1.11052617
1.110117196
1.10968342
1.109215076
1.108742284
1.108252538
1.10771131
1.107164548
1.10660417
1.105978403
1.105346134
1.104696651
1.103972901
1.103241893
1.102480207
1.101642994
1.100798095
1.099895552
1.098927613
1.097950977
1.096872299
1.095754694
1.094605126
1.093327198
1.092037682
1.090639128
1.089164938
1.087651379
1.085968282
1.084270425
1.082405101
1.080468217
1.078420801
1.076214129
1.073955994
1.071445716
1.068914235
1.066094968
1.06322016
1.060079408
1.056820925
1.053309864
1.049624473
1.045687735
1.041529577
1.037105231
1.032426286
1.027446196
1.022196945
1.016587613
1.010717915
1.004420767
0.9979081273
0.9908666258
0.983668076
0.9757820929
0.9676848358
0.9590025493
0.9499304448
0.9404176667
0.930309119
0.9199102389
0.9087865016
0.8973478325
0.8854488009
0.8729500706
0.860103532
0.8466029321
0.8327007756
0.8184515864
0.8036587575
0.7885284807
0.7730210965
0.7571108951
0.7409526435
0.7245369402
0.7078046112
0.6909334138
0.6739307365
0.6567735399
0.6395814686
0.6223755186
0.6051486602
0.5880176458
0.5710009914
0.5541236904
0.5373677497
0.5209055284
0.5046452998
0.4886357526
0.4728875721
0.4575010735
0.4424821164
0.4277778852
0.4134207207
0.3994142892
0.3857732807
0.3726067061
0.3598068983
0.3473758822
0.3353310143
0.3236737687
0.3123946778
0.3014997033
0.2910049157
0.2809367962
0.27124636
0.2619487031
0.253043141
0.2445378181
0.2364478734
0.2287928513
0.22159919
0.214891866
0.2086987861
0.2030513763
0.1979777124
0.1934976429
0.1896177521
0.1863254878
0.1835865668
0.1813447335
0.1795266723
0.1780520525
0.176853647
0.1758568248
0.1750076957
0.1742610415
0.1735897636
0.1729726189
0.172393477
0.1718452604
0.1713226411
0.1708206985
0.1703384859
0.1698786508
0.1694249599
0.1689899586
0.1685664705
0.168158519
0.1677701867
0.1673902388
0.1670310313
0.1666709658
0.1663247796
0.1659936544
0.1656729349
0.1653706955
0.1650692619
0.164766266
0.1644783028
0.1642039398
0.1639293436
0.1636640425
0.1634083422
0.1631615513
0.162917392
0.1626767852
0.1624435615
0.1622175023
0.1619975096
0.1617810204
0.161569033
0.16136172
0.1611592664
0.1609608678
0.1607687352
0.1605812324
0.1603971659
0.1602161893
0.1600383436
0.1598634575
0.1596946935
0.1595300005
0.1593676138
0.1592075435
0.1590497737
0.1588942395
0.1587431491
0.1585989722
0.1584568949
0.1583166342
0.1581783295
0.1580416804
0.1579066491
0.1577749167
0.1576469134
0.157520394
0.1573952163
0.1572714023
0.1571490665
0.157028097
0.1569090465
0.1567952728
0.1566829877
0.1565719893
0.156462428
0.1563542284
0.1562474352
0.1561421978
0.1560394201
0.1559413759
0.1558451778
0.1557505874
0.1556574485
0.1555657925
0.1554755545
0.1553867692
0.1552993619
0.1552140367
0.1551322757
0.1550517516
0.1549724358
0.1548942774
0.1548171542
0.15474098
0.1546656485
0.1545909874
0.1545168081
0.1544431669
0.1543705935
0.1542980787
0.1542256355
0.154153307
0.1540811519
0.1540092282
0.1539376001
0.153866354
0.1537955949
0.1537255001
0.1536578981
0.1535919652
0.1535268106
0.1534624361
0.1533988408
0.1533360195
0.1532739628
0.1532126545
0.1531520701
0.1530921748
0.1530329196
0.1529746079
0.1529180847
0.152862081
0.1528066112
0.1527516908
0.1526973362
0.1526435661
0.1525904108
0.1525378863
0.1524860211
0.1524348503
0.1523844182
0.1523347965
0.1522864773
0.1522401993
0.1521948349
0.15215039
0.1521068615
0.1520642386
0.1520225181
0.1519817207
0.1519418037
0.151902751
0.1518645552
0.1518271706
0.1517905619
0.1517546859
0.1517194316
0.151684689
0.1516502829
0.1516164647
0.1515828514
0.1515492453
0.1515156679
0.1514821109
0.1514485831
0.1514150888
0.1513816454
0.1513482539
0.1513149199
0.1512816495
0.1512484638
0.1512153633
0.1511823635
0.1511494751
0.1511167335
0.1510841515
0.1510517754
0.1510196666
0.1509882861
0.1509578456
0.1509278127
0.1508981976
0.1508690124
0.1508402518
0.1508119243
0.1507840368
0.1507565869
0.1507295807
0.1507030259
0.1506769187
0.1506512616
0.1506260679
0.1506013273
0.1505770388
0.1505532223
0.1505298578
0.1505069487
0.1504845009
0.1504625083
0.1504409734
0.1504198841
0.1503992204
0.1503791577
0.1503597676
0.1503407365
0.1503220603
0.1503037324
0.1502857614
0.1502681373
0.1502508678
0.1502339508
0.1502173866
0.1502011808
0.1501853253
0.150169836
0.1501547008
0.1501399301
0.1501255184
0.1501114642
0.1500977669
0.1500844164
0.1500714203
0.1500587639
0.1500464589
0.1500344866
0.1500228533
0.1500115441
0.1500005581
0.1499898859
0.149979528
0.1499694851
0.1499597574
0.1499503465
0.149941244
0.1499324485
0.1499239456
0.1499157338
0.1499078001
0.1499001493
0.1498927715
0.1498856693
0.1498788261
0.1498722423
0.1498659089
0.1498598337
0.1498540075
0.1498484281
0.1498430796
0.149837959
0.1498330622
0.1498283892
0.1498239274
0.1498196628
0.1498155871
0.1498116933
0.1498079797
0.149804443
0.1498011086
0.1497980179
0.1497953705
0.1497937649
0.1497937578
0.1497937462
0.1497937336
0.1497937323
)
;

boundaryField
{
    bottom
    {
        type            calculated;
        value           uniform 1.122511771;
    }
    top
    {
        type            calculated;
        value           uniform 0.1497937385;
    }
    frontAndBack
    {
        type            empty;
    }
}


// ************************************************************************* //
