/*--------------------------------*- C++ -*----------------------------------*\
| =========                 |                                                 |
| \\      /  F ield         | OpenFOAM: The Open Source CFD Toolbox           |
|  \\    /   O peration     | Version:  v2006                                 |
|   \\  /    A nd           | Website:  www.openfoam.com                      |
|    \\/     M anipulation  |                                                 |
\*---------------------------------------------------------------------------*/
FoamFile
{
    version     2.0;
    format      ascii;
    class       volScalarField;
    location    "0.03302";
    object      rho_0;
}
// * * * * * * * * * * * * * * * * * * * * * * * * * * * * * * * * * * * * * //

dimensions      [1 -3 0 0 0 0 0];


internalField   nonuniform List<scalar> 
500
(
1.122501157
1.122479841
1.122458237
1.122436342
1.122414151
1.122391661
1.122368868
1.122345768
1.12232222
1.122298349
1.122274156
1.122249637
1.122224787
1.122199602
1.122174092
1.122148353
1.122122266
1.122095827
1.122069032
1.122041875
1.122014352
1.121986024
1.121957212
1.121928012
1.121898418
1.121868424
1.121838027
1.121807373
1.121776305
1.121744819
1.121712908
1.121680566
1.121647218
1.121613009
1.121578338
1.1215432
1.121507589
1.121471592
1.121435196
1.121398309
1.121360924
1.121323035
1.121283436
1.121242958
1.121201935
1.121160359
1.121118287
1.121075795
1.12103273
1.120989084
1.120944688
1.120897622
1.12084992
1.120801576
1.120752595
1.120703186
1.12065311
1.120602359
1.120550192
1.120494989
1.120439041
1.120382339
1.120325045
1.120267093
1.12020836
1.120148362
1.120083972
1.120018713
1.119952574
1.119885807
1.119818211
1.119749703
1.119677224
1.119601586
1.119524928
1.119447435
1.119369088
1.119289684
1.119205595
1.119117378
1.119027971
1.118937674
1.118846297
1.118753688
1.118652123
1.118548671
1.118443969
1.118338239
1.118231082
1.118115482
1.117995212
1.117873441
1.117750521
1.117625944
1.117490223
1.117349831
1.117207846
1.117064362
1.116917033
1.116754775
1.116590328
1.116424419
1.116256349
1.116072881
1.115882263
1.115689684
1.115494866
1.115285316
1.115063817
1.114839967
1.114613588
1.114368933
1.114111019
1.113850534
1.113586938
1.113295366
1.112994538
1.112691167
1.112376649
1.112029951
1.111679374
1.111325038
1.11093584
1.110530541
1.110121714
1.109688094
1.109219917
1.108747294
1.108257722
1.107716686
1.107170118
1.10660994
1.105984393
1.105352347
1.104703093
1.103979596
1.103248844
1.102487424
1.101650502
1.100805897
1.099903667
1.098936061
1.097959763
1.096881454
1.09576423
1.094615054
1.093337559
1.092048478
1.090650394
1.089176697
1.087663643
1.0859811
1.084283804
1.082419089
1.080482835
1.078436082
1.076230116
1.073972702
1.071463213
1.068932527
1.06611413
1.063240207
1.060100405
1.056842901
1.053332878
1.049648566
1.04571296
1.041555984
1.037132872
1.032455212
1.027476461
1.022228597
1.016620707
1.010752495
1.004456753
0.9979454925
0.9909055928
0.9837086991
0.9758244245
0.9677288937
0.9590483623
0.9499780242
0.9404670234
0.9303602413
0.919963112
0.9088407565
0.8974035818
0.8855062216
0.8730090812
0.8601640894
0.8466649086
0.8327638346
0.818515454
0.8037237134
0.7885944228
0.7730879016
0.7571778552
0.7410198625
0.7246045825
0.7078718819
0.6910004993
0.6739976895
0.656839663
0.6396470278
0.6224403597
0.6052122751
0.5880798853
0.5710621248
0.5541836965
0.5374261564
0.5209622735
0.5047003491
0.4886892445
0.4729396816
0.4575513713
0.4425306083
0.4278245802
0.4134655041
0.3994570665
0.3858143695
0.3726461408
0.3598447077
0.3474120972
0.3353655746
0.3237066856
0.3124260909
0.3015295279
0.2910333642
0.2809637373
0.2712719838
0.2619729194
0.253065937
0.2445592108
0.2364678658
0.2288115747
0.2216166122
0.2149078117
0.2087132382
0.2030643158
0.1979891267
0.1935075361
0.1896261554
0.1863324673
0.1835922305
0.1813492334
0.1795301944
0.1780547996
0.1768559121
0.1758586931
0.1750093015
0.1742624616
0.1735910399
0.1729737963
0.1723945752
0.171846295
0.1713236004
0.170821595
0.1703393538
0.1698795065
0.1694257448
0.1689907268
0.1685671953
0.1681592033
0.1677708562
0.1673908522
0.167031618
0.1666715483
0.1663253162
0.1659941813
0.1656734228
0.1653711485
0.1650697328
0.1647667111
0.164478719
0.1642043485
0.1639297346
0.1636644128
0.1634086934
0.1631618864
0.1629177247
0.162677103
0.1624438651
0.1622177926
0.1619977873
0.1617812907
0.1615692932
0.1613619707
0.1611595079
0.1609611006
0.1607689568
0.1605814471
0.1603973743
0.1602163917
0.1600385402
0.159863649
0.1596948745
0.1595301774
0.1593677866
0.1592077121
0.1590499383
0.1588944
0.1587432984
0.1585991177
0.1584570367
0.1583167723
0.1581784639
0.1580418112
0.1579067764
0.1577750367
0.15764703
0.1575205073
0.1573953263
0.1572715091
0.15714917
0.1570281973
0.15690914
0.156795363
0.1566830752
0.156572074
0.1564625101
0.156354308
0.1562475124
0.1561422728
0.1560394912
0.1559414434
0.1558452435
0.1557506513
0.1556575108
0.1555658532
0.1554756134
0.1553868264
0.1552994175
0.1552140894
0.1551323256
0.1550517996
0.154972482
0.1548943219
0.1548171971
0.1547410214
0.1546656887
0.1545910266
0.1545168466
0.1544432042
0.1543706303
0.1542981152
0.1542256718
0.154153343
0.1540811875
0.1540092634
0.1539376348
0.1538663881
0.1537956283
0.1537255325
0.1536579283
0.1535919948
0.1535268395
0.1534624645
0.1533988688
0.1533360474
0.1532739907
0.1532126825
0.1531520984
0.1530922033
0.1530329483
0.1529746359
0.1529181125
0.1528621083
0.1528066378
0.1527517165
0.1526973609
0.1526435895
0.1525904328
0.152537907
0.1524860402
0.152434868
0.1523844345
0.1523348115
0.1522864903
0.1522402113
0.152194846
0.1521504007
0.152106872
0.1520642493
0.1520225292
0.1519817325
0.151941816
0.1519027635
0.1518645677
0.1518271829
0.1517905737
0.1517546974
0.1517194427
0.1516846998
0.1516502935
0.1516164749
0.1515828614
0.151549255
0.1515156772
0.15148212
0.1514485922
0.1514150979
0.1513816547
0.1513482634
0.1513149297
0.1512816596
0.1512484744
0.1512153742
0.1511823746
0.1511494861
0.1511167438
0.1510841609
0.1510517833
0.151019673
0.1509882908
0.1509578492
0.1509278154
0.1508981997
0.1508690141
0.1508402529
0.1508119248
0.1507840369
0.1507565866
0.1507295803
0.1507030253
0.150676918
0.150651261
0.1506260674
0.1506013269
0.1505770382
0.1505532212
0.1505298559
0.1505069463
0.1504844987
0.1504625076
0.1504409753
0.1504198894
0.1503992293
0.1503791695
0.1503597816
0.1503407509
0.1503220735
0.1503037432
0.1502857696
0.1502681432
0.1502508719
0.1502339533
0.1502173874
0.1502011799
0.1501853236
0.1501698352
0.1501547022
0.1501399347
0.1501255261
0.1501114741
0.1500977778
0.1500844275
0.1500714312
0.1500587746
0.1500464693
0.1500344968
0.1500228624
0.1500115507
0.1500005612
0.1499898855
0.1499795255
0.1499694822
0.1499597555
0.1499503459
0.1499412445
0.149932449
0.1499239451
0.1499157318
0.1499077969
0.149900146
0.1498927679
0.1498856646
0.1498788194
0.149872235
0.1498659033
0.1498598308
0.1498540061
0.1498484265
0.1498430772
0.1498379574
0.1498330628
0.1498283911
0.1498239287
0.1498196625
0.1498155858
0.1498116913
0.1498079761
0.1498044383
0.1498011048
0.1497980154
0.1497953683
0.1497937624
0.149793755
0.1497937438
0.1497937335
0.1497937356
)
;

boundaryField
{
    bottom
    {
        type            calculated;
        value           uniform 1.122511744;
    }
    top
    {
        type            calculated;
        value           uniform 0.1497937432;
    }
    frontAndBack
    {
        type            empty;
    }
}


// ************************************************************************* //
