/*--------------------------------*- C++ -*----------------------------------*\
| =========                 |                                                 |
| \\      /  F ield         | OpenFOAM: The Open Source CFD Toolbox           |
|  \\    /   O peration     | Version:  v2006                                 |
|   \\  /    A nd           | Website:  www.openfoam.com                      |
|    \\/     M anipulation  |                                                 |
\*---------------------------------------------------------------------------*/
FoamFile
{
    version     2.0;
    format      ascii;
    class       volScalarField;
    location    "0.03302";
    object      T;
}
// * * * * * * * * * * * * * * * * * * * * * * * * * * * * * * * * * * * * * //

dimensions      [0 0 0 1 0 0 0];


internalField   nonuniform List<scalar> 
500
(
300.0028308
300.0085305
300.0143071
300.0201616
300.026095
300.0321085
300.0382031
300.0443798
300.0506757
300.0570579
300.0635262
300.0700818
300.0767257
300.0834593
300.0902797
300.0971616
300.1041363
300.1112051
300.1183692
300.1256299
300.1329885
300.140563
300.1482669
300.1560746
300.1639877
300.1720075
300.1801354
300.1883319
300.1966389
300.2050579
300.2135905
300.2222381
300.2311555
300.2403036
300.249575
300.2589714
300.2684946
300.2781205
300.2878535
300.2977177
300.307715
300.3178471
300.3284379
300.339264
300.350236
300.361356
300.3726084
300.3839734
300.3954916
300.4071652
300.4190394
300.4316306
300.4443915
300.4573245
300.4704278
300.4836458
300.497042
300.5106189
300.5245753
300.5393477
300.5543193
300.5694928
300.5848246
300.6003324
300.6160493
300.6321055
300.649343
300.6668129
300.6845185
300.7023922
300.7204879
300.7388275
300.758236
300.7784943
300.7990258
300.8197807
300.8407645
300.8620313
300.8845606
300.9082018
300.9321619
300.9563604
300.9808483
301.0056664
301.0329028
301.0606461
301.0887245
301.117079
301.1458158
301.1768352
301.2091152
301.2417981
301.2747891
301.3082251
301.3446795
301.3823957
301.4205403
301.4590874
301.4986736
301.542312
301.5865389
301.6311592
301.6763604
301.7257497
301.777079
301.8289362
301.8813962
301.9378711
301.9976
302.0579625
302.1190073
302.1850466
302.2547056
302.3250588
302.3962524
302.47512
302.5565148
302.6385979
302.723735
302.8177296
302.912776
303.0088414
303.1145388
303.2246695
303.3357589
303.4537141
303.581253
303.710003
303.843453
303.9912587
304.1405759
304.2936718
304.46511
304.6383293
304.8163578
305.0153487
305.216335
305.4259875
305.6570965
305.890327
306.1400254
306.4084202
306.6792262
306.9795142
307.2909679
307.6116305
307.9697701
308.3311573
308.7246792
309.1404293
309.5677497
310.0457716
310.5279852
311.060946
311.6153998
312.2037082
312.8409849
313.4939785
314.226113
314.9644315
315.7949373
316.6426648
317.5773893
318.5501229
319.6074345
320.7227627
321.924515
323.2022228
324.5743044
326.0365664
327.6094899
329.2810579
331.090574
332.998952
335.0802881
337.2466886
339.6395228
342.0958899
344.8608323
347.7205564
350.8579987
354.1897554
357.7426286
361.6223932
365.6564384
370.1340869
374.8163625
379.810837
385.2397045
390.9198227
397.1404689
403.7367244
410.6489447
418.224528
426.1906844
434.6048637
443.7505041
453.3496289
463.4306955
474.4058539
485.9077877
497.9646136
510.9009964
524.5706698
538.8866971
553.9383419
570.0583091
586.9044157
604.5074441
622.9829083
642.6025695
663.1120378
684.5101556
706.8443492
730.2731675
754.8323345
780.4214114
807.0387104
834.7291591
863.5149462
893.6284961
924.9035969
957.3632549
990.9922495
1025.81045
1061.863444
1099.14324
1137.66238
1177.441487
1218.373554
1260.339186
1303.268371
1347.019751
1391.378086
1436.055053
1480.663218
1524.761568
1567.82518
1609.239202
1648.353837
1684.540612
1717.263172
1746.163855
1771.125197
1792.301604
1810.089557
1825.032078
1837.623287
1848.467903
1858.018054
1866.65781
1874.625466
1882.11695
1889.265983
1896.130734
1902.757275
1909.193132
1915.435992
1921.439825
1927.424376
1933.20594
1938.876939
1944.377577
1949.646033
1954.837463
1959.774285
1964.753684
1969.566748
1974.195165
1978.703013
1982.969638
1987.245738
1991.567178
1995.692536
1999.638601
2003.605679
2007.455208
2011.178974
2014.786331
2018.369993
2021.913776
2025.361222
2028.714802
2031.988551
2035.221533
2038.39715
2041.512418
2044.564703
2047.564178
2050.478006
2053.328799
2056.135718
2058.902982
2061.629979
2064.318838
2066.91965
2069.463952
2071.978915
2074.464206
2076.919828
2079.346441
2081.709086
2083.967673
2086.198666
2088.405602
2090.586851
2092.746381
2094.884907
2096.975219
2099.009715
2101.024937
2103.02256
2105.002192
2106.962191
2108.903835
2110.818157
2112.65033
2114.461585
2116.255192
2118.028825
2119.783329
2121.517893
2123.230183
2124.905008
2126.504565
2128.076307
2129.624258
2131.150692
2132.654992
2134.138137
2135.599544
2137.04031
2138.448496
2139.799154
2141.131086
2142.444722
2143.740848
2145.021379
2146.287689
2147.541493
2148.785626
2150.023198
2151.253178
2152.466431
2153.680104
2154.89399
2156.107364
2157.319237
2158.528625
2159.734436
2160.935199
2162.129122
2163.313169
2164.456014
2165.571657
2166.6753
2167.766874
2168.84636
2169.913803
2170.969334
2172.013191
2173.045755
2174.067588
2175.079495
2176.076163
2177.042868
2178.001572
2178.951999
2179.89386
2180.826839
2181.750591
2182.664566
2183.568459
2184.461752
2185.343809
2186.213836
2187.070574
2187.90539
2188.705288
2189.489973
2190.259308
2191.013325
2191.752176
2192.475895
2193.184109
2193.877515
2194.556364
2195.220746
2195.871424
2196.508989
2197.134167
2197.748863
2198.354979
2198.955556
2199.546057
2200.13325
2200.720633
2201.307826
2201.894976
2202.48194
2203.06864
2203.654765
2204.240304
2204.825168
2205.409246
2205.992162
2206.573908
2207.154222
2207.732898
2208.309299
2208.883188
2209.453746
2210.019856
2210.573289
2211.110274
2211.640308
2212.163204
2212.678753
2213.187036
2213.687884
2214.181175
2214.666939
2215.145054
2215.61539
2216.078
2216.532826
2216.979638
2217.418594
2217.849697
2218.272574
2218.687544
2219.09453
2219.493433
2219.884383
2220.26739
2220.642716
2221.010744
2221.368322
2221.714101
2222.053694
2222.387089
2222.714323
2223.035182
2223.349833
2223.658151
2223.960195
2224.255965
2224.545367
2224.828552
2225.105282
2225.375816
2225.640017
2225.897981
2226.149717
2226.395195
2226.63456
2226.867668
2227.094772
2227.315653
2227.530617
2227.739512
2227.942545
2228.139657
2228.330983
2228.516546
2228.696418
2228.870691
2229.039391
2229.20266
2229.36049
2229.513067
2229.660354
2229.802569
2229.939663
2230.071867
2230.199132
2230.321695
2230.439514
2230.552821
2230.661589
2230.766036
2230.86616
2230.962156
2231.05405
2231.142009
2231.226095
2231.306438
2231.383138
2231.456284
2231.526013
2231.592347
2231.655397
2231.714877
2231.770144
2231.817561
2231.846299
2231.846299
2231.846299
2231.846299
2231.846299
)
;

boundaryField
{
    bottom
    {
        type            calculated;
        value           uniform 300;
    }
    top
    {
        type            calculated;
        value           uniform 2231.846299;
    }
    frontAndBack
    {
        type            empty;
    }
}


// ************************************************************************* //
