/*--------------------------------*- C++ -*----------------------------------*\
| =========                 |                                                 |
| \\      /  F ield         | OpenFOAM: The Open Source CFD Toolbox           |
|  \\    /   O peration     | Version:  v2006                                 |
|   \\  /    A nd           | Website:  www.openfoam.com                      |
|    \\/     M anipulation  |                                                 |
\*---------------------------------------------------------------------------*/
FoamFile
{
    version     2.0;
    format      ascii;
    class       volScalarField;
    location    "0.03302";
    object      theta1_0;
}
// * * * * * * * * * * * * * * * * * * * * * * * * * * * * * * * * * * * * * //

dimensions      [0 0 0 0 0 0 0];


internalField   nonuniform List<scalar> 
500
(
1.000078901
1.000237767
1.000398776
1.000561956
1.000727337
1.000894948
1.001064819
1.001236982
1.00141246
1.001590345
1.00177063
1.001953345
1.002138525
1.002326202
1.002516301
1.002708112
1.002902511
1.003099531
1.003299208
1.003501577
1.003706677
1.003917787
1.004132503
1.004350115
1.004570661
1.004794181
1.005020716
1.005249161
1.005480686
1.005715334
1.005953147
1.006194167
1.006442702
1.006697662
1.00695606
1.007217944
1.007483359
1.007751637
1.008022899
1.00829782
1.008576448
1.008858834
1.009154002
1.009455722
1.009761511
1.010071424
1.010385029
1.01070177
1.011022782
1.011348123
1.011679057
1.012029964
1.012385604
1.012746041
1.013111222
1.013479598
1.013852943
1.014231323
1.01462028
1.015031973
1.015449218
1.01587209
1.016299373
1.016731561
1.017169577
1.017617047
1.018097435
1.018584301
1.019077734
1.019575854
1.020080156
1.02059126
1.021132148
1.021696717
1.022268901
1.022847312
1.0234321
1.024024776
1.024652632
1.025311475
1.025979204
1.026653578
1.027336017
1.028027659
1.028786689
1.029559846
1.030342344
1.031132533
1.031933379
1.032797834
1.033697418
1.034608229
1.035527631
1.036459431
1.037475345
1.038526424
1.039589439
1.040663673
1.041766865
1.042982982
1.0442155
1.045458982
1.046718652
1.048095033
1.049525477
1.050970635
1.052432592
1.054006433
1.055670959
1.057353142
1.059054337
1.060894719
1.062835974
1.064796576
1.066780596
1.068978477
1.071246787
1.073534276
1.075906874
1.078526316
1.081175066
1.083852214
1.086797788
1.089866908
1.092962747
1.096249922
1.099804174
1.103392179
1.107111164
1.111230218
1.115391393
1.119657872
1.124435518
1.1292628
1.134224104
1.139769594
1.145370692
1.151213302
1.157653869
1.164153559
1.171112181
1.178591841
1.186138697
1.194507168
1.20318681
1.212123088
1.222103793
1.232175005
1.243141763
1.254727993
1.266636668
1.279958324
1.293396799
1.308249534
1.323701252
1.340096458
1.357856357
1.376054265
1.396457754
1.417033581
1.440178591
1.463803552
1.489853057
1.516961845
1.546427778
1.577510598
1.611002029
1.646610308
1.684848772
1.725600544
1.76943646
1.816021601
1.8664514
1.919636504
1.97782397
2.038462533
2.105766712
2.174916156
2.252752825
2.333257853
2.421581475
2.515375672
2.615395022
2.724617561
2.838196729
2.964528696
3.097088367
3.23919691
3.39366633
3.555285223
3.732285365
3.920454062
4.118007067
4.336027731
4.565296771
4.807461291
5.072312588
5.351105544
5.644711944
5.965280771
6.303015891
6.658612113
7.04126072
7.448237348
7.876461743
8.328649476
8.815500936
9.328217174
9.867440073
10.43618035
11.04495788
11.68543089
12.35825368
13.06565089
13.81451344
14.60632183
15.43774236
16.30954785
17.22414496
18.1833278
19.19710017
20.25870302
21.36941324
22.53015603
23.74237546
25.00786743
26.32812002
27.70589351
29.14522096
30.64296507
32.2003117
33.81812269
35.49671384
37.2357357
39.03394806
40.88855843
42.7957728
44.74919871
46.74017028
48.75782811
50.78929262
52.81989916
54.8340249
56.81629664
58.75185165
60.62707158
62.43005777
64.1502207
65.77905645
67.31113312
68.74457212
70.07747452
71.31132955
72.45569827
73.51530449
74.49508715
75.39984469
76.23512102
77.00611038
77.71061309
78.36069022
78.96234789
79.52030994
80.03948655
80.51930807
80.96473469
81.3815189
81.77278783
82.14013225
82.48476026
82.8109445
83.12058993
83.41361791
83.69225472
83.95862355
84.21416813
84.45979765
84.69740169
84.92727617
85.14955003
85.36600532
85.57657597
85.78141299
85.98137358
86.17648645
86.36789924
86.55567438
86.739653
86.92044822
87.0977314
87.27250987
87.44459834
87.61425554
87.78144395
87.94629406
88.10901845
88.26982473
88.42877661
88.5858532
88.74105461
88.89442246
89.04590633
89.1956743
89.34361243
89.48995526
89.63459467
89.77779372
89.9195999
90.06014241
90.19952164
90.33758032
90.47443341
90.61005391
90.74432939
90.87734743
91.00910358
91.13956763
91.26879285
91.39675891
91.52330009
91.64847643
91.77223011
91.89439475
92.01499709
92.13393546
92.25126142
92.36681138
92.48075518
92.59304675
92.70375909
92.81284866
92.92039751
93.02650103
93.13111568
93.23429903
93.33606502
93.43647453
93.53567568
93.63377508
93.73090564
93.82728684
93.92315946
94.01882588
94.11455797
94.21035578
94.30617038
94.4019445
94.49760026
94.59305989
94.68823725
94.7830162
94.87725531
94.97078136
95.06340251
95.1550447
95.2457013
95.33536647
95.42403862
95.51172151
95.59842589
95.68417138
95.76898918
95.85292554
95.9360464
96.01844171
96.10017694
96.18123573
96.26159479
96.34122947
96.42011323
96.49821689
96.57549388
96.65191833
96.72744671
96.80202498
96.87558619
96.9480239
97.0192307
97.08912255
97.15768506
97.22490632
97.29078909
97.35534681
97.41858243
97.48046318
97.54105012
97.60036502
97.65841589
97.71526943
97.77097708
97.82560242
97.87931187
97.9322715
97.98474709
98.03709161
98.08945508
98.14183544
98.19419906
98.24655867
98.29890176
98.35122126
98.40348951
98.4557055
98.5078613
98.55994705
98.61192914
98.66380684
98.71555692
98.76716092
98.81856209
98.86973926
98.92061923
98.9711027
99.02106407
99.07037323
99.11904415
99.16705978
99.21440066
99.26107432
99.3070652
99.35236218
99.39696806
99.44087157
99.48406068
99.52654036
99.56830529
99.60933424
99.64964192
99.68922846
99.72805961
99.76616473
99.80353664
99.84016643
99.87606581
99.91123589
99.94570066
99.97949514
100.0126532
100.0452362
100.0772362
100.1086522
100.1394878
100.1697225
100.1993723
100.2284252
100.256887
100.2847577
100.3120281
100.3387129
100.3647893
100.3902819
100.4151778
100.4394859
100.4632071
100.4863386
100.5088942
100.5308601
100.5522602
100.573074
100.5933302
100.6130145
100.6321464
100.6507203
100.6687492
100.6862349
100.7031844
100.7196063
100.7355029
100.7508878
100.7657603
100.7801377
100.7940167
100.8074177
100.8203361
100.8327938
100.8447861
100.8563353
100.8674375
100.8781144
100.8883637
100.8982058
100.9076405
100.9166862
100.9253456
100.933634
100.9415575
100.9491281
100.9563557
100.9632483
100.9698189
100.9760695
100.9820108
100.9876157
100.9928235
100.9972916
101
101
101
101
101
)
;

boundaryField
{
    bottom
    {
        type            updateWallTheta1;
        value           uniform 1;
    }
    top
    {
        type            zeroGradient;
    }
    frontAndBack
    {
        type            empty;
    }
}


// ************************************************************************* //
