/*--------------------------------*- C++ -*----------------------------------*\
| =========                 |                                                 |
| \\      /  F ield         | OpenFOAM: The Open Source CFD Toolbox           |
|  \\    /   O peration     | Version:  v2006                                 |
|   \\  /    A nd           | Website:  www.openfoam.com                      |
|    \\/     M anipulation  |                                                 |
\*---------------------------------------------------------------------------*/
FoamFile
{
    version     2.0;
    format      ascii;
    class       volScalarField;
    location    "0.03302";
    object      theta2_0;
}
// * * * * * * * * * * * * * * * * * * * * * * * * * * * * * * * * * * * * * //

dimensions      [0 0 0 0 0 0 0];


internalField   nonuniform List<scalar> 
500
(
96.96699793
96.96721278
96.96743052
96.9676512
96.96787485
96.96810152
96.96833125
96.96856407
96.96877854
96.96899503
96.96921444
96.96943682
96.96966219
96.9698906
96.97012196
96.9703554
96.97059199
96.97083177
96.97107478
96.97132108
96.97157069
96.97180457
96.97203714
96.97227285
96.97251174
96.97275385
96.97299922
96.97324666
96.97349744
96.97375161
96.9740092
96.97427026
96.97452041
96.97476353
96.97500993
96.97525966
96.97551275
96.97576857
96.97602724
96.97628939
96.97655508
96.97682436
96.97707731
96.97732796
96.97758199
96.97783944
96.97809996
96.97836309
96.97862976
96.97890003
96.97917207
96.97942352
96.97967836
96.97993664
96.98019832
96.98046228
96.98072981
96.98100095
96.98126948
96.98152161
96.98177714
96.98203612
96.9822978
96.98256249
96.98283074
96.98309956
96.98334889
96.98360158
96.98385768
96.98411621
96.98437794
96.98464321
96.984897
96.98514343
96.98539318
96.98564565
96.9859009
96.9861596
96.98640793
96.98664813
96.98689157
96.98713743
96.98738623
96.98763839
96.98787082
96.98810483
96.98834167
96.98858083
96.98882322
96.98905232
96.98927715
96.98950479
96.98973457
96.98996745
96.99018573
96.99040163
96.99061998
96.99084064
96.99106142
96.99126588
96.99147309
96.99168215
96.99189393
96.99209293
96.99228906
96.9924872
96.99268765
96.99287929
96.99306482
96.99325233
96.99344196
96.99362254
96.99379797
96.99397514
96.99415443
96.99432122
96.99448699
96.99465417
96.99482013
96.99497462
96.99513084
96.99528874
96.9954369
96.9955827
96.99572976
96.9958727
96.99600845
96.9961455
96.99628142
96.99640773
96.99653534
96.99666295
96.9967804
96.99689908
96.99701748
96.99712664
96.99723689
96.99734552
96.99744692
96.99754924
96.99764783
96.9977419
96.99783683
96.99792531
96.99801245
96.99809912
96.99817902
96.99825966
96.99833607
96.99841
96.99848357
96.99855126
96.99861954
96.99868328
96.99874577
96.99880626
96.99886339
96.99892034
96.99897253
96.99902517
96.99907336
96.99912141
96.99916622
96.99921004
96.99925143
96.99929137
96.99932938
96.99936575
96.99940044
96.99943354
96.99946503
96.99949513
96.99952355
96.99955091
96.99957644
96.99960128
96.99962408
96.9996466
96.9996669
96.99968687
96.99970527
96.99972289
96.99973958
96.99975506
96.9997701
96.99978369
96.99979682
96.99980913
96.99982055
96.99983153
96.99984156
96.99985106
96.99986015
96.99986833
96.99987616
96.99988358
96.99989029
96.99989669
96.99990276
96.99990824
96.99991344
96.99991835
96.99992287
96.99992708
96.99993106
96.9999348
96.9999382
96.99994142
96.99994445
96.99994729
96.99994989
96.99995235
96.99995466
96.99995684
96.99995886
96.99996075
96.99996252
96.9999642
96.99996578
96.99996727
96.99996865
96.99996996
96.99997119
96.99997235
96.99997345
96.99997449
96.99997547
96.9999764
96.99997727
96.99997809
96.99997888
96.99997963
96.99998033
96.99998101
96.99998165
96.99998227
96.99998285
96.99998341
96.99998394
96.99998445
96.99998495
96.99998543
96.99998588
96.99998633
96.99998676
96.99998717
96.99998758
96.99998798
96.99998837
96.99998875
96.99998911
96.99998947
96.99998983
96.99999017
96.9999905
96.99999083
96.99999115
96.99999145
96.99999176
96.99999206
96.99999234
96.99999262
96.9999929
96.99999316
96.99999342
96.99999367
96.99999392
96.99999416
96.9999944
96.99999462
96.99999483
96.99999505
96.99999526
96.99999545
96.99999565
96.99999583
96.99999602
96.9999962
96.99999636
96.99999652
96.99999668
96.99999684
96.99999699
96.99999713
96.99999727
96.9999974
96.99999753
96.99999765
96.99999777
96.99999788
96.99999799
96.9999981
96.9999982
96.9999983
96.99999838
96.99999847
96.99999856
96.99999864
96.99999872
96.99999879
96.99999886
96.99999893
96.999999
96.99999905
96.99999911
96.99999917
96.99999922
96.99999926
96.99999931
96.99999936
96.9999994
96.99999945
96.99999948
96.99999951
96.99999954
96.99999958
96.99999961
96.99999964
96.99999967
96.99999969
96.99999971
96.99999973
96.99999976
96.99999978
96.99999979
96.99999981
96.99999983
96.99999984
96.99999985
96.99999986
96.99999988
96.99999989
96.99999989
96.9999999
96.99999991
96.99999992
96.99999993
96.99999994
96.99999994
96.99999995
96.99999995
96.99999996
96.99999996
96.99999996
96.99999997
96.99999997
96.99999997
96.99999998
96.99999998
96.99999998
96.99999998
96.99999998
96.99999999
96.99999999
96.99999999
96.99999999
96.99999999
96.99999999
96.99999999
96.99999999
97
97
97
97
97
97
97
97
97
97
97
97
97
97
97
97
97
97
97
97
97
97
97
97
97
97
97
97
97
97
97
97
97
97
97
97
97
97
97
97
97
97
97
97
97
97
97
97
97
97
97
97
97
97
97
97
97
97
97
97
97
97
97
97
97
97
97
97
97
97
97
97
97
97
97
97
97
97
97
97
97
97
97
97
97
97
97
97
97
97
97
97
97
97
97
97
97
97
97
97
97
97
97
97
97
97
97
97
97
97
97
97
97
97
97
97
97
97
97
97
97
97
97
97
97
97
97
97
97
97
97
97
97
97
97
97
97
97
97
97
)
;

boundaryField
{
    bottom
    {
        type            updateWallTheta2;
        value           uniform 96.96689123;
    }
    top
    {
        type            zeroGradient;
    }
    frontAndBack
    {
        type            empty;
    }
}


// ************************************************************************* //
