/*--------------------------------*- C++ -*----------------------------------*\
| =========                 |                                                 |
| \\      /  F ield         | OpenFOAM: The Open Source CFD Toolbox           |
|  \\    /   O peration     | Version:  v2006                                 |
|   \\  /    A nd           | Website:  www.openfoam.com                      |
|    \\/     M anipulation  |                                                 |
\*---------------------------------------------------------------------------*/
FoamFile
{
    version     2.0;
    format      ascii;
    class       volScalarField;
    location    "0.03302";
    object      theta1;
}
// * * * * * * * * * * * * * * * * * * * * * * * * * * * * * * * * * * * * * //

dimensions      [0 0 0 0 0 0 0];


internalField   nonuniform List<scalar> 
500
(
1.00007893
1.000237856
1.000398925
1.000562166
1.000727608
1.000895282
1.001065216
1.001237443
1.001412987
1.001590939
1.00177129
1.001954073
1.002139322
1.002327069
1.002517239
1.002709122
1.002903593
1.003100686
1.003300437
1.003502883
1.003708058
1.003919247
1.004134043
1.004351735
1.004572363
1.004795967
1.005022586
1.005251115
1.005482727
1.005717462
1.005955363
1.006196472
1.006445099
1.006700154
1.006958648
1.007220629
1.007486143
1.007754521
1.008025884
1.008300906
1.008579638
1.008862128
1.009157406
1.009459238
1.00976514
1.010075168
1.01038889
1.010705748
1.011026879
1.011352341
1.011683397
1.012034435
1.012390207
1.012750777
1.013116093
1.013484607
1.01385809
1.01423661
1.014625711
1.015037557
1.015454956
1.015877985
1.016305426
1.016737774
1.017175953
1.017623588
1.018104154
1.018591201
1.019084816
1.01958312
1.02008761
1.020598903
1.02113999
1.021704769
1.022277165
1.02285579
1.023440795
1.02403369
1.024661778
1.025320865
1.025988841
1.026663464
1.027346155
1.028038053
1.028797363
1.029570806
1.030353594
1.031144075
1.031945217
1.032809991
1.033709907
1.034621055
1.035540796
1.03647294
1.037489229
1.038540696
1.039604104
1.040678735
1.041782334
1.042998899
1.044231872
1.045475813
1.046735947
1.048112835
1.049543807
1.050989497
1.052451992
1.054026413
1.055691551
1.057374354
1.059076175
1.060917234
1.062859203
1.064820525
1.066805275
1.069003964
1.071273107
1.073561436
1.075934905
1.078555307
1.081205029
1.083883159
1.086829812
1.089900056
1.092997028
1.096285405
1.099840956
1.103430271
1.107150614
1.11127117
1.115433862
1.119701896
1.12448128
1.129310318
1.134273426
1.139820927
1.145424057
1.151268785
1.157711681
1.164213721
1.171174856
1.178657213
1.186206789
1.194578268
1.203261026
1.212200511
1.222184785
1.232259599
1.243230266
1.254820619
1.266733528
1.2800599
1.293503132
1.308361101
1.323818255
1.340219214
1.357985321
1.376189584
1.396600151
1.417183116
1.440336094
1.463969182
1.490027586
1.517145613
1.546621521
1.577714824
1.611217475
1.646837622
1.685088741
1.725853922
1.769704142
1.816304391
1.866750381
1.919952458
1.978158289
2.038815908
2.106140938
2.175311745
2.253171976
2.333701239
2.422050993
2.515872601
2.61592081
2.725174213
2.838785222
2.96515176
3.097747313
3.239893709
3.394403244
3.556063559
3.7331077
3.921322317
4.118922874
4.336994279
4.566315597
4.80853413
5.073442447
5.352294227
5.645961352
5.966593931
6.304394699
6.660058483
7.042777271
7.44982631
7.878124949
8.330388945
8.817319559
9.330116818
9.869422593
10.43824789
11.0471134
11.68767665
12.36059145
13.06808222
13.8170399
14.60894554
15.44046515
16.31237155
17.22707157
18.18635921
19.20023739
20.26194672
21.37276386
22.53361379
23.74594045
25.01153983
26.33190051
27.70978175
29.14921693
30.64706699
32.20451834
33.82243367
35.50112804
37.24025003
39.03855065
40.89323074
42.80049754
44.75395791
46.74494071
48.76258163
50.79399735
52.82452051
54.83852824
56.82065044
58.75602863
60.63104954
62.43381713
64.15374472
65.78233536
67.3141635
68.74736134
70.08003561
71.31367404
72.45783942
73.51725595
74.49686326
75.40146119
76.23659166
77.00744655
77.71182814
78.36179738
78.96335884
79.52123554
80.04033441
80.52008436
80.96544845
81.38217773
81.77339781
82.14069871
82.48528709
82.81143586
83.12104958
83.41404876
83.69265946
83.95900543
84.21453049
84.46014234
84.69773011
84.92758974
85.14985062
85.36629386
85.57685312
85.78167941
85.98162989
86.17673399
86.36813879
86.55590623
86.73987747
86.92066564
87.09794255
87.27271515
87.44479794
87.61444964
87.78163274
87.94647776
88.10919747
88.26999934
88.42894688
88.58601922
88.74121647
88.89458023
89.04606015
89.19582429
89.34375873
89.490098
89.63473401
89.77792982
89.91973296
90.06027258
90.19964893
90.33770477
90.47455508
90.61017284
90.74444561
90.877461
91.00921457
91.13967611
91.26889884
91.39686241
91.5234011
91.64857497
91.77232618
91.89448835
92.01508821
92.13402411
92.25134765
92.36689525
92.48083675
92.59312606
92.70383622
92.81292369
92.9204705
93.02657207
93.1311848
93.2343663
93.33613052
93.43653834
93.53573791
93.63383583
93.73096506
93.82734508
93.92321671
94.01888238
94.11461377
94.21041085
94.3062247
94.40199806
94.49765302
94.59311181
94.68828831
94.78306632
94.87730444
94.97082941
95.06344943
95.1550905
95.24574602
95.33541011
95.42408119
95.51176306
95.59846643
95.68421094
95.76902778
95.85296324
95.93608327
96.01847778
96.10021224
96.18127027
96.26162856
96.34126247
96.42014548
96.49824839
96.57552462
96.65194831
96.72747593
96.80205343
96.87561387
96.94805077
97.01925674
97.08914775
97.15770945
97.22492991
97.29081191
97.35536886
97.41860373
97.48048377
97.54107
97.60038422
97.65843443
97.71528735
97.77099441
97.82561921
97.87932818
97.9322874
97.98476269
98.037107
98.08947027
98.14185042
98.19421383
98.24657324
98.29891614
98.35123543
98.40350348
98.45571927
98.50787486
98.55996041
98.6119423
98.66381979
98.71556966
98.76717344
98.8185744
98.86975134
98.92063108
98.97111428
99.02107537
99.07038422
99.11905485
99.1670702
99.21441079
99.26108417
99.30707478
99.3523715
99.3969771
99.44088034
99.4840692
99.52654864
99.56831331
99.60934202
99.64964945
99.68923574
99.72806667
99.76617157
99.80354326
99.84017283
99.876072
99.91124187
99.94570643
99.97950073
100.0126586
100.0452414
100.0772412
100.1086571
100.1394925
100.1697271
100.1993767
100.2284295
100.2568912
100.2847617
100.312032
100.3387166
100.3647929
100.3902854
100.4151811
100.4394891
100.4632102
100.4863416
100.5088971
100.5308629
100.5522628
100.5730765
100.5933327
100.6130168
100.6321487
100.6507225
100.6687512
100.6862368
100.7031862
100.7196081
100.7355046
100.7508895
100.7657619
100.7801392
100.7940181
100.807419
100.8203373
100.832795
100.8447872
100.8563363
100.8674385
100.8781154
100.8883646
100.8982066
100.9076414
100.916687
100.9253463
100.9336346
100.9415581
100.9491287
100.9563563
100.9632488
100.9698194
100.97607
100.9820113
100.9876161
100.9928238
100.997292
101
101
101
101
101
)
;

boundaryField
{
    bottom
    {
        type            updateWallTheta1;
        value           uniform 1;
    }
    top
    {
        type            zeroGradient;
    }
    frontAndBack
    {
        type            empty;
    }
}


// ************************************************************************* //
