/*--------------------------------*- C++ -*----------------------------------*\
| =========                 |                                                 |
| \\      /  F ield         | OpenFOAM: The Open Source CFD Toolbox           |
|  \\    /   O peration     | Version:  v2006                                 |
|   \\  /    A nd           | Website:  www.openfoam.com                      |
|    \\/     M anipulation  |                                                 |
\*---------------------------------------------------------------------------*/
FoamFile
{
    version     2.0;
    format      ascii;
    class       volScalarField;
    location    "0.03302";
    object      theta2;
}
// * * * * * * * * * * * * * * * * * * * * * * * * * * * * * * * * * * * * * //

dimensions      [0 0 0 0 0 0 0];


internalField   nonuniform List<scalar> 
500
(
96.96698564
96.96720057
96.96741839
96.96763916
96.9678629
96.96808965
96.96831947
96.96855238
96.96876692
96.9689835
96.96920299
96.96942545
96.9696509
96.9698794
96.97011084
96.97034437
96.97058105
96.97082092
96.97106402
96.97131041
96.97156011
96.97179408
96.97202674
96.97226253
96.97250151
96.97274371
96.97298917
96.97323671
96.97348758
96.97374183
96.97399952
96.97426068
96.97451092
96.97475413
96.97500063
96.97525045
96.97550363
96.97575955
96.97601831
96.97628057
96.97654636
96.97681573
96.97706878
96.97731952
96.97757364
96.97783119
96.97809181
96.97835504
96.97862181
96.97889218
96.97916431
96.97941586
96.9796708
96.97992917
96.98019095
96.98045501
96.98072264
96.98099388
96.98126251
96.98151474
96.98177036
96.98202944
96.98229122
96.982556
96.98282435
96.98309327
96.98334269
96.98359548
96.98385167
96.9841103
96.98437213
96.9846375
96.98489138
96.9851379
96.98538775
96.98564031
96.98589566
96.98615445
96.98640287
96.98664316
96.98688669
96.98713264
96.98738153
96.98763379
96.9878663
96.9881004
96.98833733
96.98857658
96.98881906
96.98904825
96.98927316
96.98950089
96.98973075
96.98996372
96.99018208
96.99039806
96.99061649
96.99083723
96.99105809
96.99126262
96.99146991
96.99167905
96.9918909
96.99208999
96.99228619
96.99248441
96.99268493
96.99287663
96.99306224
96.99324981
96.99343951
96.99362016
96.99379565
96.99397289
96.99415225
96.9943191
96.99448494
96.99465218
96.9948182
96.99497275
96.99512902
96.99528697
96.99543519
96.99558104
96.99572816
96.99587115
96.99600696
96.99614406
96.99628003
96.99640639
96.99653404
96.99666169
96.99677919
96.99689791
96.99701636
96.99712556
96.99723585
96.99734452
96.99744596
96.99754832
96.99764694
96.99774105
96.99783601
96.99792452
96.99801169
96.99809839
96.99817834
96.998259
96.99833544
96.99840939
96.99848298
96.9985507
96.99861901
96.99868278
96.99874528
96.9988058
96.99886295
96.99891992
96.99897213
96.99902479
96.999073
96.99912106
96.99916589
96.99920973
96.99925114
96.9992911
96.99932911
96.9993655
96.9994002
96.99943332
96.99946481
96.99949492
96.99952336
96.99955073
96.99957626
96.99960111
96.99962393
96.99964646
96.99966676
96.99968674
96.99970515
96.99972278
96.99973947
96.99975495
96.99977
96.9997836
96.99979673
96.99980904
96.99982046
96.99983145
96.99984149
96.999851
96.99986009
96.99986827
96.9998761
96.99988352
96.99989024
96.99989664
96.99990271
96.99990819
96.9999134
96.99991831
96.99992283
96.99992704
96.99993102
96.99993476
96.99993817
96.99994139
96.99994442
96.99994726
96.99994986
96.99995232
96.99995464
96.99995681
96.99995883
96.99996072
96.9999625
96.99996418
96.99996576
96.99996725
96.99996863
96.99996994
96.99997117
96.99997233
96.99997343
96.99997447
96.99997545
96.99997638
96.99997725
96.99997808
96.99997887
96.99997961
96.99998032
96.99998099
96.99998164
96.99998225
96.99998284
96.9999834
96.99998393
96.99998444
96.99998494
96.99998542
96.99998588
96.99998632
96.99998675
96.99998717
96.99998758
96.99998797
96.99998836
96.99998874
96.99998911
96.99998946
96.99998982
96.99999016
96.99999049
96.99999082
96.99999114
96.99999145
96.99999176
96.99999205
96.99999234
96.99999262
96.9999929
96.99999316
96.99999342
96.99999367
96.99999392
96.99999416
96.99999439
96.99999461
96.99999483
96.99999504
96.99999525
96.99999545
96.99999565
96.99999583
96.99999601
96.99999619
96.99999636
96.99999652
96.99999668
96.99999684
96.99999698
96.99999713
96.99999727
96.9999974
96.99999753
96.99999765
96.99999777
96.99999788
96.99999799
96.99999809
96.99999819
96.9999983
96.99999838
96.99999847
96.99999856
96.99999864
96.99999872
96.99999879
96.99999886
96.99999893
96.999999
96.99999905
96.99999911
96.99999917
96.99999922
96.99999926
96.99999931
96.99999936
96.9999994
96.99999945
96.99999948
96.99999951
96.99999954
96.99999958
96.99999961
96.99999964
96.99999967
96.99999969
96.99999971
96.99999973
96.99999976
96.99999978
96.99999979
96.99999981
96.99999983
96.99999984
96.99999985
96.99999986
96.99999988
96.99999989
96.99999989
96.9999999
96.99999991
96.99999992
96.99999993
96.99999994
96.99999994
96.99999995
96.99999995
96.99999996
96.99999996
96.99999996
96.99999997
96.99999997
96.99999997
96.99999998
96.99999998
96.99999998
96.99999998
96.99999998
96.99999999
96.99999999
96.99999999
96.99999999
96.99999999
96.99999999
96.99999999
96.99999999
97
97
97
97
97
97
97
97
97
97
97
97
97
97
97
97
97
97
97
97
97
97
97
97
97
97
97
97
97
97
97
97
97
97
97
97
97
97
97
97
97
97
97
97
97
97
97
97
97
97
97
97
97
97
97
97
97
97
97
97
97
97
97
97
97
97
97
97
97
97
97
97
97
97
97
97
97
97
97
97
97
97
97
97
97
97
97
97
97
97
97
97
97
97
97
97
97
97
97
97
97
97
97
97
97
97
97
97
97
97
97
97
97
97
97
97
97
97
97
97
97
97
97
97
97
97
97
97
97
97
97
97
97
97
97
97
97
97
97
97
)
;

boundaryField
{
    bottom
    {
        type            updateWallTheta2;
        value           uniform 96.9668789;
    }
    top
    {
        type            zeroGradient;
    }
    frontAndBack
    {
        type            empty;
    }
}


// ************************************************************************* //
