/*--------------------------------*- C++ -*----------------------------------*\
| =========                 |                                                 |
| \\      /  F ield         | OpenFOAM: The Open Source CFD Toolbox           |
|  \\    /   O peration     | Version:  v2006                                 |
|   \\  /    A nd           | Website:  www.openfoam.com                      |
|    \\/     M anipulation  |                                                 |
\*---------------------------------------------------------------------------*/
FoamFile
{
    version     2.0;
    format      ascii;
    class       volVectorField;
    location    "0.03302";
    object      U;
}
// * * * * * * * * * * * * * * * * * * * * * * * * * * * * * * * * * * * * * //

dimensions      [0 1 -1 0 0 0 0];


internalField   nonuniform List<vector> 
500
(
(1.428589309e-08 0 0)
(4.305034087e-08 0 0)
(7.220271015e-08 0 0)
(1.017482325e-07 0 0)
(1.3169221e-07 0 0)
(1.620400163e-07 0 0)
(1.927970975e-07 0 0)
(2.239689731e-07 0 0)
(6.29335757e-07 0 0)
(1.055165989e-06 0 0)
(1.486739029e-06 0 0)
(1.924132326e-06 0 0)
(2.367424371e-06 0 0)
(2.816694717e-06 0 0)
(3.271763785e-06 0 0)
(3.730931557e-06 0 0)
(4.196291732e-06 0 0)
(4.66792782e-06 0 0)
(5.145924462e-06 0 0)
(5.630367439e-06 0 0)
(6.121343682e-06 0 0)
(7.344686104e-06 0 0)
(8.754076153e-06 0 0)
(1.018247344e-05 0 0)
(1.163013431e-05 0 0)
(1.309731852e-05 0 0)
(1.45842871e-05 0 0)
(1.60837934e-05 0 0)
(1.760352225e-05 0 0)
(1.914374638e-05 0 0)
(2.070474221e-05 0 0)
(2.228678984e-05 0 0)
(2.439006082e-05 0 0)
(2.688193338e-05 0 0)
(2.94074117e-05 0 0)
(3.196694897e-05 0 0)
(3.456100453e-05 0 0)
(3.718304443e-05 0 0)
(3.983424704e-05 0 0)
(4.252120415e-05 0 0)
(4.524439795e-05 0 0)
(4.800431713e-05 0 0)
(5.161622184e-05 0 0)
(5.551031332e-05 0 0)
(5.945692109e-05 0 0)
(6.345675337e-05 0 0)
(6.750423982e-05 0 0)
(7.159218841e-05 0 0)
(7.573526768e-05 0 0)
(7.99342211e-05 0 0)
(8.427959928e-05 0 0)
(8.983964391e-05 0 0)
(9.547467212e-05 0 0)
(0.0001011856951 0 0)
(0.0001069719024 0 0)
(0.0001128087392 0 0)
(0.0001187242925 0 0)
(0.0001247196238 0 0)
(0.0001311458953 0 0)
(0.0001387771959 0 0)
(0.0001465114134 0 0)
(0.0001543499356 0 0)
(0.0001622702311 0 0)
(0.000170281436 0 0)
(0.0001784006812 0 0)
(0.0001868304063 0 0)
(0.000196897349 0 0)
(0.0002071000559 0 0)
(0.0002174403579 0 0)
(0.0002278788795 0 0)
(0.0002384469784 0 0)
(0.0002491576003 0 0)
(0.000261191831 0 0)
(0.0002742325711 0 0)
(0.0002874491806 0 0)
(0.000300809635 0 0)
(0.0003143174064 0 0)
(0.0003280073455 0 0)
(0.0003431800068 0 0)
(0.0003596324879 0 0)
(0.0003763068495 0 0)
(0.0003931471694 0 0)
(0.0004101888673 0 0)
(0.000427460392 0 0)
(0.0004475729252 0 0)
(0.0004681314469 0 0)
(0.0004889383769 0 0)
(0.0005099498031 0 0)
(0.0005312445924 0 0)
(0.0005550847354 0 0)
(0.0005802499897 0 0)
(0.000605729343 0 0)
(0.0006314489881 0 0)
(0.0006575154919 0 0)
(0.0006868730858 0 0)
(0.0007175084656 0 0)
(0.000748491749 0 0)
(0.0007798020268 0 0)
(0.000812110036 0 0)
(0.0008487530351 0 0)
(0.0008858902075 0 0)
(0.0009233577582 0 0)
(0.0009613130634 0 0)
(0.001003642089 0 0)
(0.0010479168 0 0)
(0.001092646905 0 0)
(0.001137896989 0 0)
(0.001187249719 0 0)
(0.001239899959 0 0)
(0.001293108712 0 0)
(0.001346918838 0 0)
(0.001405781337 0 0)
(0.001468268427 0 0)
(0.001531378267 0 0)
(0.001595241949 0 0)
(0.001666829632 0 0)
(0.001740878809 0 0)
(0.001815554081 0 0)
(0.001893203004 0 0)
(0.001979685181 0 0)
(0.002067134979 0 0)
(0.002155522357 0 0)
(0.002253438482 0 0)
(0.002355685191 0 0)
(0.002458822016 0 0)
(0.002568674557 0 0)
(0.002687937763 0 0)
(0.002808333497 0 0)
(0.0029332808 0 0)
(0.00307228816 0 0)
(0.003212716963 0 0)
(0.003356780779 0 0)
(0.003518746367 0 0)
(0.003682394659 0 0)
(0.003850675251 0 0)
(0.004039347491 0 0)
(0.004229911682 0 0)
(0.004428849586 0 0)
(0.004648599055 0 0)
(0.004870365756 0 0)
(0.005108058555 0 0)
(0.005363839 0 0)
(0.005621917302 0 0)
(0.005908500684 0 0)
(0.006205853107 0 0)
(0.0065120723 0 0)
(0.00685449538 0 0)
(0.007200023638 0 0)
(0.007576562458 0 0)
(0.007974541228 0 0)
(0.008383658637 0 0)
(0.00884169914 0 0)
(0.009303756233 0 0)
(0.00981476359 0 0)
(0.01034648457 0 0)
(0.01091084616 0 0)
(0.01152243405 0 0)
(0.01214915813 0 0)
(0.01285222457 0 0)
(0.0135612295 0 0)
(0.01435917019 0 0)
(0.01517369947 0 0)
(0.01607215653 0 0)
(0.01700726382 0 0)
(0.0180239625 0 0)
(0.01909661908 0 0)
(0.02025268346 0 0)
(0.02148204782 0 0)
(0.02280266701 0 0)
(0.02421048336 0 0)
(0.02572553123 0 0)
(0.02733615671 0 0)
(0.02907930499 0 0)
(0.03091743949 0 0)
(0.03292156107 0 0)
(0.03500734903 0 0)
(0.03731397192 0 0)
(0.03968233534 0 0)
(0.04234778645 0 0)
(0.0451051854 0 0)
(0.04813233146 0 0)
(0.05134843615 0 0)
(0.05477959204 0 0)
(0.05852552838 0 0)
(0.06241961573 0 0)
(0.06673166085 0 0)
(0.07124851911 0 0)
(0.07607866697 0 0)
(0.08132925215 0 0)
(0.08682282354 0 0)
(0.0928384082 0 0)
(0.09921676625 0 0)
(0.1059003016 0 0)
(0.1132457598 0 0)
(0.1209654677 0 0)
(0.1291142207 0 0)
(0.137988751 0 0)
(0.1473056733 0 0)
(0.1570920352 0 0)
(0.1677221737 0 0)
(0.1788878177 0 0)
(0.1906088424 0 0)
(0.2031625233 0 0)
(0.2164598193 0 0)
(0.2304022398 0 0)
(0.245069546 0 0)
(0.2607148657 0 0)
(0.2771154052 0 0)
(0.2942927291 0 0)
(0.3123418705 0 0)
(0.3314950188 0 0)
(0.3515220868 0 0)
(0.3724467508 0 0)
(0.394338269 0 0)
(0.4173716899 0 0)
(0.441539186 0 0)
(0.4667375102 0 0)
(0.4929549948 0 0)
(0.5202323272 0 0)
(0.5486077421 0 0)
(0.5783546568 0 0)
(0.6093139774 0 0)
(0.6415036828 0 0)
(0.6749188409 0 0)
(0.7095746374 0 0)
(0.7455047518 0 0)
(0.7827276394 0 0)
(0.8212766111 0 0)
(0.8611970039 0 0)
(0.9023692585 0 0)
(0.944733333 0 0)
(0.9881840053 0 0)
(1.032583056 0 0)
(1.07774284 0 0)
(1.123425679 0 0)
(1.169282717 0 0)
(1.214832614 0 0)
(1.259477553 0 0)
(1.302561778 0 0)
(1.343377659 0 0)
(1.381218135 0 0)
(1.415459052 0 0)
(1.445651727 0 0)
(1.471602824 0 0)
(1.493413283 0 0)
(1.511455791 0 0)
(1.526279407 0 0)
(1.53852695 0 0)
(1.54883307 0 0)
(1.557718219 0 0)
(1.565599983 0 0)
(1.572755813 0 0)
(1.579387479 0 0)
(1.585655948 0 0)
(1.591636047 0 0)
(1.597371507 0 0)
(1.602887743 0 0)
(1.608216215 0 0)
(1.61340008 0 0)
(1.61845152 0 0)
(1.623380006 0 0)
(1.628173262 0 0)
(1.632811318 0 0)
(1.637295822 0 0)
(1.641617858 0 0)
(1.645808582 0 0)
(1.649952955 0 0)
(1.653991494 0 0)
(1.657880002 0 0)
(1.661617763 0 0)
(1.665205732 0 0)
(1.668764853 0 0)
(1.67233516 0 0)
(1.675773191 0 0)
(1.679084945 0 0)
(1.682356283 0 0)
(1.685552573 0 0)
(1.688638117 0 0)
(1.691633329 0 0)
(1.694593951 0 0)
(1.697520076 0 0)
(1.70036973 0 0)
(1.703135928 0 0)
(1.705839583 0 0)
(1.708496033 0 0)
(1.711109394 0 0)
(1.71367087 0 0)
(1.716178381 0 0)
(1.718638306 0 0)
(1.721027817 0 0)
(1.723365665 0 0)
(1.725664124 0 0)
(1.727930053 0 0)
(1.730163498 0 0)
(1.732359697 0 0)
(1.734493911 0 0)
(1.736576397 0 0)
(1.738634212 0 0)
(1.740669077 0 0)
(1.742681086 0 0)
(1.744669541 0 0)
(1.746596209 0 0)
(1.748452824 0 0)
(1.750279106 0 0)
(1.752087356 0 0)
(1.753874048 0 0)
(1.755642858 0 0)
(1.757392514 0 0)
(1.759099898 0 0)
(1.76076516 0 0)
(1.762410247 0 0)
(1.764040337 0 0)
(1.765653957 0 0)
(1.767249804 0 0)
(1.768829602 0 0)
(1.770378102 0 0)
(1.771869187 0 0)
(1.773334899 0 0)
(1.774785875 0 0)
(1.776218865 0 0)
(1.777634746 0 0)
(1.779033348 0 0)
(1.780414169 0 0)
(1.781760015 0 0)
(1.783050875 0 0)
(1.784314295 0 0)
(1.785560049 0 0)
(1.786788646 0 0)
(1.787999595 0 0)
(1.789193642 0 0)
(1.790370278 0 0)
(1.791531035 0 0)
(1.792662482 0 0)
(1.793751263 0 0)
(1.794820294 0 0)
(1.795874065 0 0)
(1.796912074 0 0)
(1.797935907 0 0)
(1.798946751 0 0)
(1.799946159 0 0)
(1.800936731 0 0)
(1.801921622 0 0)
(1.802898735 0 0)
(1.803864378 0 0)
(1.8048296 0 0)
(1.805795824 0 0)
(1.806762279 0 0)
(1.807728216 0 0)
(1.808692775 0 0)
(1.809654914 0 0)
(1.810613188 0 0)
(1.811566258 0 0)
(1.812510099 0 0)
(1.813421836 0 0)
(1.814309526 0 0)
(1.815188231 0 0)
(1.8160573 0 0)
(1.816917218 0 0)
(1.817768785 0 0)
(1.818612926 0 0)
(1.819450607 0 0)
(1.820282735 0 0)
(1.821110103 0 0)
(1.821933728 0 0)
(1.822746809 0 0)
(1.823541074 0 0)
(1.824329442 0 0)
(1.825112104 0 0)
(1.825887358 0 0)
(1.82665389 0 0)
(1.827410453 0 0)
(1.828155788 0 0)
(1.82888902 0 0)
(1.829609277 0 0)
(1.830315755 0 0)
(1.831007697 0 0)
(1.831684457 0 0)
(1.832337653 0 0)
(1.832960573 0 0)
(1.833567279 0 0)
(1.834160011 0 0)
(1.834740242 0 0)
(1.835310046 0 0)
(1.835871355 0 0)
(1.83642552 0 0)
(1.836973602 0 0)
(1.837515457 0 0)
(1.838049966 0 0)
(1.838576092 0 0)
(1.8390927 0 0)
(1.839599229 0 0)
(1.840096792 0 0)
(1.840587098 0 0)
(1.841072589 0 0)
(1.841550678 0 0)
(1.842025232 0 0)
(1.842499416 0 0)
(1.842972285 0 0)
(1.84344393 0 0)
(1.843914691 0 0)
(1.844385402 0 0)
(1.844856802 0 0)
(1.845329788 0 0)
(1.84580516 0 0)
(1.846283422 0 0)
(1.846764687 0 0)
(1.847249143 0 0)
(1.847736333 0 0)
(1.848224453 0 0)
(1.848710367 0 0)
(1.84919027 0 0)
(1.849659493 0 0)
(1.850114902 0 0)
(1.850549048 0 0)
(1.850958466 0 0)
(1.85135477 0 0)
(1.851739972 0 0)
(1.852115181 0 0)
(1.852480913 0 0)
(1.852836874 0 0)
(1.853182823 0 0)
(1.853519503 0 0)
(1.853847844 0 0)
(1.854168559 0 0)
(1.854482609 0 0)
(1.854791047 0 0)
(1.855095076 0 0)
(1.855395524 0 0)
(1.855691432 0 0)
(1.855979216 0 0)
(1.856255191 0 0)
(1.856517228 0 0)
(1.856768369 0 0)
(1.85701823 0 0)
(1.857280973 0 0)
(1.857569799 0 0)
(1.85789297 0 0)
(1.85825153 0 0)
(1.858635948 0 0)
(1.85903812 0 0)
(1.859438697 0 0)
(1.859819142 0 0)
(1.860165726 0 0)
(1.860478319 0 0)
(1.86076042 0 0)
(1.861016878 0 0)
(1.861247082 0 0)
(1.86144833 0 0)
(1.861626214 0 0)
(1.861795361 0 0)
(1.861978235 0 0)
(1.862195844 0 0)
(1.86245617 0 0)
(1.862754009 0 0)
(1.863074739 0 0)
(1.863401831 0 0)
(1.863725531 0 0)
(1.864043334 0 0)
(1.864357038 0 0)
(1.864667685 0 0)
(1.86496899 0 0)
(1.865244647 0 0)
(1.865470592 0 0)
(1.865633504 0 0)
(1.865740078 0 0)
(1.865816848 0 0)
(1.86589305 0 0)
(1.865985649 0 0)
(1.866095898 0 0)
(1.866214092 0 0)
(1.866323138 0 0)
(1.866406192 0 0)
(1.866459764 0 0)
(1.866494085 0 0)
(1.866521335 0 0)
(1.866533219 0 0)
(1.866510582 0 0)
(1.866453365 0 0)
(1.86639834 0 0)
(1.866383513 0 0)
(1.866409632 0 0)
(1.866448208 0 0)
(1.866472221 0 0)
(1.866488244 0 0)
(1.86653108 0 0)
(1.86661719 0 0)
(1.866715425 0 0)
(1.866785097 0 0)
(1.866821226 0 0)
(1.866838838 0 0)
(1.866826085 0 0)
(1.866770394 0 0)
(1.866703047 0 0)
(1.866661191 0 0)
(1.866635567 0 0)
(1.866594833 0 0)
(1.866527784 0 0)
(1.866458503 0 0)
(1.866417392 0 0)
(1.866458152 0 0)
)
;

boundaryField
{
    bottom
    {
        type            fixedValue;
        value           uniform (0 0 0);
    }
    top
    {
        type            zeroGradient;
    }
    frontAndBack
    {
        type            empty;
    }
}


// ************************************************************************* //
