/*--------------------------------*- C++ -*----------------------------------*\
| =========                 |                                                 |
| \\      /  F ield         | OpenFOAM: The Open Source CFD Toolbox           |
|  \\    /   O peration     | Version:  v2006                                 |
|   \\  /    A nd           | Website:  www.openfoam.com                      |
|    \\/     M anipulation  |                                                 |
\*---------------------------------------------------------------------------*/
FoamFile
{
    version     2.0;
    format      ascii;
    class       volVectorField;
    location    "0.03302";
    object      U_0;
}
// * * * * * * * * * * * * * * * * * * * * * * * * * * * * * * * * * * * * * //

dimensions      [0 1 -1 0 0 0 0];


internalField   nonuniform List<vector> 
500
(
(-2.293995515e-08 0 0)
(-6.912923696e-08 0 0)
(-1.159414341e-07 0 0)
(-1.633849473e-07 0 0)
(-2.114682905e-07 0 0)
(-2.602000927e-07 0 0)
(-3.095890989e-07 0 0)
(-3.596441724e-07 0 0)
(-3.057392948e-08 0 0)
(3.181725854e-07 0 0)
(6.716223458e-07 0 0)
(1.029838781e-06 0 0)
(1.392886174e-06 0 0)
(1.760829677e-06 0 0)
(2.133522218e-06 0 0)
(2.509571517e-06 0 0)
(2.890692271e-06 0 0)
(3.276952873e-06 0 0)
(3.668422643e-06 0 0)
(4.065171833e-06 0 0)
(4.467271638e-06 0 0)
(5.603237515e-06 0 0)
(6.924703072e-06 0 0)
(8.263990107e-06 0 0)
(9.621338962e-06 0 0)
(1.099699321e-05 0 0)
(1.239119757e-05 0 0)
(1.37971575e-05 0 0)
(1.52220784e-05 0 0)
(1.666621598e-05 0 0)
(1.812982942e-05 0 0)
(1.961318136e-05 0 0)
(2.161394754e-05 0 0)
(2.400014712e-05 0 0)
(2.641852733e-05 0 0)
(2.886952216e-05 0 0)
(3.135357146e-05 0 0)
(3.386441837e-05 0 0)
(3.640319127e-05 0 0)
(3.897620244e-05 0 0)
(4.158391361e-05 0 0)
(4.422679274e-05 0 0)
(4.772006499e-05 0 0)
(5.14939201e-05 0 0)
(5.531866997e-05 0 0)
(5.919500097e-05 0 0)
(6.311751473e-05 0 0)
(6.707924131e-05 0 0)
(7.109439631e-05 0 0)
(7.516370027e-05 0 0)
(7.937767351e-05 0 0)
(8.480445112e-05 0 0)
(9.030441504e-05 0 0)
(9.587855228e-05 0 0)
(0.0001015260717 0 0)
(0.0001072230072 0 0)
(0.0001129967723 0 0)
(0.0001188484034 0 0)
(0.0001251291099 0 0)
(0.0001326131169 0 0)
(0.0001401980543 0 0)
(0.0001478852832 0 0)
(0.0001556527071 0 0)
(0.0001635092857 0 0)
(0.0001714718193 0 0)
(0.000179742808 0 0)
(0.0001896495444 0 0)
(0.0001996898845 0 0)
(0.00020986563 0 0)
(0.000220138032 0 0)
(0.0002305379493 0 0)
(0.0002410781214 0 0)
(0.0002529403375 0 0)
(0.000265807269 0 0)
(0.0002788477257 0 0)
(0.0002920301102 0 0)
(0.0003053578482 0 0)
(0.000318865326 0 0)
(0.0003338540509 0 0)
(0.0003501209315 0 0)
(0.0003666071896 0 0)
(0.0003832575337 0 0)
(0.0004001069841 0 0)
(0.0004171836687 0 0)
(0.00043710094 0 0)
(0.0004574617144 0 0)
(0.0004780685077 0 0)
(0.0004988778301 0 0)
(0.00051996779 0 0)
(0.0005436023346 0 0)
(0.0005685601036 0 0)
(0.0005938293818 0 0)
(0.0006193369707 0 0)
(0.0006451885584 0 0)
(0.0006743309113 0 0)
(0.0007047489193 0 0)
(0.0007355123625 0 0)
(0.0007666004798 0 0)
(0.0007986838114 0 0)
(0.000835102348 0 0)
(0.0008720120308 0 0)
(0.0009092500681 0 0)
(0.000946972872 0 0)
(0.0009890692078 0 0)
(0.001033109139 0 0)
(0.00107760205 0 0)
(0.001122612183 0 0)
(0.001171724095 0 0)
(0.001224132056 0 0)
(0.00127709596 0 0)
(0.001330658469 0 0)
(0.001389272566 0 0)
(0.001451509574 0 0)
(0.00151436684 0 0)
(0.00157797493 0 0)
(0.001649307059 0 0)
(0.001723097996 0 0)
(0.001797512843 0 0)
(0.001874898704 0 0)
(0.001961117699 0 0)
(0.002048301371 0 0)
(0.002136419769 0 0)
(0.002234066576 0 0)
(0.002336041607 0 0)
(0.002438904389 0 0)
(0.00254848118 0 0)
(0.002667467877 0 0)
(0.002787584477 0 0)
(0.002912250334 0 0)
(0.003050977124 0 0)
(0.003191122488 0 0)
(0.003334900358 0 0)
(0.003496582594 0 0)
(0.003659944589 0 0)
(0.003827936816 0 0)
(0.004016324919 0 0)
(0.004206602126 0 0)
(0.004405252707 0 0)
(0.004624720098 0 0)
(0.004846202132 0 0)
(0.005083614012 0 0)
(0.005339118355 0 0)
(0.005596918074 0 0)
(0.005883234667 0 0)
(0.006180322014 0 0)
(0.006486277127 0 0)
(0.006828454225 0 0)
(0.007173734271 0 0)
(0.007550040887 0 0)
(0.007947797084 0 0)
(0.008356695 0 0)
(0.008814546159 0 0)
(0.009276412247 0 0)
(0.00978726028 0 0)
(0.01031883243 0 0)
(0.01088306556 0 0)
(0.01149455684 0 0)
(0.01212119123 0 0)
(0.01282422487 0 0)
(0.01353319672 0 0)
(0.01433117367 0 0)
(0.01514574755 0 0)
(0.01604431585 0 0)
(0.01697956021 0 0)
(0.01799646117 0 0)
(0.01906936289 0 0)
(0.02022573833 0 0)
(0.02145547098 0 0)
(0.02277652787 0 0)
(0.02418484804 0 0)
(0.02570047544 0 0)
(0.02731174743 0 0)
(0.02905562584 0 0)
(0.03089454944 0 0)
(0.03289954695 0 0)
(0.03498625275 0 0)
(0.03729386585 0 0)
(0.03966324027 0 0)
(0.04232973058 0 0)
(0.04508816543 0 0)
(0.04811631521 0 0)
(0.05133336728 0 0)
(0.05476540409 0 0)
(0.05851205564 0 0)
(0.06240678684 0 0)
(0.06671915196 0 0)
(0.07123615566 0 0)
(0.07606616299 0 0)
(0.08131619137 0 0)
(0.08680897625 0 0)
(0.09282323567 0 0)
(0.09919988512 0 0)
(0.1058813961 0 0)
(0.113224077 0 0)
(0.1209406347 0 0)
(0.1290858049 0 0)
(0.1379560044 0 0)
(0.1472681821 0 0)
(0.1570493626 0 0)
(0.1676736637 0 0)
(0.1788332731 0 0)
(0.1905481541 0 0)
(0.2030960307 0 0)
(0.2163887008 0 0)
(0.2303289446 0 0)
(0.2449980146 0 0)
(0.2606619326 0 0)
(0.2770817969 0 0)
(0.2942735353 0 0)
(0.3123246854 0 0)
(0.3314737158 0 0)
(0.3514951307 0 0)
(0.3724131258 0 0)
(0.3942974034 0 0)
(0.4173235018 0 0)
(0.4414840115 0 0)
(0.4666758546 0 0)
(0.4928873293 0 0)
(0.5201590024 0 0)
(0.5485290059 0 0)
(0.5782708951 0 0)
(0.6092254509 0 0)
(0.6414107683 0 0)
(0.6748219593 0 0)
(0.7094741663 0 0)
(0.7454009836 0 0)
(0.7826208339 0 0)
(0.8211670441 0 0)
(0.8610849765 0 0)
(0.9022550904 0 0)
(0.9446174921 0 0)
(0.9880670082 0 0)
(1.032465334 0 0)
(1.077624644 0 0)
(1.123307315 0 0)
(1.169165004 0 0)
(1.214716881 0 0)
(1.259365186 0 0)
(1.302454063 0 0)
(1.343275859 0 0)
(1.381123403 0 0)
(1.415372273 0 0)
(1.445573378 0 0)
(1.471532866 0 0)
(1.493351135 0 0)
(1.511400361 0 0)
(1.526229104 0 0)
(1.538480069 0 0)
(1.548788465 0 0)
(1.557675168 0 0)
(1.565557961 0 0)
(1.572714606 0 0)
(1.579347039 0 0)
(1.585616363 0 0)
(1.591597556 0 0)
(1.597334455 0 0)
(1.602852319 0 0)
(1.608182452 0 0)
(1.613368201 0 0)
(1.618421855 0 0)
(1.623352665 0 0)
(1.628148289 0 0)
(1.632788659 0 0)
(1.637275362 0 0)
(1.641599484 0 0)
(1.645791914 0 0)
(1.649937687 0 0)
(1.653977541 0 0)
(1.657867125 0 0)
(1.661605846 0 0)
(1.665194595 0 0)
(1.668754177 0 0)
(1.67232496 0 0)
(1.675763468 0 0)
(1.679075419 0 0)
(1.682346745 0 0)
(1.685542857 0 0)
(1.688627989 0 0)
(1.691622408 0 0)
(1.694581771 0 0)
(1.69750634 0 0)
(1.700354138 0 0)
(1.70311826 0 0)
(1.705819765 0 0)
(1.708474139 0 0)
(1.71108566 0 0)
(1.713645659 0 0)
(1.7161522 0 0)
(1.718611691 0 0)
(1.7210015 0 0)
(1.723340262 0 0)
(1.725640363 0 0)
(1.727908571 0 0)
(1.730144876 0 0)
(1.732344391 0 0)
(1.734482224 0 0)
(1.736568411 0 0)
(1.738629828 0 0)
(1.740668049 0 0)
(1.742683009 0 0)
(1.744673936 0 0)
(1.746602502 0 0)
(1.748460386 0 0)
(1.750287252 0 0)
(1.752095534 0 0)
(1.753881657 0 0)
(1.755649421 0 0)
(1.757397583 0 0)
(1.759103089 0 0)
(1.760766126 0 0)
(1.762408663 0 0)
(1.764035978 0 0)
(1.765646647 0 0)
(1.767239433 0 0)
(1.768816163 0 0)
(1.770361702 0 0)
(1.771850019 0 0)
(1.77331325 0 0)
(1.774762152 0 0)
(1.776193606 0 0)
(1.777608507 0 0)
(1.779006709 0 0)
(1.780387745 0 0)
(1.781734354 0 0)
(1.783026397 0 0)
(1.784291273 0 0)
(1.785538621 0 0)
(1.786768755 0 0)
(1.787981013 0 0)
(1.789175989 0 0)
(1.790353024 0 0)
(1.791513582 0 0)
(1.792644253 0 0)
(1.793731723 0 0)
(1.794799004 0 0)
(1.795850759 0 0)
(1.796886687 0 0)
(1.797908578 0 0)
(1.79891779 0 0)
(1.799916015 0 0)
(1.800905939 0 0)
(1.801890743 0 0)
(1.802868315 0 0)
(1.803834873 0 0)
(1.804801339 0 0)
(1.805769001 0 0)
(1.806736948 0 0)
(1.807704297 0 0)
(1.80867008 0 0)
(1.809633184 0 0)
(1.810592147 0 0)
(1.811545682 0 0)
(1.812489893 0 0)
(1.813402087 0 0)
(1.814290544 0 0)
(1.815170589 0 0)
(1.816041796 0 0)
(1.816904795 0 0)
(1.817760413 0 0)
(1.818609448 0 0)
(1.819452602 0 0)
(1.820290396 0 0)
(1.821123178 0 0)
(1.821951522 0 0)
(1.822768261 0 0)
(1.823564848 0 0)
(1.824354082 0 0)
(1.825136159 0 0)
(1.825909497 0 0)
(1.826672976 0 0)
(1.827425589 0 0)
(1.828166339 0 0)
(1.828894601 0 0)
(1.829609744 0 0)
(1.830311185 0 0)
(1.830998375 0 0)
(1.8316709 0 0)
(1.832320642 0 0)
(1.832941175 0 0)
(1.833546885 0 0)
(1.834140291 0 0)
(1.834722988 0 0)
(1.835296908 0 0)
(1.835863508 0 0)
(1.836423353 0 0)
(1.83697656 0 0)
(1.837522211 0 0)
(1.838058763 0 0)
(1.83858522 0 0)
(1.839100887 0 0)
(1.839605849 0 0)
(1.840101791 0 0)
(1.840590669 0 0)
(1.841074873 0 0)
(1.841551601 0 0)
(1.842024533 0 0)
(1.84249688 0 0)
(1.842967947 0 0)
(1.843438159 0 0)
(1.84390816 0 0)
(1.844378884 0 0)
(1.844851011 0 0)
(1.845325322 0 0)
(1.845802533 0 0)
(1.84628306 0 0)
(1.846766861 0 0)
(1.847253789 0 0)
(1.847742746 0 0)
(1.848231185 0 0)
(1.848715353 0 0)
(1.849191222 0 0)
(1.849654585 0 0)
(1.850103459 0 0)
(1.850531617 0 0)
(1.850936582 0 0)
(1.851330053 0 0)
(1.851713541 0 0)
(1.852087445 0 0)
(1.852451836 0 0)
(1.852806493 0 0)
(1.853151531 0 0)
(1.853487936 0 0)
(1.853816612 0 0)
(1.854138162 0 0)
(1.854453482 0 0)
(1.85476356 0 0)
(1.855069193 0 0)
(1.855370215 0 0)
(1.85566448 0 0)
(1.855947609 0 0)
(1.856217051 0 0)
(1.856473383 0 0)
(1.85672355 0 0)
(1.856979904 0 0)
(1.857257685 0 0)
(1.857567978 0 0)
(1.857915298 0 0)
(1.858296072 0 0)
(1.858696438 0 0)
(1.859104565 0 0)
(1.859500209 0 0)
(1.859867611 0 0)
(1.860198082 0 0)
(1.860496467 0 0)
(1.860768082 0 0)
(1.861016502 0 0)
(1.861239786 0 0)
(1.861436198 0 0)
(1.861613869 0 0)
(1.861789841 0 0)
(1.861985288 0 0)
(1.86221782 0 0)
(1.862491133 0 0)
(1.862797589 0 0)
(1.863122898 0 0)
(1.863452736 0 0)
(1.863778952 0 0)
(1.864099022 0 0)
(1.864413307 0 0)
(1.864721084 0 0)
(1.865013672 0 0)
(1.865273863 0 0)
(1.865479627 0 0)
(1.865623823 0 0)
(1.865719735 0 0)
(1.865796061 0 0)
(1.865878893 0 0)
(1.865979971 0 0)
(1.866095985 0 0)
(1.866214249 0 0)
(1.86631731 0 0)
(1.86639114 0 0)
(1.866437628 0 0)
(1.866470161 0 0)
(1.866497724 0 0)
(1.866506152 0 0)
(1.866476128 0 0)
(1.866414678 0 0)
(1.866364071 0 0)
(1.86636012 0 0)
(1.86639621 0 0)
(1.866438394 0 0)
(1.866461702 0 0)
(1.866480999 0 0)
(1.866533838 0 0)
(1.866627493 0 0)
(1.866722144 0 0)
(1.866780656 0 0)
(1.86680561 0 0)
(1.866812231 0 0)
(1.86678905 0 0)
(1.866732383 0 0)
(1.866676132 0 0)
(1.866645023 0 0)
(1.866624398 0 0)
(1.866586641 0 0)
(1.86651724 0 0)
(1.866443475 0 0)
(1.866409543 0 0)
(1.866467989 0 0)
)
;

boundaryField
{
    bottom
    {
        type            fixedValue;
        value           uniform (0 0 0);
    }
    top
    {
        type            zeroGradient;
    }
    frontAndBack
    {
        type            empty;
    }
}


// ************************************************************************* //
